Title
82299
    1SAPS     N    1   6.181   1.838  11.099  0.0971 -0.1577  0.1345
    1SAPS   HN1    2   6.134   1.747  11.118 -1.2321  1.0031  3.0377
    1SAPS   HN2    3   6.285   1.829  11.106 -0.0356 -1.8298  0.5412
    1SAPS   HN3    4   6.151   1.904  11.173 -0.0947 -0.5544  0.4140
    1SAPS   C12    5   6.129   1.878  10.966 -0.7311  0.4363  0.2208
    1SAPS  H12A    6   6.180   1.811  10.899  0.9500  1.2655  0.6332
    1SAPS   C13    7   5.975   1.867  10.955  0.2221 -0.1013  0.3254
    1SAPS  O13A    8   5.906   1.838  11.059 -0.3374  0.1218  0.2406
    1SAPS  O13B    9   5.925   1.885  10.840 -0.0793 -0.0149 -1.0631
    1SAPS   C11   10   6.183   2.019  10.930 -0.5480  0.0377  0.1939
    1SAPS  H11A   11   6.136   2.105  10.983  1.9392  1.9213 -0.4479
    1SAPS  H11B   12   6.173   2.057  10.826 -0.8793  2.7923  1.1457
    1SAPS     P   13   6.448   1.941  10.919  0.3646  0.2059  0.6053
    1SAPS   O13   14   6.567   2.025  10.899  0.4276  0.3698 -0.7965
    1SAPS   O14   15   6.457   1.830  11.016  0.0474 -0.1689  0.0793
    1SAPS   O12   16   6.322   2.032  10.966 -0.6604 -0.1753 -0.5697
    1SAPS   O11   17   6.388   1.894  10.785  0.5774 -0.3175 -0.6890
    1SAPS    C1   18   6.415   1.951  10.661  0.0030  0.8356 -0.1337
    1SAPS    HA   19   6.330   2.022  10.646  0.7509  1.6584 -0.5454
    1SAPS    HB   20   6.515   1.998  10.654  0.2962  0.0175 -2.3576
    1SAPS    C2   21   6.407   1.850  10.543 -0.3402 -0.0351 -0.2973
    1SAPS    HS   22   6.506   1.798  10.541  0.3798  1.3054 -0.9142
    1SAPS   O21   23   6.378   1.918  10.420 -0.2875 -0.6701 -0.0375
    1SAPS   C21   24   6.496   1.962  10.361  0.0375 -0.2785 -0.3156
    1SAPS   O22   25   6.603   1.948  10.408 -0.0466  0.3494 -0.7477
    1SAPS   C22   26   6.477   2.026  10.231 -0.3729  0.5454 -0.1613
    1SAPS   H2R   27   6.410   2.114  10.237 -3.1938 -1.1471 -3.2862
    1SAPS   H2S   28   6.578   2.060  10.198 -1.2434  2.8955 -0.5732
    1SAPS    C3   29   6.287   1.748  10.562  0.3045 -0.6997 -0.7263
    1SAPS    HX   30   6.206   1.805  10.612  0.1193 -0.2143 -1.5539
    1SAPS    HY   31   6.313   1.661  10.626  0.1026 -1.7868 -2.0776
    1SAPS   O31   32   6.240   1.686  10.442  0.5900  0.4747  0.2292
    1SAPS   C31   33   6.115   1.654  10.437  0.3195 -0.4554  0.5243
    1SAPS   O32   34   6.031   1.662  10.525  0.0776  0.4261 -0.6640
    1SAPS   C32   35   6.089   1.620  10.291 -0.1605 -0.3102 -0.2669
    1SAPS   H2X   36   6.122   1.704  10.227 -1.2992  0.5464  0.2400
    1SAPS   H2Y   37   5.980   1.605  10.274 -0.8790  1.1511  2.4880
    1SAPS   C23   38   6.412   1.941  10.124 -0.0214  0.2240 -0.1667
    1SAPS   H3R   39   6.366   1.858  10.182  0.9719  0.1365  0.5258
    1SAPS   H3S   40   6.494   1.894  10.067  1.1120  2.6279 -0.6585
    1SAPS   C24   41   6.324   2.022  10.033  0.5253  0.1319 -0.3862
    1SAPS   H4R   42   6.383   2.082   9.960 -0.2357 -0.4477 -1.4894
    1SAPS   H4S   43   6.258   2.093  10.088  1.3006 -1.2202  2.5055
    1SAPS   C25   44   6.231   1.933   9.956 -0.3063 -0.1668 -0.6072
    1SAPS   H5R   45   6.227   1.836  10.009 -0.2856  1.2649  2.1787
    1SAPS   C26   46   6.162   1.958   9.846 -0.2303 -0.1505  0.3502
    1SAPS   H6R   47   6.098   1.882   9.798 -0.3655  0.6283 -0.7454
    1SAPS   C27   48   6.170   2.093   9.771  1.1422 -0.3971  0.1578
    1SAPS   H7R   49   6.171   2.061   9.665 -0.7499  1.4023 -0.4625
    1SAPS   H7S   50   6.265   2.146   9.790  0.0344  0.8625  2.6763
    1SAPS   C28   51   6.062   2.189   9.806  0.1364  0.9383 -0.5067
    1SAPS   H8R   52   6.093   2.278   9.862  0.7917  0.1456  0.4316
    1SAPS   C29   53   5.929   2.184   9.784 -0.3166  0.1264 -0.5479
    1SAPS   H9R   54   5.866   2.266   9.822 -1.7631 -1.9669  1.9837
    1SAPS  C210   55   5.846   2.069   9.731  0.5556 -0.4682  0.0493
    1SAPS  H10R   56   5.762   2.038   9.798 -0.0539  0.2304 -0.3777
    1SAPS  H10S   57   5.902   1.977   9.704  3.7092  1.0028  1.1120
    1SAPS  C211   58   5.787   2.125   9.607  0.2176  0.1095  0.6996
    1SAPS  H11R   59   5.679   2.143   9.615 -0.0999 -0.8487 -0.9545
    1SAPS  C212   60   5.847   2.149   9.487  0.3880 -0.4466 -0.8792
    1SAPS  H12R   61   5.782   2.180   9.404  0.2176  0.9738 -0.2490
    1SAPS  C213   62   5.991   2.128   9.438  0.0047 -0.1607  0.4260
    1SAPS  H13R   63   6.001   2.051   9.359 -0.4067  0.7046 -0.4777
    1SAPS  H13S   64   6.058   2.100   9.523  0.9868 -0.0688 -0.2919
    1SAPS  C214   65   6.047   2.253   9.381 -0.0946 -0.7203  0.4656
    1SAPS  H14R   66   6.048   2.340   9.449 -1.6403 -1.4298  1.4347
    1SAPS  C215   67   6.116   2.277   9.261 -0.2281  0.3526 -0.2258
    1SAPS  H15R   68   6.176   2.369   9.252  0.9673 -0.3421  0.4203
    1SAPS  C216   69   6.145   2.170   9.160 -0.2842 -0.5485  0.7159
    1SAPS  H16R   70   6.052   2.109   9.163 -0.8665  0.3525  1.7704
    1SAPS  H16S   71   6.221   2.094   9.188  0.0881 -1.3489 -2.2043
    1SAPS  C217   72   6.171   2.230   9.018 -0.1453 -0.3096 -0.0168
    1SAPS  H17R   73   6.092   2.308   9.008 -0.3347 -0.1639  2.0643
    1SAPS  H17S   74   6.163   2.153   8.938  1.8248  0.6903 -1.2360
    1SAPS  C218   75   6.308   2.298   9.005  0.0438  0.2074 -0.1915
    1SAPS  H18R   76   6.381   2.217   9.029 -0.5413  0.1494  1.5821
    1SAPS  H18S   77   6.309   2.380   9.080  0.8069 -0.4632  0.5545
    1SAPS  C219   78   6.324   2.353   8.863  0.5292 -0.7627  0.8914
    1SAPS  H19R   79   6.254   2.436   8.842  0.2316 -0.8648  1.4628
    1SAPS  H19S   80   6.303   2.270   8.793  1.4024  0.2189 -0.5905
    1SAPS  C220   81   6.464   2.414   8.838 -0.0458 -0.3093 -0.0657
    1SAPS  H20R   82   6.479   2.428   8.729 -0.6172 -1.4208 -0.2986
    1SAPS  H20S   83   6.540   2.342   8.874 -1.1891 -1.1841  0.6719
    1SAPS  H20T   84   6.474   2.508   8.896  0.0302 -1.0014  1.0777
    1SAPS   C33   85   6.157   1.498  10.233 -0.7986  0.3956  0.0529
    1SAPS   H3X   86   6.268   1.512  10.240 -0.6966 -0.7248  0.9484
    1SAPS   H3Y   87   6.143   1.494  10.123  2.1127 -0.2173 -0.3843
    1SAPS   C34   88   6.111   1.358  10.279  0.5800 -0.3403  0.5312
    1SAPS   H4X   89   6.007   1.372  10.316  0.8323 -0.2215  1.2167
    1SAPS   H4Y   90   6.175   1.310  10.356  0.3503 -0.2250  0.7970
    1SAPS   C35   91   6.081   1.259  10.160  0.4651  0.2415 -0.5919
    1SAPS   H5X   92   6.073   1.155  10.197 -2.1557  0.5042 -0.1740
    1SAPS   H5Y   93   6.161   1.247  10.084  0.5492 -1.2240 -0.2957
    1SAPS   C36   94   5.953   1.292  10.086  0.5412 -0.5716  0.2580
    1SAPS   H6X   95   5.950   1.400  10.063 -2.5458 -0.9096 -1.4027
    1SAPS   H6Y   96   5.864   1.270  10.148 -0.0084  0.9743  0.0458
    1SAPS   C37   97   5.932   1.226   9.944 -0.8762  0.7004 -0.0444
    1SAPS   H7X   98   6.027   1.257   9.893  0.9775 -3.9516  0.1129
    1SAPS   H7Y   99   5.844   1.266   9.889 -1.2463 -0.2314 -0.1488
    1SAPS   C38  100   5.923   1.074   9.949 -0.1386  0.2819 -0.4827
    1SAPS   H8X  101   5.823   1.044   9.988  1.2510 -1.4342  2.0150
    1SAPS   H8Y  102   5.981   1.029  10.032 -0.0116 -1.6815 -1.5705
    1SAPS   C39  103   5.955   0.992   9.822  0.2316  0.5026 -0.0321
    1SAPS   H9X  104   6.052   1.020   9.776  0.5027 -0.2629  0.0547
    1SAPS   H9Y  105   5.872   1.003   9.749 -0.4996 -0.6257  0.5864
    1SAPS  C310  106   5.969   0.838   9.860 -0.3315 -0.1430 -0.3130
    1SAPS  H10X  107   5.863   0.805   9.867 -1.2722  2.1478 -2.2234
    1SAPS  H10Y  108   6.017   0.826   9.960  0.7009  0.6075 -0.6964
    1SAPS  C311  109   6.047   0.749   9.763  0.4488 -0.7162  0.3517
    1SAPS  H11X  110   6.059   0.645   9.797  1.9567 -0.6873 -0.0431
    1SAPS  H11Y  111   6.146   0.792   9.739  1.1796 -2.3007  0.4238
    1SAPS  C312  112   5.981   0.749   9.619  1.1290  0.3334 -0.2127
    1SAPS  H12X  113   5.966   0.854   9.587 -0.2460  0.4405  0.6777
    1SAPS  H12Y  114   5.883   0.704   9.646  1.1783  0.5390  0.3043
    1SAPS  C313  115   6.050   0.672   9.513 -0.2990  0.2878 -0.6761
    1SAPS  H13X  116   6.053   0.561   9.507  3.2122  0.3279 -2.4190
    1SAPS  H13Y  117   6.156   0.704   9.510  0.6688 -2.6771 -1.7610
    1SAPS  C314  118   5.991   0.706   9.375  0.6166 -0.3954  0.2055
    1SAPS  H14X  119   5.999   0.816   9.363  0.7542 -0.4170  0.0990
    1SAPS  H14Y  120   5.885   0.678   9.362  0.1874  1.5729 -0.8281
    1SAPS  C315  121   6.048   0.645   9.252  0.3772  0.7890  0.8699
    1SAPS  H15X  122   6.036   0.535   9.263  0.9866  0.6558  0.2738
    1SAPS  H15Y  123   6.155   0.673   9.264  0.5777  0.6060 -0.3536
    1SAPS  C316  124   5.985   0.702   9.126  0.5081  1.0130 -0.6735
    1SAPS  H16X  125   6.003   0.810   9.145 -1.5929  1.0735  1.4292
    1SAPS  H16Y  126   5.875   0.697   9.115  0.4792  2.5924 -1.4134
    1SAPS  C317  127   6.050   0.653   8.991 -0.2116  0.2199 -0.0200
    1SAPS  H17X  128   6.160   0.641   9.005 -0.2910  0.1459  0.5704
    1SAPS  H17Y  129   6.026   0.730   8.916 -1.9911 -0.6373 -0.3807
    1SAPS  C318  130   5.986   0.525   8.944  0.0515 -0.5610 -0.1256
    1SAPS  H18X  131   5.992   0.445   9.021  0.0418  0.6289  1.1566
    1SAPS  H18Y  132   6.024   0.484   8.848 -2.9998 -0.7767 -1.3552
    1SAPS  H18Z  133   5.880   0.554   8.924 -0.1983 -1.2792  0.1366
    2SAPS     N  134   5.255   3.201  11.127 -0.1017 -0.0288 -0.1353
    2SAPS   HN1  135   5.213   3.187  11.221 -0.7217  0.8463 -0.2665
    2SAPS   HN2  136   5.340   3.141  11.131 -0.9713 -1.2476  2.3840
    2SAPS   HN3  137   5.277   3.301  11.108  1.6812 -0.3895 -0.1407
    2SAPS   C12  138   5.169   3.138  11.018 -0.4356 -0.7632 -0.7421
    2SAPS  H12A  139   5.133   3.045  11.061  0.3235 -1.7986 -2.2558
    2SAPS   C13  140   5.038   3.216  10.986 -0.2976  0.1936 -0.6090
    2SAPS  O13A  141   5.015   3.329  11.038  0.4343  0.6836  0.1144
    2SAPS  O13B  142   4.954   3.150  10.926  0.6444 -0.0445 -0.1069
    2SAPS   C11  143   5.249   3.116  10.882  0.0281  0.3867 -0.4919
    2SAPS  H11A  144   5.282   3.217  10.849 -0.1518 -0.7901 -5.0384
    2SAPS  H11B  145   5.178   3.082  10.804  0.3507 -2.6465  0.4029
    2SAPS     P  146   5.334   2.867  10.890  0.1394 -0.0236 -0.1249
    2SAPS   O13  147   5.460   2.808  10.947  0.4042 -0.1871  0.1316
    2SAPS   O14  148   5.198   2.839  10.944  0.0503  0.3949  0.5304
    2SAPS   O12  149   5.355   3.028  10.880 -0.6750  0.2366  0.1360
    2SAPS   O11  150   5.327   2.833  10.741  0.1989  0.0090 -0.3663
    2SAPS    C1  151   5.391   2.911  10.643  0.0171  0.4036  0.0702
    2SAPS    HA  152   5.356   3.016  10.644 -1.4377 -0.0389  2.2514
    2SAPS    HB  153   5.501   2.905  10.629 -0.2589 -3.1388 -1.6481
    2SAPS    C2  154   5.344   2.859  10.498  0.2615 -0.4029 -0.3242
    2SAPS    HS  155   5.377   2.937  10.427 -3.0899  2.4457  0.9484
    2SAPS   O21  156   5.198   2.853  10.498 -0.4467 -1.0161 -0.0538
    2SAPS   C21  157   5.136   2.968  10.488 -0.3507  1.1459  0.5973
    2SAPS   O22  158   5.180   3.079  10.488 -0.5017 -0.0811 -0.4556
    2SAPS   C22  159   4.985   2.933  10.449 -0.5835 -0.1672 -0.6309
    2SAPS   H2R  160   4.957   2.828  10.471  0.0047 -0.4212 -1.0463
    2SAPS   H2S  161   4.931   2.996  10.523  1.0465  1.4061 -0.6936
    2SAPS    C3  162   5.406   2.721  10.457 -0.8191  0.2744  0.1264
    2SAPS    HX  163   5.350   2.639  10.508  1.0377 -1.8009 -0.9740
    2SAPS    HY  164   5.507   2.729  10.503 -0.9291  0.5169  0.3265
    2SAPS   O31  165   5.404   2.697  10.312 -0.0684 -0.0689  0.8209
    2SAPS   C31  166   5.526   2.679  10.257  0.5363  0.2851  0.9760
    2SAPS   O32  167   5.630   2.698  10.312 -0.3169 -0.1833 -0.0690
    2SAPS   C32  168   5.522   2.610  10.110  0.1653 -0.0655  0.1023
    2SAPS   H2X  169   5.451   2.674  10.055 -2.2235 -1.3455  1.5438
    2SAPS   H2Y  170   5.474   2.510  10.118 -0.1776  0.1943  1.4506
    2SAPS   C23  171   4.947   2.964  10.307  0.6438 -0.2664  0.3484
    2SAPS   H3R  172   5.015   2.914  10.235  0.2648 -1.6610  0.9238
    2SAPS   H3S  173   4.957   3.072  10.286  0.2700 -0.3845 -0.4873
    2SAPS   C24  174   4.798   2.926  10.265  0.5779 -0.3072 -0.1433
    2SAPS   H4R  175   4.773   2.975  10.168  2.5573 -0.7870 -0.9501
    2SAPS   H4S  176   4.737   2.983  10.338  0.2198  1.6907 -1.8973
    2SAPS   C25  177   4.769   2.778  10.275 -0.3661  0.6754 -0.0683
    2SAPS   H5R  178   4.750   2.742  10.377 -4.7384  0.3597 -0.8027
    2SAPS   C26  179   4.761   2.687  10.172  0.5174  0.2986  0.2021
    2SAPS   H6R  180   4.725   2.586  10.195  0.1520  0.2298 -0.6476
    2SAPS   C27  181   4.766   2.735  10.034  0.3002  1.0407 -0.1830
    2SAPS   H7R  182   4.864   2.778  10.004  0.4518  0.6754 -0.2125
    2SAPS   H7S  183   4.692   2.817  10.019 -1.3770 -0.6103 -1.4118
    2SAPS   C28  184   4.744   2.625   9.933 -1.3648 -0.2562 -0.0366
    2SAPS   H8R  185   4.738   2.522   9.973  1.7289 -0.6664 -0.4452
    2SAPS   C29  186   4.729   2.641   9.805 -0.1481  0.0107  0.5666
    2SAPS   H9R  187   4.706   2.559   9.735 -3.6593  2.7675 -1.8491
    2SAPS  C210  188   4.732   2.777   9.739  0.7192  0.2418 -0.0418
    2SAPS  H10R  189   4.769   2.766   9.635  1.1043 -1.6490  0.2419
    2SAPS  H10S  190   4.820   2.829   9.781  1.3396 -0.9413  0.1590
    2SAPS  C211  191   4.603   2.857   9.750  0.3927 -0.0183  0.2176
    2SAPS  H11R  192   4.535   2.826   9.831 -0.9912  0.9781 -0.5076
    2SAPS  C212  193   4.563   2.963   9.680  0.1093 -0.3139 -0.0709
    2SAPS  H12R  194   4.475   3.018   9.714 -0.5701 -0.5851 -1.3240
    2SAPS  C213  195   4.644   3.024   9.567 -0.1032 -0.1864  0.0583
    2SAPS  H13R  196   4.750   2.995   9.580 -0.4027 -0.4309  2.3431
    2SAPS  H13S  197   4.638   3.133   9.585 -1.0218 -0.1386 -0.4614
    2SAPS  C214  198   4.582   2.976   9.431 -0.1923 -0.3928 -0.2874
    2SAPS  H14R  199   4.493   3.034   9.406 -0.5447 -0.4236  0.8337
    2SAPS  C215  200   4.636   2.890   9.344  0.0056  0.4608 -0.5488
    2SAPS  H15R  201   4.587   2.859   9.251 -3.5284  1.8152  0.6821
    2SAPS  C216  202   4.767   2.814   9.362 -0.3790  0.1403  0.8749
    2SAPS  H16R  203   4.746   2.705   9.363  3.2758 -0.6744  1.4688
    2SAPS  H16S  204   4.825   2.849   9.451  0.2313  1.1199  0.1136
    2SAPS  C217  205   4.869   2.821   9.245 -0.6165  0.3900  1.2079
    2SAPS  H17R  206   4.964   2.770   9.271 -0.8609 -0.1460  1.0551
    2SAPS  H17S  207   4.912   2.918   9.210  2.5382 -0.7389  1.6449
    2SAPS  C218  208   4.821   2.755   9.118 -0.1832  0.1149  0.2466
    2SAPS  H18R  209   4.752   2.804   9.047  2.5372 -1.4657 -3.9609
    2SAPS  H18S  210   4.761   2.666   9.147 -0.5067 -0.2729 -1.4853
    2SAPS  C219  211   4.936   2.691   9.033 -0.2759  0.4056  0.3805
    2SAPS  H19R  212   4.889   2.620   8.962 -2.0158  0.9956  0.8898
    2SAPS  H19S  213   4.991   2.618   9.096 -0.4858 -1.5481 -1.6006
    2SAPS  C220  214   5.022   2.788   8.949 -0.9013  0.4671  0.8843
    2SAPS  H20R  215   4.958   2.828   8.868  2.1754 -1.2643 -2.6717
    2SAPS  H20S  216   5.106   2.739   8.896  0.9261  2.1142  2.1021
    2SAPS  H20T  217   5.065   2.869   9.013 -0.3983  0.8513  0.0735
    2SAPS   C33  218   5.662   2.608  10.030 -0.2124 -0.7904 -0.2190
    2SAPS   H3X  219   5.716   2.522  10.076  0.2146 -0.2158  0.3672
    2SAPS   H3Y  220   5.723   2.699  10.050  0.2611 -1.1990  0.2358
    2SAPS   C34  221   5.637   2.602   9.877 -0.6446  0.2691 -1.0971
    2SAPS   H4X  222   5.567   2.682   9.846 -0.8270  0.7548  0.4855
    2SAPS   H4Y  223   5.585   2.505   9.857 -1.3877  0.4977 -0.3085
    2SAPS   C35  224   5.765   2.608   9.783  0.1787 -0.2345  0.2940
    2SAPS   H5X  225   5.840   2.533   9.816 -0.0271 -2.1409 -3.0979
    2SAPS   H5Y  226   5.805   2.710   9.801  3.1157 -1.4278  1.0731
    2SAPS   C36  227   5.730   2.580   9.640  0.1198  0.1852 -0.4323
    2SAPS   H6X  228   5.639   2.636   9.611 -0.3282 -0.9313 -1.2466
    2SAPS   H6Y  229   5.718   2.470   9.628  0.4085  0.0103  0.8050
    2SAPS   C37  230   5.842   2.631   9.541  0.9363 -0.3329  0.8891
    2SAPS   H7X  231   5.942   2.590   9.565  1.6278 -1.9982 -3.7654
    2SAPS   H7Y  232   5.842   2.742   9.551  0.4358 -0.3525  1.1271
    2SAPS   C38  233   5.817   2.594   9.392  1.1155  0.2943 -0.6529
    2SAPS   H8X  234   5.728   2.651   9.357 -0.7569 -1.3991  1.0593
    2SAPS   H8Y  235   5.780   2.490   9.379  1.2803  0.5027 -3.2807
    2SAPS   C39  236   5.934   2.611   9.304  0.5902 -0.1964  0.1251
    2SAPS   H9X  237   6.016   2.540   9.329 -0.3348 -0.8480  1.4582
    2SAPS   H9Y  238   5.960   2.718   9.310 -2.5116  0.8461 -2.3789
    2SAPS  C310  239   5.896   2.595   9.154  0.2778  0.3702  0.1091
    2SAPS  H10X  240   5.799   2.642   9.127  0.5538 -0.0330 -1.7051
    2SAPS  H10Y  241   5.881   2.490   9.123  0.3502  0.2754  0.3970
    2SAPS  C311  242   6.016   2.657   9.071  0.7547  0.6246 -0.2506
    2SAPS  H11X  243   6.105   2.595   9.094 -1.9594 -3.3255  0.6572
    2SAPS  H11Y  244   6.047   2.755   9.113  1.6341  0.0219  0.5517
    2SAPS  C312  245   5.992   2.659   8.919  0.5158  0.3643  0.1824
    2SAPS  H12X  246   6.089   2.691   8.876 -0.4264  1.2901 -1.3511
    2SAPS  H12Y  247   5.918   2.737   8.891 -0.9414 -1.4700 -1.3366
    2SAPS  C313  248   5.957   2.526   8.854  0.9357 -0.1118 -0.0405
    2SAPS  H13X  249   5.857   2.496   8.892 -0.2445  1.3834 -1.7396
    2SAPS  H13Y  250   6.024   2.440   8.874  0.4127 -1.1515 -2.3532
    2SAPS  C314  251   5.944   2.540   8.703 -0.5135 -0.4325 -0.2416
    2SAPS  H14X  252   6.025   2.602   8.659 -0.5127 -0.3572 -0.1326
    2SAPS  H14Y  253   5.847   2.588   8.680 -0.0798  0.0099 -1.2073
    2SAPS  C315  254   5.929   2.399   8.638  0.0473 -0.6940 -0.4940
    2SAPS  H15X  255   6.017   2.339   8.671  0.5917 -0.5333 -1.6111
    2SAPS  H15Y  256   5.931   2.420   8.529 -0.2859 -0.0248 -0.3731
    2SAPS  C316  257   5.799   2.329   8.675 -0.4696 -0.0940  0.2718
    2SAPS  H16X  258   5.719   2.375   8.614  0.0286 -0.3454 -0.5921
    2SAPS  H16Y  259   5.777   2.333   8.784 -1.9123  3.2307 -0.0108
    2SAPS  C317  260   5.788   2.183   8.633 -0.2187 -0.0449  0.3734
    2SAPS  H17X  261   5.814   2.159   8.527  1.1261 -0.4973  0.7876
    2SAPS  H17Y  262   5.691   2.134   8.653 -0.1241  0.1807  1.4519
    2SAPS  C318  263   5.874   2.099   8.725  0.0680 -0.6747 -0.3971
    2SAPS  H18X  264   5.855   1.992   8.698 -0.6925 -0.3574 -1.1663
    2SAPS  H18Y  265   5.850   2.129   8.829  0.2647  1.2526 -0.8761
    2SAPS  H18Z  266   5.978   2.125   8.698 -0.5217  2.4097 -0.0802
    3SAPS     N  267   6.772   3.938  11.038  0.2175  0.4850  0.4582
    3SAPS   HN1  268   6.806   4.036  11.033  2.0227 -0.1130  0.0930
    3SAPS   HN2  269   6.823   3.889  10.962  2.8801  1.0906  1.6970
    3SAPS   HN3  270   6.669   3.933  11.029  0.3334  0.5320 -1.1696
    3SAPS   C12  271   6.814   3.852  11.153 -0.3383  0.4297 -0.2564
    3SAPS  H12A  272   6.751   3.894  11.230  1.9099  3.0130  0.3435
    3SAPS   C13  273   6.784   3.698  11.128  0.4885  0.0436  0.2733
    3SAPS  O13A  274   6.740   3.667  11.016  0.0412 -0.1461 -0.1064
    3SAPS  O13B  275   6.824   3.609  11.209  0.0343  0.0395  0.3207
    3SAPS   C11  276   6.967   3.875  11.174 -0.2811  0.1008  0.3472
    3SAPS  H11A  277   6.989   3.833  11.274  0.6783 -2.0077 -0.7042
    3SAPS  H11B  278   6.973   3.986  11.188  0.8685 -0.2251  3.0297
    3SAPS     P  279   7.151   3.922  10.997  0.0389  0.0670 -0.0905
    3SAPS   O13  280   7.098   4.002  10.884  0.3534 -0.1681 -0.3551
    3SAPS   O14  281   7.224   3.988  11.105 -0.6776 -0.1579 -0.2061
    3SAPS   O12  282   7.045   3.825  11.067  0.4687  0.3374 -0.2897
    3SAPS   O11  283   7.253   3.816  10.946 -0.4009 -0.6719  0.3729
    3SAPS    C1  284   7.247   3.732  10.830 -0.2165 -0.4194 -0.5722
    3SAPS    HA  285   7.313   3.642  10.834 -1.0102 -1.0095 -0.4177
    3SAPS    HB  286   7.146   3.685  10.830 -1.1626  1.5004 -1.0619
    3SAPS    C2  287   7.286   3.810  10.711 -0.1564  0.0740 -0.6393
    3SAPS    HS  288   7.196   3.873  10.697 -0.7231 -0.7381 -0.7489
    3SAPS   O21  289   7.299   3.715  10.603  0.0359 -0.3096  0.1371
    3SAPS   C21  290   7.183   3.684  10.554 -0.0636 -0.1035  0.2251
    3SAPS   O22  291   7.077   3.743  10.565 -0.3469  0.0752  0.0633
    3SAPS   C22  292   7.206   3.543  10.493  0.0893 -0.3703 -0.0622
    3SAPS   H2R  293   7.313   3.535  10.467 -0.1789 -1.2080 -0.9746
    3SAPS   H2S  294   7.180   3.464  10.567 -0.4711 -3.2227 -3.0696
    3SAPS    C3  295   7.421   3.888  10.733  0.5172  0.5442  0.7373
    3SAPS    HX  296   7.495   3.812  10.766 -0.3108 -0.7803 -0.3129
    3SAPS    HY  297   7.397   3.953  10.819 -1.5529 -0.6462  1.1444
    3SAPS   O31  298   7.474   3.953  10.611 -0.3875  0.0206 -0.0453
    3SAPS   C31  299   7.398   4.061  10.576 -0.2254 -0.4880 -0.2078
    3SAPS   O32  300   7.315   4.114  10.638 -0.4845 -0.0833 -0.7975
    3SAPS   C32  301   7.440   4.092  10.429 -0.3742  1.0263  0.1938
    3SAPS   H2X  302   7.551   4.088  10.433 -0.4165  0.7060  2.9991
    3SAPS   H2Y  303   7.404   4.194  10.402 -0.5766  0.6632 -0.9445
    3SAPS   C23  304   7.120   3.522  10.365 -0.6447 -0.2542  0.0852
    3SAPS   H3R  305   7.099   3.616  10.309 -2.1648  0.9072  2.4649
    3SAPS   H3S  306   7.022   3.480  10.396 -0.7334  1.1857  1.8781
    3SAPS   C24  307   7.184   3.416  10.273  0.6658 -0.3277 -0.3049
    3SAPS   H4R  308   7.203   3.324  10.332 -0.8303  0.8537  2.1825
    3SAPS   H4S  309   7.287   3.434  10.235  0.6709 -1.7015 -1.0025
    3SAPS   C25  310   7.089   3.387  10.166  0.2375  0.5720 -0.1411
    3SAPS   H5R  311   6.993   3.357  10.211 -0.0060  2.2927  0.5594
    3SAPS   C26  312   7.099   3.384  10.031  0.3178  0.2577  0.0784
    3SAPS   H6R  313   7.019   3.333   9.975 -0.8438 -2.1908  3.6229
    3SAPS   C27  314   7.223   3.419   9.949 -0.1328 -0.3865 -0.0081
    3SAPS   H7R  315   7.279   3.494  10.008 -1.8835  0.7243  0.3360
    3SAPS   H7S  316   7.195   3.473   9.856  2.4732 -1.1143 -1.2887
    3SAPS   C28  317   7.312   3.306   9.906 -0.3049  0.0958 -0.8783
    3SAPS   H8R  318   7.348   3.239   9.985 -1.2969 -0.0350 -0.5177
    3SAPS   C29  319   7.344   3.285   9.781  0.6118 -0.6160 -0.2217
    3SAPS   H9R  320   7.405   3.199   9.748 -0.9160 -1.7267 -0.2696
    3SAPS  C210  321   7.312   3.355   9.653  0.3261  0.2060 -0.5644
    3SAPS  H10R  322   7.403   3.370   9.591 -0.2555 -0.0775 -1.5200
    3SAPS  H10S  323   7.256   3.451   9.657 -2.7186 -1.3843 -1.4870
    3SAPS  C211  324   7.227   3.263   9.568  0.6658  0.4414  0.1923
    3SAPS  H11R  325   7.216   3.163   9.612  1.2077  0.6408  0.7943
    3SAPS  C212  326   7.171   3.294   9.453 -0.3877 -0.1465  0.2745
    3SAPS  H12R  327   7.123   3.212   9.397 -0.4922 -0.9869  1.5579
    3SAPS  C213  328   7.194   3.424   9.375  0.5093  0.2120  0.0598
    3SAPS  H13R  329   7.234   3.405   9.273 -1.0354 -1.4659 -0.3007
    3SAPS  H13S  330   7.278   3.476   9.425  2.9193 -2.9156 -0.3773
    3SAPS  C214  331   7.065   3.499   9.374  0.6536  0.3989 -0.1385
    3SAPS  H14R  332   7.028   3.515   9.477  2.4839  1.1045  0.4454
    3SAPS  C215  333   7.005   3.542   9.263 -0.1262  0.1076  0.2159
    3SAPS  H15R  334   6.910   3.595   9.275 -0.3230 -0.0802 -0.4640
    3SAPS  C216  335   7.046   3.535   9.113 -0.4977 -0.5053 -0.4543
    3SAPS  H16R  336   6.977   3.472   9.053 -1.7049  0.7803 -0.4761
    3SAPS  H16S  337   7.154   3.509   9.113  0.6077  3.3590 -2.3673
    3SAPS  C217  338   7.038   3.670   9.036 -0.7279 -0.4693 -0.1146
    3SAPS  H17R  339   7.103   3.740   9.094  0.0274 -0.4571 -0.9549
    3SAPS  H17S  340   6.935   3.712   9.030 -0.1046  0.9777 -2.3101
    3SAPS  C218  341   7.096   3.660   8.900 -0.4313  0.7747  0.2119
    3SAPS  H18R  342   7.042   3.586   8.837 -0.0319  1.4933 -1.0116
    3SAPS  H18S  343   7.193   3.607   8.907 -0.1979  0.8159 -2.1281
    3SAPS  C219  344   7.089   3.789   8.824 -0.1414  0.4124  0.0885
    3SAPS  H19R  345   7.109   3.869   8.898  1.5338 -1.2957  1.5691
    3SAPS  H19S  346   6.994   3.805   8.768  0.6260 -0.0994 -1.4197
    3SAPS  C220  347   7.194   3.791   8.714 -0.1749 -0.1370  0.5982
    3SAPS  H20R  348   7.292   3.777   8.764  0.0656 -0.2664  0.0986
    3SAPS  H20S  349   7.200   3.883   8.652 -1.8627 -0.3741  0.0304
    3SAPS  H20T  350   7.183   3.709   8.639  1.9036  0.5943 -0.6017
    3SAPS   C33  351   7.392   3.988  10.336 -0.3975  0.3187 -0.3308
    3SAPS   H3X  352   7.435   3.890  10.363 -0.8756 -0.8016 -3.2608
    3SAPS   H3Y  353   7.429   4.008  10.233 -1.1141 -1.0521 -0.8794
    3SAPS   C34  354   7.237   3.971  10.322 -0.3680 -0.3616 -0.2132
    3SAPS   H4X  355   7.182   4.067  10.327  2.5059  1.3795  1.1578
    3SAPS   H4Y  356   7.205   3.909  10.408  0.0408 -2.3993 -1.4574
    3SAPS   C35  357   7.204   3.889  10.202  1.0446  0.8145  0.1714
    3SAPS   H5X  358   7.242   3.786  10.220 -1.7041 -0.4352 -0.6363
    3SAPS   H5Y  359   7.251   3.926  10.109  0.9150  0.2708 -0.1172
    3SAPS   C36  360   7.051   3.879  10.185  0.0614  0.3991  0.4977
    3SAPS   H6X  361   7.009   3.982  10.195  0.4517  0.4156  2.4675
    3SAPS   H6Y  362   7.009   3.824  10.272 -0.0999  1.0194  0.8211
    3SAPS   C37  363   7.009   3.820  10.055 -0.3769  0.3646  0.0023
    3SAPS   H7X  364   7.027   3.711  10.056  1.0502  0.5760 -0.1163
    3SAPS   H7Y  365   7.073   3.845   9.967  0.7662 -1.5850  0.2284
    3SAPS   C38  366   6.866   3.847  10.024  0.7647 -0.4464 -0.0484
    3SAPS   H8X  367   6.860   3.941   9.965 -0.5086 -0.0203  0.7178
    3SAPS   H8Y  368   6.810   3.854  10.120  1.5438  2.2848  0.2897
    3SAPS   C39  369   6.798   3.735   9.936 -0.2194  0.1644  0.3195
    3SAPS   H9X  370   6.689   3.749   9.921  0.0935  0.4781 -2.0197
    3SAPS   H9Y  371   6.813   3.639   9.989  0.7540 -0.5479 -1.1669
    3SAPS  C310  372   6.859   3.736   9.793 -0.7372 -0.4278  0.1810
    3SAPS  H10X  373   6.822   3.650   9.734  0.5292 -0.9370  0.1186
    3SAPS  H10Y  374   6.969   3.720   9.791 -0.6523  0.0315  0.8232
    3SAPS  C311  375   6.829   3.853   9.706 -0.6972 -0.7097  0.2734
    3SAPS  H11X  376   6.860   3.949   9.751  0.7102  0.5717 -3.1526
    3SAPS  H11Y  377   6.719   3.853   9.690 -0.6252 -0.6567 -0.2268
    3SAPS  C312  378   6.905   3.840   9.575 -0.3044 -0.1530  0.3445
    3SAPS  H12X  379   6.894   3.743   9.522  1.5695  0.3651 -1.1145
    3SAPS  H12Y  380   7.015   3.854   9.575 -0.4225  0.9801 -0.8259
    3SAPS  C313  381   6.855   3.946   9.475 -0.2828  0.4341 -0.5119
    3SAPS  H13X  382   6.848   4.042   9.530  0.0177 -0.3107  0.8635
    3SAPS  H13Y  383   6.753   3.920   9.440  0.2348 -2.0056 -0.4319
    3SAPS  C314  384   6.942   3.958   9.346 -0.0927  0.8031  0.7154
    3SAPS  H14X  385   6.946   3.864   9.288 -0.3363  0.2466  1.5819
    3SAPS  H14Y  386   7.048   3.975   9.374  0.6395 -2.7930  0.6056
    3SAPS  C315  387   6.896   4.071   9.259 -0.3294  0.1101  0.2954
    3SAPS  H15X  388   6.895   4.175   9.298  1.7252  0.7445 -1.1897
    3SAPS  H15Y  389   6.789   4.053   9.233 -0.4049 -1.7219  1.7003
    3SAPS  C316  390   6.967   4.082   9.126 -0.0803  0.6052  0.1842
    3SAPS  H16X  391   6.949   3.982   9.081 -0.2837  0.7980 -0.1613
    3SAPS  H16Y  392   7.072   4.117   9.139 -0.0844 -0.0737  2.6431
    3SAPS  C317  393   6.913   4.192   9.028  0.2197  0.7374  0.0873
    3SAPS  H17X  394   6.932   4.290   9.077  0.1032 -0.0915  1.8939
    3SAPS  H17Y  395   6.803   4.185   9.019  0.1239 -0.5666  1.5988
    3SAPS  C318  396   6.966   4.174   8.886 -0.0314  0.0950  0.7032
    3SAPS  H18X  397   6.942   4.069   8.857  0.0132  0.8384 -2.3902
    3SAPS  H18Y  398   7.077   4.182   8.892 -0.0439 -0.1034  1.3134
    3SAPS  H18Z  399   6.914   4.232   8.807 -1.2474  0.2796  1.6166
    4SAPS     N  400   3.186   4.409  11.160  0.5637  0.3490  0.1498
    4SAPS   HN1  401   3.124   4.459  11.227 -0.9476  1.0290 -1.6582
    4SAPS   HN2  402   3.284   4.425  11.191  0.1096 -0.0130  1.8878
    4SAPS   HN3  403   3.172   4.455  11.068 -0.5744  2.6942  1.3964
    4SAPS   C12  404   3.139   4.262  11.158 -0.2564 -0.6263 -0.1517
    4SAPS  H12A  405   3.212   4.202  11.106 -0.1820  0.0392 -0.8302
    4SAPS   C13  406   3.129   4.198  11.294 -0.0444  0.5931 -0.9591
    4SAPS  O13A  407   3.161   4.258  11.399 -0.2435  0.2174 -0.1968
    4SAPS  O13B  408   3.133   4.074  11.292 -0.0001 -0.0646  0.1519
    4SAPS   C11  409   3.004   4.257  11.082 -0.6251 -0.1422  0.3486
    4SAPS  H11A  410   2.927   4.313  11.139 -0.4930  0.4142 -0.0118
    4SAPS  H11B  411   2.972   4.151  11.066 -1.5169  0.3085 -1.0415
    4SAPS     P  412   3.067   4.223  10.840 -0.2252 -0.3425  0.4274
    4SAPS   O13  413   3.197   4.158  10.862 -0.5962  0.0112 -0.5558
    4SAPS   O14  414   2.948   4.140  10.819  0.3086  0.2228  0.7333
    4SAPS   O12  415   3.022   4.324  10.955  0.0242 -0.0930 -0.4791
    4SAPS   O11  416   3.078   4.322  10.715 -0.0590  0.3843  0.0061
    4SAPS    C1  417   2.975   4.411  10.670  0.6994  0.5666  0.0745
    4SAPS    HA  418   2.913   4.448  10.755 -0.2401 -0.9086  0.0549
    4SAPS    HB  419   3.017   4.504  10.626  0.8403  0.9545  0.9961
    4SAPS    C2  420   2.880   4.333  10.571 -0.6036  0.0293 -0.3433
    4SAPS    HS  421   2.866   4.233  10.617 -0.4243 -0.0421 -0.4410
    4SAPS   O21  422   2.952   4.322  10.442 -0.1293 -0.2856  0.3097
    4SAPS   C21  423   2.895   4.240  10.360  0.2843  0.1929  0.4170
    4SAPS   O22  424   2.794   4.173  10.391 -0.9970  0.2789  0.2388
    4SAPS   C22  425   2.942   4.262  10.216 -0.3810  0.3248 -0.1445
    4SAPS   H2R  426   2.925   4.167  10.161  0.5580 -0.5090  0.9620
    4SAPS   H2S  427   2.865   4.332  10.177 -2.4540 -2.8066 -2.0910
    4SAPS    C3  428   2.738   4.404  10.561  1.3198 -0.6910  0.1094
    4SAPS    HX  429   2.689   4.388  10.659  0.0368 -2.1557 -0.7458
    4SAPS    HY  430   2.678   4.343  10.492  0.9143 -1.0756  0.7877
    4SAPS   O31  431   2.744   4.541  10.527  0.4395 -0.2532 -0.2489
    4SAPS   C31  432   2.731   4.567  10.392 -0.1159 -0.2865  0.0066
    4SAPS   O32  433   2.710   4.485  10.303  0.0093  0.4226 -0.3729
    4SAPS   C32  434   2.768   4.714  10.368  0.2112  0.1451  0.6197
    4SAPS   H2X  435   2.862   4.737  10.422  0.2354  3.1002 -0.5128
    4SAPS   H2Y  436   2.692   4.781  10.414  0.1077  0.4341  0.0318
    4SAPS   C23  437   3.082   4.321  10.205 -0.4243 -0.4860  0.1772
    4SAPS   H3R  438   3.160   4.246  10.231  0.3682  0.2198 -0.0987
    4SAPS   H3S  439   3.099   4.409  10.270 -0.1812 -0.9627  0.7675
    4SAPS   C24  440   3.120   4.371  10.068  0.4183 -0.2377  0.2484
    4SAPS   H4R  441   3.123   4.281  10.003 -2.7017  0.5351 -1.1261
    4SAPS   H4S  442   3.227   4.394  10.091  0.1836  1.3067 -0.0696
    4SAPS   C25  443   3.053   4.501  10.016 -0.7833  0.0264 -0.1933
    4SAPS   H5R  444   3.073   4.586  10.082  0.5728 -1.1108  0.9167
    4SAPS   C26  445   2.958   4.503   9.920  0.0729 -1.0298 -0.0777
    4SAPS   H6R  446   2.917   4.605   9.918 -0.9228 -1.3945  0.9016
    4SAPS   C27  447   2.913   4.388   9.829 -0.3218  0.3272 -0.7139
    4SAPS   H7R  448   2.987   4.305   9.831 -1.5691 -0.8475 -1.6435
    4SAPS   H7S  449   2.915   4.425   9.725 -0.4635 -1.9192 -1.5841
    4SAPS   C28  450   2.787   4.321   9.882 -0.1748  0.4106  0.0347
    4SAPS   H8R  451   2.805   4.275   9.980  1.0712  1.2789  0.2392
    4SAPS   C29  452   2.667   4.317   9.819 -0.6056  0.1041  0.2486
    4SAPS   H9R  453   2.588   4.258   9.868  0.7735 -1.0632  1.1685
    4SAPS  C210  454   2.636   4.373   9.680  0.0045 -0.0953 -0.2297
    4SAPS  H10R  455   2.701   4.460   9.658 -2.2358  1.3362 -1.6119
    4SAPS  H10S  456   2.540   4.429   9.691  0.5650  0.9904 -0.6648
    4SAPS  C211  457   2.637   4.269   9.575 -0.4076 -0.6133  0.0170
    4SAPS  H11R  458   2.670   4.168   9.603 -0.4255 -0.9305 -1.0428
    4SAPS  C212  459   2.594   4.283   9.444 -0.2378 -0.0646 -0.1679
    4SAPS  H12R  460   2.601   4.194   9.378 -0.3910  0.2639 -0.6332
    4SAPS  C213  461   2.546   4.401   9.365 -0.6987  0.1056 -0.4241
    4SAPS  H13R  462   2.623   4.441   9.295 -0.2743 -2.3224 -1.4379
    4SAPS  H13S  463   2.533   4.486   9.435  1.1582 -0.5533  0.7760
    4SAPS  C214  464   2.414   4.371   9.307  0.4619 -0.2668  0.2105
    4SAPS  H14R  465   2.337   4.363   9.386 -0.2986 -3.3745 -0.6781
    4SAPS  C215  466   2.390   4.359   9.176  0.3719  0.8502 -0.4188
    4SAPS  H15R  467   2.291   4.331   9.138  0.3163  0.8178 -0.2494
    4SAPS  C216  468   2.501   4.364   9.073  0.5608 -0.4321 -0.6799
    4SAPS  H16R  469   2.589   4.313   9.118 -0.8403 -1.3719  1.1444
    4SAPS  H16S  470   2.531   4.471   9.062  1.7930 -0.2750  2.7660
    4SAPS  C217  471   2.477   4.301   8.936 -0.1743  0.0207  0.0522
    4SAPS  H17R  472   2.436   4.201   8.961  1.9595 -0.8167  0.4051
    4SAPS  H17S  473   2.566   4.286   8.872 -0.3496  0.9270 -0.4241
    4SAPS  C218  474   2.379   4.387   8.853  0.0208  0.2919 -0.3668
    4SAPS  H18R  475   2.432   4.448   8.777 -0.1251 -1.1113 -1.6312
    4SAPS  H18S  476   2.322   4.467   8.905 -0.2225  0.4192 -0.8265
    4SAPS  C219  477   2.293   4.292   8.772 -0.1852  0.0553 -0.7542
    4SAPS  H19R  478   2.249   4.223   8.847 -0.8565 -0.5798 -1.6941
    4SAPS  H19S  479   2.362   4.234   8.707  0.3734 -0.2685  0.1132
    4SAPS  C220  480   2.179   4.345   8.693 -0.2308  0.0658 -0.1585
    4SAPS  H20R  481   2.101   4.379   8.764  2.4149 -1.1074  3.6405
    4SAPS  H20S  482   2.149   4.270   8.617  2.0064 -1.8792  0.7427
    4SAPS  H20T  483   2.209   4.438   8.640  1.4599 -1.4971 -2.1263
    4SAPS   C33  484   2.799   4.737  10.222  0.3424 -0.1102  0.2557
    4SAPS   H3X  485   2.709   4.728  10.158 -1.3704  0.0534  2.5150
    4SAPS   H3Y  486   2.863   4.657  10.180  0.8479  1.2342 -1.6580
    4SAPS   C34  487   2.862   4.874  10.191 -0.2479  0.0844 -0.3954
    4SAPS   H4X  488   2.953   4.883  10.255 -0.2005  2.4997 -0.7107
    4SAPS   H4Y  489   2.790   4.952  10.225 -1.0804 -0.8734  0.0926
    4SAPS   C35  490   2.902   4.887  10.050  0.0157  0.0926 -0.0452
    4SAPS   H5X  491   2.822   4.869   9.975 -1.9648  1.0443  1.7332
    4SAPS   H5Y  492   2.987   4.816  10.033 -0.4829 -0.8016  1.0770
    4SAPS   C36  493   2.971   5.032  10.030  0.8037 -0.8943 -0.2891
    4SAPS   H6X  494   3.070   5.032  10.081  0.8073 -1.3121 -0.2908
    4SAPS   H6Y  495   2.903   5.104  10.079 -0.3683 -1.2845 -1.2862
    4SAPS   C37  496   2.990   5.070   9.882 -0.8172 -0.0957 -0.7616
    4SAPS   H7X  497   3.021   5.177   9.880 -0.0827 -0.3183 -1.7029
    4SAPS   H7Y  498   2.892   5.054   9.832 -0.7958 -0.9916 -0.5335
    4SAPS   C38  499   3.111   5.000   9.819 -0.4723  0.0333 -0.2704
    4SAPS   H8X  500   3.101   4.891   9.801 -0.9472  0.6055 -4.8617
    4SAPS   H8Y  501   3.194   5.021   9.890 -0.5836 -1.5038  0.3440
    4SAPS   C39  502   3.157   5.064   9.685  0.1833 -0.4820 -0.8499
    4SAPS   H9X  503   3.268   5.054   9.680  0.3255  0.6844 -0.2373
    4SAPS   H9Y  504   3.142   5.174   9.681 -0.4150 -0.4874  0.6670
    4SAPS  C310  505   3.096   4.993   9.565  0.1036 -0.3101  0.6765
    4SAPS  H10X  506   2.986   4.980   9.574 -0.3066  1.6441 -0.9296
    4SAPS  H10Y  507   3.145   4.894   9.553 -2.2076 -1.2107 -3.1055
    4SAPS  C311  508   3.124   5.073   9.433  0.3189  0.2291  0.0435
    4SAPS  H11X  509   3.231   5.097   9.422  0.2325 -0.2776 -2.2523
    4SAPS  H11Y  510   3.062   5.165   9.429 -0.8249 -0.5543 -2.1583
    4SAPS  C312  511   3.089   4.995   9.309  0.6425 -0.1619  0.3248
    4SAPS  H12X  512   2.990   4.945   9.304  0.3119  0.5115 -0.1101
    4SAPS  H12Y  513   3.169   4.922   9.285  0.2816 -0.1149 -1.1240
    4SAPS  C313  514   3.082   5.090   9.186 -0.5817 -0.1170 -0.1832
    4SAPS  H13X  515   3.181   5.133   9.161 -1.4832  1.3277 -1.3811
    4SAPS  H13Y  516   3.006   5.169   9.204 -2.9118 -1.7912 -2.0484
    4SAPS  C314  517   3.039   5.011   9.057  0.5643  0.1590  0.1847
    4SAPS  H14X  518   2.929   4.998   9.068  0.3543  0.3328 -1.4629
    4SAPS  H14Y  519   3.077   4.907   9.065 -1.0261 -0.4241  0.4031
    4SAPS  C315  520   3.066   5.094   8.927  0.3596  0.1780 -0.6773
    4SAPS  H15X  521   3.010   5.190   8.929 -0.0904 -0.0689 -1.1856
    4SAPS  H15Y  522   3.020   5.032   8.847 -0.6310 -0.1275  0.0965
    4SAPS  C316  523   3.210   5.108   8.881  0.7370  0.0525 -0.1912
    4SAPS  H16X  524   3.242   5.007   8.848 -0.5799  0.4409 -2.9270
    4SAPS  H16Y  525   3.275   5.127   8.969  1.8744  3.1864 -1.5603
    4SAPS  C317  526   3.227   5.209   8.764 -0.4606 -0.0721  0.1385
    4SAPS  H17X  527   3.172   5.159   8.681  1.3949 -2.2471  0.1100
    4SAPS  H17Y  528   3.335   5.198   8.743 -0.0794 -0.2073  2.0042
    4SAPS  C318  529   3.185   5.353   8.780 -0.1593  0.3374 -0.8722
    4SAPS  H18X  530   3.249   5.410   8.709  1.4527 -1.1202 -0.6575
    4SAPS  H18Y  531   3.209   5.394   8.880 -0.6724 -2.7500  0.6348
    4SAPS  H18Z  532   3.076   5.363   8.758 -1.6080 -3.2377  3.1986
    5SAPS     N  533   6.357   4.665  11.076 -0.1049  1.1638 -0.1395
    5SAPS   HN1  534   6.270   4.614  11.049  0.0837 -0.0981  1.4816
    5SAPS   HN2  535   6.417   4.696  10.997 -0.9514 -0.5476 -1.5581
    5SAPS   HN3  536   6.410   4.594  11.131 -0.8357  0.9319  0.2750
    5SAPS   C12  537   6.327   4.786  11.159 -0.6446  0.0194 -0.1023
    5SAPS  H12A  538   6.259   4.756  11.238  0.0386 -2.1250 -0.2650
    5SAPS   C13  539   6.444   4.844  11.237  0.1615  0.3916 -0.6919
    5SAPS  O13A  540   6.553   4.790  11.255 -0.3920  0.0998  0.1715
    5SAPS  O13B  541   6.412   4.943  11.309  0.3015  0.6996 -0.5912
    5SAPS   C11  542   6.276   4.888  11.057 -0.2574  0.3917  0.1934
    5SAPS  H11A  543   6.351   4.905  10.978 -0.3838 -0.5287 -0.1339
    5SAPS  H11B  544   6.248   4.990  11.092  2.4255  0.9124  1.0395
    5SAPS     P  545   6.114   4.845  10.854  0.0009  0.3611  0.4029
    5SAPS   O13  546   6.004   4.744  10.849  0.2760  0.3500 -0.6053
    5SAPS   O14  547   6.087   4.981  10.810  0.0152 -0.4335 -0.1245
    5SAPS   O12  548   6.149   4.849  11.007  0.5424  0.0213 -0.3467
    5SAPS   O11  549   6.240   4.790  10.786 -0.3845  0.0900  0.7931
    5SAPS    C1  550   6.241   4.718  10.658  0.1352  0.4512  0.2660
    5SAPS    HA  551   6.330   4.653  10.646 -1.1880 -1.4711  0.4817
    5SAPS    HB  552   6.155   4.647  10.652 -0.1503  0.8529 -0.6059
    5SAPS    C2  553   6.228   4.809  10.535  0.2319 -0.3239 -0.1006
    5SAPS    HS  554   6.315   4.878  10.539 -0.5208  0.6994 -0.8107
    5SAPS   O21  555   6.100   4.885  10.538  0.0651 -0.4106 -0.2593
    5SAPS   C21  556   6.118   5.003  10.485 -0.2086  0.2654  0.5221
    5SAPS   O22  557   6.223   5.054  10.452 -0.4974 -0.4482 -0.1364
    5SAPS   C22  558   5.989   5.077  10.488 -0.5881 -0.1572  0.7198
    5SAPS   H2R  559   5.908   5.025  10.432  0.9736 -0.7827 -1.1070
    5SAPS   H2S  560   5.956   5.078  10.593 -0.8626 -0.1150  0.6329
    5SAPS    C3  561   6.243   4.732  10.399 -0.8830 -0.1331 -0.0924
    5SAPS    HX  562   6.337   4.672  10.402 -0.2299  0.7507 -1.5433
    5SAPS    HY  563   6.256   4.811  10.322  0.0954 -0.2852 -0.0955
    5SAPS   O31  564   6.131   4.657  10.363  1.0401 -0.0809 -0.3419
    5SAPS   C31  565   6.117   4.534  10.408  0.2146 -0.0724  0.0257
    5SAPS   O32  566   6.184   4.483  10.496 -0.2506 -0.0115  0.4842
    5SAPS   C32  567   6.020   4.444  10.325  0.5767  0.2886  0.4719
    5SAPS   H2X  568   5.922   4.497  10.318  0.0608 -0.1928  3.2100
    5SAPS   H2Y  569   6.002   4.352  10.385 -2.5872 -0.9212 -2.0068
    5SAPS   C23  570   6.007   5.230  10.450  0.7090 -0.1302  0.1352
    5SAPS   H3R  571   6.105   5.257  10.496  0.0954 -0.2344  1.5324
    5SAPS   H3S  572   5.923   5.292  10.489  1.6981  1.2141  0.2251
    5SAPS   C24  573   6.021   5.264  10.299 -0.4685  0.4322 -0.0940
    5SAPS   H4R  574   6.124   5.233  10.274 -0.5627 -0.3799  0.4863
    5SAPS   H4S  575   6.026   5.374  10.285  0.0063  0.5239  0.7207
    5SAPS   C25  576   5.914   5.218  10.201  0.9027  0.5074 -0.4660
    5SAPS   H5R  577   5.812   5.258  10.208  1.4962  1.8535  1.4567
    5SAPS   C26  578   5.933   5.105  10.117  0.2352 -0.9389  0.1485
    5SAPS   H6R  579   5.857   5.086  10.040 -0.4320  1.5516  0.0953
    5SAPS   C27  580   6.066   5.018  10.114  0.6402 -0.0892 -0.4341
    5SAPS   H7R  581   6.131   5.040  10.202 -0.1518 -4.6281  1.5309
    5SAPS   H7S  582   6.128   5.043  10.025  1.7776  0.6405  0.5227
    5SAPS   C28  583   6.047   4.872  10.114 -0.1016  0.0980 -0.1585
    5SAPS   H8R  584   5.972   4.836  10.186 -0.1990 -1.7628 -1.1183
    5SAPS   C29  585   6.105   4.782  10.037 -0.3821  0.0575 -0.7487
    5SAPS   H9R  586   6.069   4.679  10.042 -0.7763  0.0364 -2.9937
    5SAPS  C210  587   6.218   4.802   9.937  0.1603 -0.4101 -0.0672
    5SAPS  H10R  588   6.227   4.906   9.897 -1.7759  1.7628  4.3833
    5SAPS  H10S  589   6.210   4.739   9.846  2.3726 -1.5071  0.4379
    5SAPS  C211  590   6.342   4.769  10.015 -0.2076 -0.2749 -0.0936
    5SAPS  H11R  591   6.339   4.781  10.125  1.9302  1.0615 -0.1217
    5SAPS  C212  592   6.458   4.726   9.963 -0.0697 -0.2805  1.0606
    5SAPS  H12R  593   6.544   4.717  10.031 -0.1335 -2.2769  0.9515
    5SAPS  C213  594   6.487   4.685   9.816 -0.2571  0.2416  0.1293
    5SAPS  H13R  595   6.418   4.611   9.772  0.4095 -0.0485 -0.4501
    5SAPS  H13S  596   6.592   4.650   9.812 -0.0413  0.7972  0.5812
    5SAPS  C214  597   6.477   4.810   9.727  0.0632 -0.2536  0.2474
    5SAPS  H14R  598   6.434   4.901   9.772  0.4483 -0.1248  0.3603
    5SAPS  C215  599   6.506   4.809   9.598  0.6086  0.0019 -0.2846
    5SAPS  H15R  600   6.499   4.907   9.549 -0.9316  1.3601  2.4424
    5SAPS  C216  601   6.542   4.694   9.509  0.1112  0.0748  0.6421
    5SAPS  H16R  602   6.534   4.596   9.561 -1.9694 -1.7006 -2.6465
    5SAPS  H16S  603   6.649   4.691   9.479 -0.5352  0.7213 -2.0192
    5SAPS  C217  604   6.443   4.692   9.390  0.3176  0.2774  0.0786
    5SAPS  H17R  605   6.496   4.639   9.308  0.5885  2.1743 -1.0225
    5SAPS  H17S  606   6.423   4.795   9.353 -0.8797 -0.0776 -0.3102
    5SAPS  C218  607   6.305   4.634   9.419 -0.5287 -0.3789 -0.3873
    5SAPS  H18R  608   6.295   4.533   9.375  1.9679 -1.0420  0.4000
    5SAPS  H18S  609   6.304   4.610   9.528 -0.6922 -0.8223 -0.4858
    5SAPS  C219  610   6.180   4.719   9.400  0.4689  0.2079  0.0054
    5SAPS  H19R  611   6.164   4.757   9.297 -0.7078 -1.2101 -0.3648
    5SAPS  H19S  612   6.218   4.802   9.465  3.0274 -0.7520 -0.1370
    5SAPS  C220  613   6.050   4.656   9.453 -0.1126  0.1514  0.5625
    5SAPS  H20R  614   6.048   4.660   9.564  2.2977  2.9563  0.6150
    5SAPS  H20S  615   6.026   4.554   9.415 -1.9606  0.7362  0.0365
    5SAPS  H20T  616   5.959   4.710   9.417 -0.8044 -1.1833  0.2400
    5SAPS   C33  617   6.076   4.429  10.178  0.3383  0.7615  0.2246
    5SAPS   H3X  618   6.173   4.375  10.175  1.8425  3.3182  0.3767
    5SAPS   H3Y  619   6.090   4.532  10.141 -0.8282  0.8842  0.0783
    5SAPS   C34  620   5.969   4.362  10.092  0.0292  0.0579 -0.0143
    5SAPS   H4X  621   5.880   4.427  10.080 -0.8193 -0.9283  0.8049
    5SAPS   H4Y  622   5.939   4.268  10.143  0.8256  1.0266  2.3740
    5SAPS   C35  623   6.015   4.318   9.957  0.0843 -0.3065  0.7755
    5SAPS   H5X  624   5.952   4.239   9.911  3.8422 -1.9284 -2.1489
    5SAPS   H5Y  625   6.113   4.267   9.970  0.3823  0.1556  0.3755
    5SAPS   C36  626   6.028   4.440   9.857  0.3919  0.1541 -0.3450
    5SAPS   H6X  627   6.100   4.514   9.899 -1.3461  1.7955 -0.1424
    5SAPS   H6Y  628   5.925   4.480   9.843  1.2183  1.7970 -2.1801
    5SAPS   C37  629   6.086   4.393   9.725 -0.2668  0.2657  0.4079
    5SAPS   H7X  630   6.178   4.333   9.740  1.3770  1.3712 -3.8274
    5SAPS   H7Y  631   6.122   4.484   9.672 -1.1450 -0.4398 -1.4966
    5SAPS   C38  632   5.991   4.312   9.643  0.4187  0.0324 -0.1193
    5SAPS   H8X  633   5.903   4.372   9.612  0.0795 -1.3496 -2.0709
    5SAPS   H8Y  634   5.958   4.228   9.708  1.8184 -0.3568  0.1101
    5SAPS   C39  635   6.052   4.263   9.513 -0.3989 -0.1435  0.5636
    5SAPS   H9X  636   6.148   4.217   9.547 -1.2388 -0.9803  1.8857
    5SAPS   H9Y  637   6.085   4.348   9.449 -2.3633 -1.4469 -2.4036
    5SAPS  C310  638   5.972   4.166   9.422  0.1429 -0.3373 -1.8296
    5SAPS  H10X  639   5.875   4.211   9.391 -0.6255  0.2012  1.0692
    5SAPS  H10Y  640   5.941   4.075   9.478  1.4815  0.5557  0.5202
    5SAPS  C311  641   6.057   4.126   9.297 -0.4829 -0.0002  0.0308
    5SAPS  H11X  642   6.148   4.067   9.320 -0.3897  0.2236  0.2489
    5SAPS  H11Y  643   6.103   4.214   9.248  0.6744 -1.4038 -1.5144
    5SAPS  C312  644   5.971   4.057   9.194 -0.0774 -0.3314  0.4763
    5SAPS  H12X  645   5.879   4.119   9.183 -0.3026 -0.9663 -1.6092
    5SAPS  H12Y  646   5.942   3.957   9.232  0.5586 -0.8177 -0.3127
    5SAPS  C313  647   6.027   4.037   9.054 -0.3845 -0.4650 -0.9952
    5SAPS  H13X  648   5.951   3.972   9.004 -1.4544 -0.5291  0.6321
    5SAPS  H13Y  649   6.118   3.973   9.063 -0.0972  0.2607  2.6517
    5SAPS  C314  650   6.044   4.167   8.982 -0.4058 -0.2037  0.0011
    5SAPS  H14X  651   6.098   4.240   9.046  0.0662 -1.6895  1.3525
    5SAPS  H14Y  652   5.946   4.218   8.967  0.6665  2.5290  1.4917
    5SAPS  C315  653   6.120   4.150   8.846  0.0607 -0.6191  0.9134
    5SAPS  H15X  654   6.078   4.075   8.775  0.3488 -0.2920  0.3837
    5SAPS  H15Y  655   6.217   4.100   8.866  0.4037 -0.0812  0.6436
    5SAPS  C316  656   6.148   4.285   8.771 -0.2296 -0.0131 -0.5075
    5SAPS  H16X  657   6.187   4.350   8.853 -1.9052  0.9615 -0.4463
    5SAPS  H16Y  658   6.050   4.325   8.737 -0.0091  0.7504 -0.2688
    5SAPS  C317  659   6.243   4.268   8.652 -0.0825 -0.5899  0.0568
    5SAPS  H17X  660   6.332   4.206   8.677  0.6250 -0.1497 -1.3246
    5SAPS  H17Y  661   6.295   4.363   8.628 -0.4228 -0.4576 -0.1620
    5SAPS  C318  662   6.167   4.231   8.525 -0.5554 -0.1751  0.0487
    5SAPS  H18X  663   6.062   4.264   8.540 -0.3851 -0.7542  2.9840
    5SAPS  H18Y  664   6.162   4.120   8.520  3.1880 -0.6806  2.9787
    5SAPS  H18Z  665   6.205   4.278   8.431 -0.3034  0.7108  0.5883
    6SAPS     N  666   3.896   3.434  10.605 -0.2932  0.0561  0.2369
    6SAPS   HN1  667   3.950   3.418  10.518  0.5466 -0.1136  0.7745
    6SAPS   HN2  668   3.853   3.340  10.620  1.0417 -0.7781 -0.8777
    6SAPS   HN3  669   3.824   3.508  10.594 -2.7878 -2.5924 -3.6775
    6SAPS   C12  670   3.993   3.449  10.722 -0.0466 -0.1732 -0.0110
    6SAPS  H12A  671   4.018   3.554  10.720  1.2862 -0.3225  3.2795
    6SAPS   C13  672   3.948   3.408  10.868 -0.7212 -0.3196  0.4806
    6SAPS  O13A  673   3.821   3.412  10.892  0.2195 -0.1490  0.2117
    6SAPS  O13B  674   4.030   3.425  10.965  0.0625  0.6477 -0.0767
    6SAPS   C11  675   4.130   3.379  10.687  0.0652  0.1193  0.6819
    6SAPS  H11A  676   4.119   3.271  10.664 -1.8969  0.2859  0.7102
    6SAPS  H11B  677   4.196   3.387  10.777  2.5666 -0.5195 -0.9969
    6SAPS     P  678   4.280   3.562  10.557 -0.2118 -0.2824 -0.2767
    6SAPS   O13  679   4.209   3.688  10.586 -0.2879 -0.8071 -0.3443
    6SAPS   O14  680   4.407   3.538  10.634 -0.3365 -0.0573  0.1628
    6SAPS   O12  681   4.172   3.447  10.568  0.1771 -0.1637 -0.1436
    6SAPS   O11  682   4.320   3.555  10.403  0.7032 -1.0270  0.3068
    6SAPS    C1  683   4.227   3.509  10.300 -0.3090 -0.5768 -0.7869
    6SAPS    HA  684   4.216   3.399  10.305  3.9323 -1.1373 -0.6681
    6SAPS    HB  685   4.138   3.574  10.318  1.5966  2.1477 -0.4980
    6SAPS    C2  686   4.280   3.549  10.157 -0.3176  0.1316  0.4464
    6SAPS    HS  687   4.253   3.468  10.085 -0.8324  2.2431 -1.8565
    6SAPS   O21  688   4.428   3.562  10.153 -0.5878  0.2944 -0.4861
    6SAPS   C21  689   4.481   3.449  10.200 -0.2963  0.1397  0.0063
    6SAPS   O22  690   4.422   3.340  10.203  0.4949 -0.4599 -0.1045
    6SAPS   C22  691   4.628   3.487  10.236  0.4042  0.3719 -0.1039
    6SAPS   H2R  692   4.667   3.552  10.154 -2.6724  1.4940 -0.8192
    6SAPS   H2S  693   4.626   3.551  10.326 -2.4775  1.2513 -0.6919
    6SAPS    C3  694   4.219   3.684  10.111  0.4992  0.0226 -0.1936
    6SAPS    HX  695   4.219   3.746  10.203 -2.2222 -0.7862  0.4627
    6SAPS    HY  696   4.115   3.657  10.082  1.0640 -1.7078 -0.7566
    6SAPS   O31  697   4.276   3.755   9.996  0.0676 -0.0471 -0.4878
    6SAPS   C31  698   4.241   3.711   9.877  0.1543  0.3089 -0.3447
    6SAPS   O32  699   4.182   3.607   9.858 -0.0694  0.4283 -0.1813
    6SAPS   C32  700   4.279   3.816   9.777 -0.0689 -0.3988  0.6415
    6SAPS   H2X  701   4.390   3.814   9.776  0.0517  1.8596  2.1499
    6SAPS   H2Y  702   4.249   3.920   9.802  0.0748 -0.3339  0.5397
    6SAPS   C23  703   4.713   3.366  10.251  0.0623  0.2698 -0.2183
    6SAPS   H3R  704   4.668   3.296  10.325 -1.4406 -1.0396 -2.2293
    6SAPS   H3S  705   4.812   3.388  10.295  0.2106 -0.7474  0.0006
    6SAPS   C24  706   4.721   3.281  10.126 -0.7033 -0.0876 -0.5479
    6SAPS   H4R  707   4.624   3.232  10.103  0.0033 -2.0136  0.3421
    6SAPS   H4S  708   4.782   3.194  10.158 -2.2772  0.1570  3.9123
    6SAPS   C25  709   4.797   3.358  10.018 -0.2245  0.1392 -0.0327
    6SAPS   H5R  710   4.895   3.393  10.056 -0.1646  0.8106 -0.7866
    6SAPS   C26  711   4.770   3.379   9.890 -0.1869 -0.0499 -0.3355
    6SAPS   H6R  712   4.838   3.435   9.823 -0.0081 -0.9851 -0.9565
    6SAPS   C27  713   4.653   3.334   9.816 -0.0811 -0.0523 -0.5031
    6SAPS   H7R  714   4.587   3.268   9.877 -2.9573  1.9540 -1.2318
    6SAPS   H7S  715   4.688   3.295   9.719  1.0516  0.4789 -0.3280
    6SAPS   C28  716   4.567   3.455   9.789  1.1076 -0.1639  0.7117
    6SAPS   H8R  717   4.514   3.492   9.877 -0.5834 -0.7447 -0.0142
    6SAPS   C29  718   4.547   3.513   9.671 -0.5083  0.2531  0.7179
    6SAPS   H9R  719   4.468   3.589   9.661 -0.8376 -0.1261  0.3958
    6SAPS  C210  720   4.597   3.471   9.533  0.0663  0.9277 -0.4789
    6SAPS  H10R  721   4.676   3.392   9.534 -0.4226  0.4378 -0.3869
    6SAPS  H10S  722   4.639   3.562   9.487  0.7393  0.2528 -1.2323
    6SAPS  C211  723   4.483   3.430   9.442  0.2686  0.0298 -0.4081
    6SAPS  H11R  724   4.382   3.419   9.483  0.2016 -0.4060 -0.6817
    6SAPS  C212  725   4.498   3.402   9.315 -0.4476  0.9779  0.5064
    6SAPS  H12R  726   4.397   3.386   9.274 -1.1049  3.7527  0.8346
    6SAPS  C213  727   4.625   3.401   9.234 -0.5206  0.5011  0.0550
    6SAPS  H13R  728   4.693   3.483   9.268 -2.0419  0.4866  3.6387
    6SAPS  H13S  729   4.603   3.431   9.130  0.6349 -1.9085 -0.9635
    6SAPS  C214  730   4.695   3.266   9.227  0.4587 -0.1762 -0.4922
    6SAPS  H14R  731   4.755   3.245   9.316 -0.4987 -0.9552 -0.0188
    6SAPS  C215  732   4.681   3.187   9.117 -0.1189 -0.4039 -0.4857
    6SAPS  H15R  733   4.719   3.084   9.118 -0.5677 -0.5671  0.4905
    6SAPS  C216  734   4.605   3.208   8.990  0.6787 -0.9766 -0.2605
    6SAPS  H16R  735   4.678   3.221   8.907  1.1661  1.1334  0.4479
    6SAPS  H16S  736   4.546   3.302   8.993  1.9142 -0.1998  0.8612
    6SAPS  C217  737   4.511   3.090   8.967  0.5388 -0.0440  0.2970
    6SAPS  H17R  738   4.412   3.113   8.922  0.8993 -0.4653 -0.7383
    6SAPS  H17S  739   4.483   3.043   9.064  1.0842 -3.4320 -1.0485
    6SAPS  C218  740   4.561   2.976   8.876  0.7666 -0.5928  0.0519
    6SAPS  H18R  741   4.655   2.939   8.921  1.1076  0.6435  0.4127
    6SAPS  H18S  742   4.588   3.017   8.776  0.8787 -0.9321 -0.0590
    6SAPS  C219  743   4.456   2.865   8.868 -0.9111  0.2477  0.2342
    6SAPS  H19R  744   4.358   2.909   8.841 -0.6848  0.5199 -0.1582
    6SAPS  H19S  745   4.449   2.816   8.968 -0.7829 -1.3453 -0.4949
    6SAPS  C220  746   4.489   2.754   8.762 -0.2851 -0.2738 -0.7936
    6SAPS  H20R  747   4.401   2.695   8.729 -0.4472 -1.5622  1.7100
    6SAPS  H20S  748   4.573   2.694   8.802 -2.0181 -1.9278  0.5252
    6SAPS  H20T  749   4.532   2.806   8.673 -1.9694  1.5516 -0.6072
    6SAPS   C33  750   4.217   3.792   9.639 -0.0137  0.3056  0.9425
    6SAPS   H3X  751   4.156   3.884   9.628  2.0393  1.8105  1.3716
    6SAPS   H3Y  752   4.134   3.720   9.653  0.0622  0.7548  4.5358
    6SAPS   C34  753   4.309   3.772   9.518  0.3618  0.5488  0.7667
    6SAPS   H4X  754   4.349   3.669   9.512  1.5826  1.0326  0.3956
    6SAPS   H4Y  755   4.398   3.839   9.519  2.2858 -1.8013 -1.0699
    6SAPS   C35  756   4.238   3.809   9.384 -0.1427 -0.6599  1.1355
    6SAPS   H5X  757   4.234   3.920   9.392 -0.7760 -0.5145 -0.7654
    6SAPS   H5Y  758   4.137   3.763   9.375 -0.2153 -0.1254 -1.3126
    6SAPS   C36  759   4.317   3.753   9.265 -0.0545  0.3720  0.3560
    6SAPS   H6X  760   4.299   3.644   9.256 -1.1550  0.6432 -1.1900
    6SAPS   H6Y  761   4.424   3.783   9.262 -0.2160  0.8914 -0.8628
    6SAPS   C37  762   4.263   3.797   9.128 -0.3841  0.3029  0.2983
    6SAPS   H7X  763   4.283   3.906   9.117  0.0413  0.2019  0.0314
    6SAPS   H7Y  764   4.155   3.773   9.130  0.0186 -1.9187 -1.1627
    6SAPS   C38  765   4.333   3.732   9.007 -0.3764 -0.6535  0.0677
    6SAPS   H8X  766   4.306   3.800   8.923 -2.8045 -0.3832  0.9871
    6SAPS   H8Y  767   4.287   3.634   8.983  1.4958 -1.3642 -0.8232
    6SAPS   C39  768   4.483   3.714   9.016 -0.9336 -0.3661  0.0459
    6SAPS   H9X  769   4.499   3.663   9.114 -3.8364 -0.1360  0.7231
    6SAPS   H9Y  770   4.532   3.809   9.046 -1.1886 -1.0274  2.8666
    6SAPS  C310  771   4.557   3.653   8.897  0.5897 -0.3262  0.4065
    6SAPS  H10X  772   4.540   3.545   8.879 -1.3281 -0.0287  0.2686
    6SAPS  H10Y  773   4.665   3.661   8.921  0.4164  0.4717  0.9970
    6SAPS  C311  774   4.528   3.716   8.760  0.1284 -0.5473  0.1015
    6SAPS  H11X  775   4.551   3.824   8.759 -3.8970  0.4847 -0.4026
    6SAPS  H11Y  776   4.418   3.705   8.750  0.2778 -1.6397 -0.5646
    6SAPS  C312  777   4.597   3.642   8.650 -0.0775 -0.2697  0.1001
    6SAPS  H12X  778   4.581   3.534   8.672 -0.9863  0.1413  1.6480
    6SAPS  H12Y  779   4.707   3.654   8.658 -0.2693  1.5666  0.2768
    6SAPS  C313  780   4.560   3.691   8.508 -0.1469 -0.9171 -0.4506
    6SAPS  H13X  781   4.455   3.725   8.517 -0.1303  0.0050 -2.9173
    6SAPS  H13Y  782   4.576   3.612   8.431  0.9063 -0.4948 -0.6841
    6SAPS  C314  783   4.625   3.821   8.442 -0.4989 -0.3085  0.5860
    6SAPS  H14X  784   4.733   3.816   8.420 -0.7506  0.5334 -0.9650
    6SAPS  H14Y  785   4.606   3.902   8.516  1.1637 -0.9472  1.7695
    6SAPS  C315  786   4.554   3.854   8.303 -0.4734  0.8708 -0.2332
    6SAPS  H15X  787   4.446   3.836   8.320 -0.3338 -0.4882 -0.6934
    6SAPS  H15Y  788   4.583   3.782   8.224  0.2797  1.3700 -0.4206
    6SAPS  C316  789   4.574   3.994   8.249 -0.2135  0.3708  0.2455
    6SAPS  H16X  790   4.534   4.067   8.323 -0.8151  1.5738 -1.2007
    6SAPS  H16Y  791   4.523   4.015   8.152  0.9407  0.9348 -0.2612
    6SAPS  C317  792   4.725   4.041   8.226  0.5691  0.1570  0.3798
    6SAPS  H17X  793   4.781   4.043   8.322  0.3040  3.4282  0.5980
    6SAPS  H17Y  794   4.724   4.143   8.183 -0.6055 -0.9456 -2.4378
    6SAPS  C318  795   4.791   3.947   8.122 -0.5032 -0.8178  0.6157
    6SAPS  H18X  796   4.801   3.843   8.161  0.1377 -1.4589 -1.1555
    6SAPS  H18Y  797   4.885   3.990   8.081 -0.4894 -2.4923 -1.2294
    6SAPS  H18Z  798   4.733   3.941   8.027  0.9039 -0.0697 -0.3305
    7SAPS     N  799   0.205   4.480  10.876 -0.4417 -0.0115 -0.5042
    7SAPS   HN1  800   0.239   4.557  10.815  2.2602 -2.2448 -2.0448
    7SAPS   HN2  801   0.273   4.402  10.887 -1.0609 -0.4440  0.4593
    7SAPS   HN3  802   0.133   4.425  10.826 -0.8248  0.7851 -0.8424
    7SAPS   C12  803   0.146   4.539  10.996 -0.5607 -0.1516 -0.3871
    7SAPS  H12A  804   0.125   4.459  11.066 -2.4216 -0.6877 -1.4842
    7SAPS   C13  805   0.244   4.630  11.072  0.4047 -0.0784  0.2569
    7SAPS  O13A  806   0.365   4.631  11.047 -0.3183  0.5962 -0.2179
    7SAPS  O13B  807   0.203   4.682  11.181 -0.1444  0.6102  0.1928
    7SAPS   C11  808   0.017   4.622  10.959  0.8947 -0.4468 -0.5030
    7SAPS  H11A  809   0.053   4.723  10.932  2.3418  0.7496  4.6987
    7SAPS  H11B  810  -0.047   4.639  11.049  0.6612 -0.0076 -0.7501
    7SAPS     P  811  -0.199   4.610  10.812  0.8613 -0.0434 -0.2664
    7SAPS   O13  812  -0.290   4.499  10.793  0.1854  0.6114  0.5416
    7SAPS   O14  813  -0.239   4.715  10.908 -0.3090  0.3252 -0.6085
    7SAPS   O12  814  -0.060   4.554  10.864 -0.0274  0.5902 -0.1160
    7SAPS   O11  815  -0.181   4.672  10.671 -0.1593  0.1143 -0.4414
    7SAPS    C1  816  -0.071   4.650  10.588 -0.1199  0.3262  0.3859
    7SAPS    HA  817  -0.001   4.734  10.607 -1.3517  1.0810  1.6788
    7SAPS    HB  818  -0.003   4.566  10.616  2.0368  1.6334 -0.6552
    7SAPS    C2  819  -0.102   4.635  10.435  0.1134 -0.3254 -0.4463
    7SAPS    HS  820  -0.006   4.635  10.379 -0.8329  1.0526 -2.1759
    7SAPS   O21  821  -0.185   4.747  10.385  0.2003 -0.7372  0.0352
    7SAPS   C21  822  -0.123   4.860  10.364 -0.5633 -0.4167  0.7425
    7SAPS   O22  823  -0.009   4.894  10.385 -0.3094 -0.2566 -0.3184
    7SAPS   C22  824  -0.231   4.958  10.305  1.1105  0.2241  0.2610
    7SAPS   H2R  825  -0.268   4.922  10.207 -1.5033 -0.6020  1.4679
    7SAPS   H2S  826  -0.311   4.944  10.381  0.7702 -1.9199 -0.4370
    7SAPS    C3  827  -0.180   4.507  10.422  0.2123  0.3093 -0.3855
    7SAPS    HX  828  -0.282   4.513  10.467  1.0272 -4.2482  2.7837
    7SAPS    HY  829  -0.127   4.441  10.494 -0.8829  1.9119  2.0408
    7SAPS   O31  830  -0.180   4.457  10.283  0.1560 -0.2520  0.3282
    7SAPS   C31  831  -0.297   4.430  10.224 -0.6705 -0.9239  0.8239
    7SAPS   O32  832  -0.403   4.458  10.267  0.5629 -0.5948 -0.2440
    7SAPS   C32  833  -0.267   4.397  10.075  0.1644  0.3422 -0.1599
    7SAPS   H2X  834  -0.177   4.451  10.040  0.5733 -0.2360 -0.0075
    7SAPS   H2Y  835  -0.351   4.442  10.017 -1.6804 -1.6770  0.8137
    7SAPS   C23  836  -0.192   5.104  10.279 -0.0028 -0.4982 -0.1392
    7SAPS   H3R  837  -0.124   5.104  10.192  2.0854  0.7373  1.4222
    7SAPS   H3S  838  -0.140   5.144  10.368  0.9777 -0.7278 -0.5923
    7SAPS   C24  839  -0.317   5.195  10.255  0.2510  0.7928 -0.2741
    7SAPS   H4R  840  -0.283   5.300  10.246  0.6603  0.7855  0.9130
    7SAPS   H4S  841  -0.386   5.191  10.342  0.7922 -1.4823  0.1246
    7SAPS   C25  842  -0.403   5.137  10.142 -0.6849 -0.2404  0.3762
    7SAPS   H5R  843  -0.503   5.103  10.174  0.4847 -0.8033  3.9088
    7SAPS   C26  844  -0.370   5.148  10.009 -0.6264  1.5416 -0.7120
    7SAPS   H6R  845  -0.442   5.106   9.937 -0.0248 -2.4161  0.7858
    7SAPS   C27  846  -0.249   5.204   9.951 -0.3598 -0.2877 -0.1322
    7SAPS   H7R  847  -0.180   5.259  10.017 -1.7049  1.4246 -0.1041
    7SAPS   H7S  848  -0.283   5.283   9.880 -0.0608 -1.4788 -1.6644
    7SAPS   C28  849  -0.176   5.086   9.887 -0.8198  0.5137 -0.0637
    7SAPS   H8R  850  -0.158   4.996   9.948  1.7943 -0.3992 -1.9934
    7SAPS   C29  851  -0.143   5.076   9.762 -0.3541  0.5159 -0.1469
    7SAPS   H9R  852  -0.093   4.983   9.730 -1.3971 -0.7105  1.6128
    7SAPS  C210  853  -0.159   5.183   9.653 -0.0430  0.6366  0.1154
    7SAPS  H10R  854  -0.073   5.193   9.583  0.4177  1.3257  0.7686
    7SAPS  H10S  855  -0.152   5.283   9.700  0.0606  0.7635 -0.1634
    7SAPS  C211  856  -0.299   5.190   9.587 -0.0129 -0.4403  0.1794
    7SAPS  H11R  857  -0.390   5.184   9.649 -1.3284  0.6600 -1.5348
    7SAPS  C212  858  -0.323   5.192   9.451 -0.6775 -0.5243 -0.1141
    7SAPS  H12R  859  -0.424   5.177   9.409 -1.4759 -0.3528  1.6841
    7SAPS  C213  860  -0.226   5.196   9.338 -0.8305  0.2428  1.4221
    7SAPS  H13R  861  -0.148   5.269   9.368 -0.8352  0.8682  0.0033
    7SAPS  H13S  862  -0.274   5.237   9.246  0.7394  0.0656  0.4840
    7SAPS  C214  863  -0.171   5.053   9.315 -0.9274 -0.3463 -0.3519
    7SAPS  H14R  864  -0.118   5.008   9.400 -2.1637  1.0138  1.2058
    7SAPS  C215  865  -0.188   4.984   9.203  0.1297  0.1154 -0.4207
    7SAPS  H15R  866  -0.146   4.882   9.200  1.5797  0.6478 -4.0756
    7SAPS  C216  867  -0.241   5.036   9.071  0.7028  0.6155  0.4207
    7SAPS  H16R  868  -0.178   4.999   8.987 -0.6253 -1.2466  0.1704
    7SAPS  H16S  869  -0.240   5.147   9.069 -0.5468  0.6345 -0.0249
    7SAPS  C217  870  -0.390   5.009   9.031 -0.6613  0.2545 -0.1231
    7SAPS  H17R  871  -0.408   5.055   8.932  2.0224 -0.6096 -1.0976
    7SAPS  H17S  872  -0.456   5.068   9.098  2.9941  2.5113  1.8383
    7SAPS  C218  873  -0.434   4.868   9.022  0.4093  0.6008  0.0371
    7SAPS  H18R  874  -0.428   4.822   9.123 -2.7306 -1.0646 -0.3969
    7SAPS  H18S  875  -0.365   4.817   8.951  2.5127  0.5730  1.9837
    7SAPS  C219  876  -0.582   4.856   8.976 -0.5963 -0.1399  0.0173
    7SAPS  H19R  877  -0.609   4.934   8.901  0.4544  0.4119  0.1979
    7SAPS  H19S  878  -0.653   4.873   9.060  0.1002 -1.5838  0.9232
    7SAPS  C220  879  -0.618   4.720   8.915  0.1220  0.1259  0.2307
    7SAPS  H20R  880  -0.576   4.713   8.813  0.4233  2.8479  0.1032
    7SAPS  H20S  881  -0.729   4.715   8.908 -0.1129  3.4768 -0.0751
    7SAPS  H20T  882  -0.582   4.638   8.981  1.0106 -0.6600 -1.1877
    7SAPS   C33  883  -0.269   4.247  10.046 -1.0619  0.2166  0.0699
    7SAPS   H3X  884  -0.367   4.195  10.050  0.2886 -2.5907 -0.5711
    7SAPS   H3Y  885  -0.204   4.195  10.119  1.2229  1.0146 -1.2988
    7SAPS   C34  886  -0.202   4.216   9.907  0.4562  0.2390 -0.3450
    7SAPS   H4X  887  -0.192   4.105   9.917  2.5688  0.4759  0.5514
    7SAPS   H4Y  888  -0.105   4.270   9.905  0.9871 -0.6472  0.4421
    7SAPS   C35  889  -0.295   4.249   9.795  0.2580  0.1734  0.1367
    7SAPS   H5X  890  -0.306   4.359   9.790 -2.2484  0.0131  0.8283
    7SAPS   H5Y  891  -0.400   4.223   9.817 -0.6120 -0.2185 -3.8226
    7SAPS   C36  892  -0.256   4.182   9.663  0.1946 -0.1437  0.2042
    7SAPS   H6X  893  -0.260   4.073   9.683 -0.1555 -0.1262  0.2330
    7SAPS   H6Y  894  -0.152   4.214   9.642  0.2836 -0.2903  0.4113
    7SAPS   C37  895  -0.356   4.215   9.557 -0.0420 -0.1209  0.4856
    7SAPS   H7X  896  -0.381   4.324   9.562  0.6935  0.0257  1.0416
    7SAPS   H7Y  897  -0.454   4.167   9.579  0.3672 -1.4052 -0.3969
    7SAPS   C38  898  -0.304   4.170   9.420 -0.3267 -0.1571 -0.1561
    7SAPS   H8X  899  -0.289   4.060   9.431 -2.1440 -0.2162  2.5722
    7SAPS   H8Y  900  -0.205   4.217   9.399 -1.2017  1.9232  0.1093
    7SAPS   C39  901  -0.381   4.201   9.298 -0.5578 -0.3326 -0.3098
    7SAPS   H9X  902  -0.401   4.309   9.285 -1.5172 -0.6674 -1.9271
    7SAPS   H9Y  903  -0.476   4.145   9.311  0.2500 -2.2668 -2.1582
    7SAPS  C310  904  -0.302   4.165   9.170  0.0403 -0.1512 -0.0442
    7SAPS  H10X  905  -0.238   4.077   9.191 -1.4705 -1.0202  1.1481
    7SAPS  H10Y  906  -0.233   4.248   9.144 -0.3441 -0.3987 -1.9405
    7SAPS  C311  907  -0.381   4.128   9.051 -0.0586 -0.2682  0.3307
    7SAPS  H11X  908  -0.455   4.210   9.037  2.0196  1.3224 -2.1421
    7SAPS  H11Y  909  -0.434   4.035   9.082 -1.1903  0.5636  1.0063
    7SAPS  C312  910  -0.308   4.114   8.921 -0.0688  0.8735 -1.1424
    7SAPS  H12X  911  -0.244   4.205   8.916 -1.2327  1.9223  1.2310
    7SAPS  H12Y  912  -0.381   4.131   8.838  2.1533  1.2084 -3.1299
    7SAPS  C313  913  -0.226   3.983   8.887  0.4378 -0.5245 -0.7234
    7SAPS  H13X  914  -0.140   3.974   8.957  0.6970 -0.0069 -0.9708
    7SAPS  H13Y  915  -0.187   3.985   8.782  1.3523  2.1606 -0.3974
    7SAPS  C314  916  -0.314   3.864   8.897  0.1236  0.4408 -0.3726
    7SAPS  H14X  917  -0.409   3.889   8.846 -0.9649 -1.2831  0.6898
    7SAPS  H14Y  918  -0.355   3.844   8.998 -0.0148  0.5117 -0.4152
    7SAPS  C315  919  -0.264   3.735   8.831  0.1819  0.7775  0.5779
    7SAPS  H15X  920  -0.241   3.760   8.725  0.4446 -1.4499  0.0470
    7SAPS  H15Y  921  -0.346   3.660   8.841  1.2605 -0.3160  1.5287
    7SAPS  C316  922  -0.141   3.673   8.900 -0.0883  0.3499 -0.5411
    7SAPS  H16X  923  -0.160   3.689   9.008 -1.8914  3.1993 -1.1676
    7SAPS  H16Y  924  -0.051   3.733   8.872 -0.0346  0.8653  0.6621
    7SAPS  C317  925  -0.118   3.529   8.869 -0.0387 -0.3934  0.1483
    7SAPS  H17X  926  -0.206   3.474   8.908 -0.0477 -0.6171 -0.1827
    7SAPS  H17Y  927  -0.024   3.495   8.917  0.8181  2.0469  0.3373
    7SAPS  C318  928  -0.103   3.494   8.724  0.5300  0.4972 -0.4186
    7SAPS  H18X  929  -0.019   3.548   8.675  1.6184 -1.8591 -1.3025
    7SAPS  H18Y  930  -0.199   3.519   8.673 -1.2001  0.3191  2.5012
    7SAPS  H18Z  931  -0.090   3.384   8.711  2.9377  0.5570  0.8690
    8SAPS     N  932   1.435   6.458  11.232  0.6612  0.2018 -0.1619
    8SAPS   HN1  933   1.376   6.375  11.251  0.9495  0.1434  0.4984
    8SAPS   HN2  934   1.430   6.496  11.329 -1.0267 -3.1296  1.2125
    8SAPS   HN3  935   1.391   6.528  11.169  0.3091  0.0790 -0.0557
    8SAPS   C12  936   1.576   6.438  11.184  0.3930  0.0733  0.8930
    8SAPS  H12A  937   1.611   6.533  11.149  2.8634 -1.2092 -0.3761
    8SAPS   C13  938   1.665   6.382  11.298 -0.3172 -0.2208  0.8088
    8SAPS  O13A  939   1.624   6.383  11.417 -0.1092 -0.0407 -0.2456
    8SAPS  O13B  940   1.788   6.359  11.276  0.0441 -0.1460 -0.2418
    8SAPS   C11  941   1.565   6.331  11.067 -0.5966  0.1682  1.0299
    8SAPS  H11A  942   1.543   6.229  11.104  1.1883 -0.4505  0.4672
    8SAPS  H11B  943   1.665   6.308  11.026 -0.6279 -0.8735  1.4926
    8SAPS     P  944   1.498   6.315  10.812 -0.1085 -0.0086  0.0881
    8SAPS   O13  945   1.600   6.396  10.740 -0.1029  0.7534  0.7783
    8SAPS   O14  946   1.525   6.170  10.825 -0.0959 -0.2783 -0.4401
    8SAPS   O12  947   1.484   6.376  10.953  0.9296 -0.9841 -0.0835
    8SAPS   O11  948   1.364   6.331  10.740  0.1473  0.0055  0.0017
    8SAPS    C1  949   1.243   6.366  10.801 -0.4669 -0.3526 -0.8350
    8SAPS    HA  950   1.228   6.292  10.882  0.6288 -0.1747 -0.4580
    8SAPS    HB  951   1.247   6.468  10.846 -0.2637 -0.1877 -1.2173
    8SAPS    C2  952   1.120   6.355  10.713  0.0016  0.2966  0.1300
    8SAPS    HS  953   1.029   6.346  10.775  0.7991  0.0249  1.3044
    8SAPS   O21  954   1.139   6.235  10.631 -0.2078  0.4992 -0.4060
    8SAPS   C21  955   1.033   6.194  10.568  0.0955 -0.2058 -0.4448
    8SAPS   O22  956   0.919   6.234  10.585 -0.0291 -0.4058  0.4775
    8SAPS   C22  957   1.082   6.078  10.473 -0.1118 -0.2213 -0.4733
    8SAPS   H2R  958   1.155   6.122  10.402 -1.1373  2.1541 -0.1750
    8SAPS   H2S  959   1.135   6.002  10.534  1.0472 -0.8961 -2.2600
    8SAPS    C3  960   1.124   6.484  10.628 -0.3136  0.5983 -0.2552
    8SAPS    HX  961   1.202   6.464  10.552  0.4089  0.0679  0.6166
    8SAPS    HY  962   1.160   6.567  10.693  2.0197  0.0887 -0.8389
    8SAPS   O31  963   0.995   6.517  10.565 -0.0803 -0.6223 -0.3271
    8SAPS   C31  964   0.909   6.577  10.649  0.2193  0.1983  0.4963
    8SAPS   O32  965   0.936   6.597  10.764  0.5926 -0.2026 -0.8463
    8SAPS   C32  966   0.774   6.589  10.579 -0.3482  0.4913 -0.2638
    8SAPS   H2X  967   0.784   6.699  10.566 -0.3276  0.7192  1.4462
    8SAPS   H2Y  968   0.698   6.572  10.658  0.7161 -1.1044  0.4832
    8SAPS   C23  969   0.959   6.030  10.394  0.6331 -1.2626  0.0550
    8SAPS   H3R  970   0.868   6.069  10.444  1.4938 -0.3676  0.9680
    8SAPS   H3S  971   0.967   5.920  10.384  2.4082 -1.1497 -0.0670
    8SAPS   C24  972   0.968   6.083  10.242 -0.6041 -0.4171  0.1447
    8SAPS   H4R  973   0.904   6.016  10.181 -2.3347  2.4543 -1.4450
    8SAPS   H4S  974   1.071   6.061  10.208 -0.6698  0.5316 -0.7211
    8SAPS   C25  975   0.946   6.231  10.212 -0.0347 -0.3961  0.3416
    8SAPS   H5R  976   0.997   6.300  10.281  0.7045  0.3041 -0.8845
    8SAPS   C26  977   0.870   6.277  10.116  0.3504 -0.1133 -0.2712
    8SAPS   H6R  978   0.851   6.386  10.114  0.7471 -0.0463 -0.6149
    8SAPS   C27  979   0.783   6.197  10.020 -0.0626 -0.1759 -0.0158
    8SAPS   H7R  980   0.729   6.275   9.963 -0.1727 -1.5115 -1.8087
    8SAPS   H7S  981   0.715   6.139  10.086  1.3460 -1.2780  0.5264
    8SAPS   C28  982   0.859   6.109   9.926  0.0270  0.7896  0.4858
    8SAPS   H8R  983   0.959   6.070   9.950  0.2448  1.6780  1.0709
    8SAPS   C29  984   0.820   6.071   9.803 -0.4739  0.1906  0.1958
    8SAPS   H9R  985   0.886   6.012   9.737  1.1620  1.9001  0.2098
    8SAPS  C210  986   0.695   6.116   9.733 -0.0239  0.1484  0.0594
    8SAPS  H10R  987   0.617   6.127   9.812  0.3623 -0.6670  0.5641
    8SAPS  H10S  988   0.650   6.036   9.670 -1.3499  1.2148 -0.4139
    8SAPS  C211  989   0.720   6.241   9.658  0.2312  0.3214 -0.4345
    8SAPS  H11R  990   0.696   6.327   9.722 -1.2555 -1.4291  1.5458
    8SAPS  C212  991   0.747   6.255   9.526 -0.4307 -0.3125 -0.1887
    8SAPS  H12R  992   0.767   6.356   9.489 -0.0673  0.0960  1.0677
    8SAPS  C213  993   0.746   6.147   9.423 -0.0336 -0.1321  0.4309
    8SAPS  H13R  994   0.731   6.046   9.466 -0.9815  0.4726  1.5695
    8SAPS  H13S  995   0.843   6.134   9.370  0.6815 -0.6426  1.8193
    8SAPS  C214  996   0.633   6.167   9.321  0.0293  0.6006 -0.3166
    8SAPS  H14R  997   0.532   6.159   9.366 -0.0200 -2.6605 -0.7954
    8SAPS  C215  998   0.647   6.213   9.196 -1.1061 -0.2102 -0.6607
    8SAPS  H15R  999   0.566   6.211   9.122 -1.2207 -1.2894 -0.5210
    8SAPS  C216 1000   0.777   6.258   9.138  0.5301  0.6239 -0.9453
    8SAPS  H16R 1001   0.850   6.177   9.116  0.7432 -0.1076  1.9935
    8SAPS  H16S 1002   0.824   6.321   9.217 -0.6827  1.8476 -1.1677
    8SAPS  C217 1003   0.763   6.347   9.013  1.0224  0.1075  0.2542
    8SAPS  H17R 1004   0.861   6.394   8.993  0.2977  0.8152 -1.8112
    8SAPS  H17S 1005   0.689   6.424   9.041  0.2322 -1.0493  1.4690
    8SAPS  C218 1006   0.710   6.275   8.889 -0.3911  0.5813 -0.2112
    8SAPS  H18R 1007   0.613   6.225   8.908  0.2662 -0.9092 -0.6411
    8SAPS  H18S 1008   0.775   6.190   8.858  0.0842  1.0654 -0.5633
    8SAPS  C219 1009   0.700   6.360   8.760  0.1802 -0.4114  0.5286
    8SAPS  H19R 1010   0.681   6.303   8.667  0.0378  0.1653  0.1976
    8SAPS  H19S 1011   0.803   6.396   8.738  0.4170 -1.7188 -0.6403
    8SAPS  C220 1012   0.593   6.473   8.759 -0.1451 -0.2391 -0.4778
    8SAPS  H20R 1013   0.591   6.538   8.670  0.3248  1.8253  0.9458
    8SAPS  H20S 1014   0.609   6.555   8.832 -0.8355 -1.2060  0.8240
    8SAPS  H20T 1015   0.494   6.425   8.773 -0.2305 -0.5802 -2.0852
    8SAPS   C33 1016   0.759   6.516  10.447 -0.4898 -0.1423  0.1656
    8SAPS   H3X 1017   0.786   6.410  10.467  0.8822  0.1458 -0.0130
    8SAPS   H3Y 1018   0.831   6.556  10.373  0.9160 -2.2745  0.2905
    8SAPS   C34 1019   0.614   6.523  10.415 -0.3422 -0.2330  0.4309
    8SAPS   H4X 1020   0.536   6.537  10.492 -0.9603 -1.4596  0.0594
    8SAPS   H4Y 1021   0.592   6.421  10.377  1.5183 -0.7571  0.6548
    8SAPS   C35 1022   0.581   6.625  10.299 -0.6469 -0.4356  0.1077
    8SAPS   H5X 1023   0.602   6.729  10.332  0.3001 -0.7550  0.5299
    8SAPS   H5Y 1024   0.471   6.629  10.281 -0.2308  0.0701 -2.8845
    8SAPS   C36 1025   0.639   6.606  10.165 -0.2932 -0.4908  0.1021
    8SAPS   H6X 1026   0.637   6.501  10.131  0.0008 -0.8944  1.2957
    8SAPS   H6Y 1027   0.746   6.634  10.159  0.1326 -2.3095 -1.5938
    8SAPS   C37 1028   0.553   6.687  10.064 -0.4676  0.1904  0.1284
    8SAPS   H7X 1029   0.566   6.797  10.077  1.1179 -0.0295  0.6538
    8SAPS   H7Y 1030   0.445   6.672  10.084 -0.3521 -0.8854  0.0078
    8SAPS   C38 1031   0.577   6.633   9.921  1.0705 -0.7556 -0.7268
    8SAPS   H8X 1032   0.556   6.525   9.936 -1.2724 -0.3497 -0.7123
    8SAPS   H8Y 1033   0.685   6.653   9.901  0.7412 -1.3842 -3.6828
    8SAPS   C39 1034   0.480   6.692   9.814 -0.3375  0.1245  0.3194
    8SAPS   H9X 1035   0.469   6.802   9.817 -2.3738 -0.0001 -0.7868
    8SAPS   H9Y 1036   0.382   6.649   9.846  0.8240 -1.0842  2.4991
    8SAPS  C310 1037   0.503   6.643   9.671  0.2530  0.0642  0.1596
    8SAPS  H10X 1038   0.526   6.535   9.683  0.6072  0.1934  0.6684
    8SAPS  H10Y 1039   0.585   6.705   9.629 -1.7548  1.4600 -1.8829
    8SAPS  C311 1040   0.382   6.649   9.574 -0.2181  0.2732 -0.6188
    8SAPS  H11X 1041   0.324   6.740   9.597  0.4891  0.0973  2.2471
    8SAPS  H11Y 1042   0.323   6.555   9.583  1.4981 -0.6972  1.4022
    8SAPS  C312 1043   0.452   6.660   9.437  0.1423 -0.5145 -0.1550
    8SAPS  H12X 1044   0.537   6.588   9.442 -0.2846 -0.9453  1.3254
    8SAPS  H12Y 1045   0.497   6.760   9.422  0.3450 -0.6426 -0.4211
    8SAPS  C313 1046   0.366   6.625   9.317 -0.5892  0.6429  0.1371
    8SAPS  H13X 1047   0.330   6.520   9.322  0.4419  0.1604 -1.7078
    8SAPS  H13Y 1048   0.421   6.626   9.221  0.7203  1.7038  0.8607
    8SAPS  C314 1049   0.234   6.707   9.314 -0.3054 -0.6263 -0.3362
    8SAPS  H14X 1050   0.254   6.816   9.318  2.0954 -1.0416  1.0607
    8SAPS  H14Y 1051   0.177   6.675   9.404 -3.5459 -0.0709 -2.0511
    8SAPS  C315 1052   0.151   6.668   9.195 -0.5328  0.7823  0.3387
    8SAPS  H15X 1053   0.129   6.560   9.202 -0.3959  0.7582  0.3940
    8SAPS  H15Y 1054   0.217   6.684   9.107 -0.1973 -0.5583  0.3209
    8SAPS  C316 1055   0.029   6.753   9.185 -0.3586 -0.4687  0.7088
    8SAPS  H16X 1056   0.069   6.856   9.184 -2.7797  0.6092  2.7556
    8SAPS  H16Y 1057  -0.038   6.743   9.274 -1.1233 -0.4990  0.1409
    8SAPS  C317 1058  -0.051   6.701   9.064  0.3931 -0.9030  0.0654
    8SAPS  H17X 1059  -0.076   6.596   9.090  0.9603 -0.7684  1.2108
    8SAPS  H17Y 1060   0.005   6.697   8.968  1.0564  0.2869  0.3936
    8SAPS  C318 1061  -0.176   6.787   9.033  0.1875  0.2523 -0.0317
    8SAPS  H18X 1062  -0.237   6.725   8.964  1.2729 -0.8526 -0.0483
    8SAPS  H18Y 1063  -0.151   6.879   8.976  1.9683 -0.7798 -1.0171
    8SAPS  H18Z 1064  -0.225   6.810   9.130  0.3493  0.0340  0.1032
    9SAPS     N 1065   5.431   2.871   6.437 -0.0300  1.0404  0.0954
    9SAPS   HN1 1066   5.530   2.848   6.418  0.3083  1.9636  0.6629
    9SAPS   HN2 1067   5.431   2.970   6.469  2.7115  1.4246 -0.8941
    9SAPS   HN3 1068   5.415   2.808   6.518 -0.6276  1.7263  0.5267
    9SAPS   C12 1069   5.331   2.828   6.340  0.0929  0.5837  0.3526
    9SAPS  H12A 1070   5.351   2.880   6.248  1.5943 -0.1679  0.2196
    9SAPS   C13 1071   5.342   2.671   6.317 -0.6424 -0.5652  0.9418
    9SAPS  O13A 1072   5.446   2.604   6.333  0.2084 -0.1660 -0.5730
    9SAPS  O13B 1073   5.237   2.618   6.266 -0.0092 -0.0205  0.0155
    9SAPS   C11 1074   5.186   2.855   6.391  0.1340  0.6538  0.3703
    9SAPS  H11A 1075   5.168   2.785   6.475  1.5019  0.4862  0.5429
    9SAPS  H11B 1076   5.123   2.826   6.305  1.3937 -3.7625  0.7041
    9SAPS     P 1077   5.030   3.046   6.461 -0.0900  0.1731  0.0328
    9SAPS   O13 1078   5.037   3.192   6.452 -0.2422  0.1475 -0.3280
    9SAPS   O14 1079   4.923   2.979   6.382  0.0139 -0.7617 -0.4303
    9SAPS   O12 1080   5.174   2.990   6.428  0.2424  0.1004 -0.3373
    9SAPS   O11 1081   4.998   3.000   6.613  0.6429  0.0743  0.5634
    9SAPS    C1 1082   5.095   3.011   6.712  0.3490 -0.2330 -0.5080
    9SAPS    HA 1083   5.175   2.935   6.705  1.2041  0.7486 -1.6833
    9SAPS    HB 1084   5.147   3.106   6.688  2.0928 -0.9710  0.1829
    9SAPS    C2 1085   5.034   3.012   6.856  0.0263 -0.5899 -0.3938
    9SAPS    HS 1086   5.013   2.909   6.894  2.2507 -0.1745  2.2883
    9SAPS   O21 1087   4.923   3.102   6.877  0.0201 -0.3549 -0.0940
    9SAPS   C21 1088   4.805   3.063   6.846  0.2056  0.3943 -0.2664
    9SAPS   O22 1089   4.779   2.952   6.808 -0.1460  0.2068 -0.5565
    9SAPS   C22 1090   4.713   3.181   6.848  0.8536 -1.0657 -0.4994
    9SAPS   H2R 1091   4.734   3.246   6.935  1.3123  0.1273 -1.4784
    9SAPS   H2S 1092   4.721   3.242   6.756  1.0728 -0.1946  0.0920
    9SAPS    C3 1093   5.142   3.062   6.963  0.1931  0.0717  0.3702
    9SAPS    HX 1094   5.172   3.168   6.947  1.2805 -0.1490  0.8633
    9SAPS    HY 1095   5.239   3.009   6.947  0.0137 -0.9652  2.4305
    9SAPS   O31 1096   5.110   3.039   7.105 -0.2860 -0.1463  0.7677
    9SAPS   C31 1097   5.104   2.913   7.144 -0.3876 -0.6694 -0.2934
    9SAPS   O32 1098   5.128   2.817   7.073  0.3135  0.0931  0.5160
    9SAPS   C32 1099   5.054   2.909   7.289 -0.4959  0.5779  0.1000
    9SAPS   H2X 1100   4.950   2.949   7.290 -1.3480 -1.3742 -1.8728
    9SAPS   H2Y 1101   5.124   2.966   7.354 -1.4659  2.2090 -0.2190
    9SAPS   C23 1102   4.567   3.135   6.851 -0.2512  0.4428 -0.3950
    9SAPS   H3R 1103   4.539   3.056   6.778 -1.8577  0.6074 -0.0020
    9SAPS   H3S 1104   4.506   3.225   6.831 -0.4866  0.4226  0.2317
    9SAPS   C24 1105   4.523   3.073   6.985  0.8195  0.2061  0.4260
    9SAPS   H4R 1106   4.593   2.986   6.987  1.0787  0.1942 -3.0823
    9SAPS   H4S 1107   4.427   3.019   6.969  0.1693  2.1203 -3.2513
    9SAPS   C25 1108   4.517   3.170   7.096  0.5250  0.0615  0.2887
    9SAPS   H5R 1109   4.460   3.260   7.069  1.2294  1.1682  2.2761
    9SAPS   C26 1110   4.583   3.170   7.210  0.5193 -0.6164 -0.1821
    9SAPS   H6R 1111   4.566   3.251   7.282 -0.4934 -0.5107 -0.5253
    9SAPS   C27 1112   4.684   3.069   7.262 -0.8032  0.5115  0.5834
    9SAPS   H7R 1113   4.775   3.132   7.278 -0.1043 -0.0154 -1.0915
    9SAPS   H7S 1114   4.724   3.008   7.178  0.0085  0.9709  0.6213
    9SAPS   C28 1115   4.641   2.986   7.379  0.0073  0.5510  0.0340
    9SAPS   H8R 1116   4.571   2.902   7.364 -1.0980  1.2553  1.0601
    9SAPS   C29 1117   4.676   3.005   7.507 -0.5792  0.3974  0.3374
    9SAPS   H9R 1118   4.635   2.947   7.590 -0.6254  0.4693  0.3651
    9SAPS  C210 1119   4.771   3.106   7.563  0.2694  0.0853  0.1270
    9SAPS  H10R 1120   4.778   3.190   7.491  1.6648  2.1744  2.5619
    9SAPS  H10S 1121   4.876   3.075   7.579  0.5919  1.0890  0.0312
    9SAPS  C211 1122   4.719   3.158   7.694 -0.0451 -0.3224  0.0616
    9SAPS  H11R 1123   4.609   3.165   7.695 -0.0917 -0.9591  0.4537
    9SAPS  C212 1124   4.778   3.195   7.807 -1.0225 -0.2649  0.1617
    9SAPS  H12R 1125   4.714   3.219   7.893 -2.0004  2.3992 -1.1738
    9SAPS  C213 1126   4.933   3.205   7.818 -0.7392  0.1154  0.3285
    9SAPS  H13R 1127   4.985   3.173   7.725  3.8176  0.2521  2.5861
    9SAPS  H13S 1128   4.969   3.125   7.886 -2.5698 -0.2209  0.9844
    9SAPS  C214 1129   4.978   3.342   7.852 -0.0427 -0.7227  0.5791
    9SAPS  H14R 1130   4.930   3.422   7.794  1.5198  0.6795  1.1562
    9SAPS  C215 1131   5.052   3.367   7.958  0.4516 -0.3767  0.2246
    9SAPS  H15R 1132   5.092   3.468   7.975  0.1345  0.1408 -1.8546
    9SAPS  C216 1133   5.103   3.258   8.046  0.0341 -0.2582 -0.7411
    9SAPS  H16R 1134   5.185   3.210   7.989  0.3825  0.2602 -0.6779
    9SAPS  H16S 1135   5.021   3.188   8.072 -0.9513  0.7954 -0.9055
    9SAPS  C217 1136   5.155   3.315   8.182  0.0289  0.2608 -0.0862
    9SAPS  H17R 1137   5.072   3.373   8.227 -0.1703 -0.7385  0.8695
    9SAPS  H17S 1138   5.235   3.392   8.187 -1.7153  2.0948  0.5847
    9SAPS  C218 1139   5.194   3.196   8.278  0.6127  0.6175  0.6899
    9SAPS  H18R 1140   5.291   3.154   8.243 -0.3641 -1.2893  0.1284
    9SAPS  H18S 1141   5.111   3.123   8.264  0.4017  0.8336  0.8005
    9SAPS  C219 1142   5.212   3.246   8.422  0.3513  0.2002 -0.3029
    9SAPS  H19R 1143   5.118   3.289   8.463 -0.2738 -0.0536 -1.4194
    9SAPS  H19S 1144   5.288   3.327   8.429  0.0045  0.4806  0.2609
    9SAPS  C220 1145   5.252   3.124   8.502 -0.3943 -0.0074 -0.1282
    9SAPS  H20R 1146   5.183   3.038   8.491 -0.1676 -0.0841 -1.0034
    9SAPS  H20S 1147   5.271   3.151   8.608  1.9537  0.7587 -0.6850
    9SAPS  H20T 1148   5.349   3.083   8.466  0.6851  1.2407  1.1936
    9SAPS   C33 1149   5.049   2.760   7.335  0.2148 -0.3874  0.5954
    9SAPS   H3X 1150   5.153   2.736   7.366  1.1039  0.5312 -1.5309
    9SAPS   H3Y 1151   5.000   2.694   7.260 -0.0647 -1.2450  1.5013
    9SAPS   C34 1152   4.955   2.740   7.454  0.7419  0.6373 -0.3690
    9SAPS   H4X 1153   4.846   2.748   7.432  0.9822  0.8438 -1.5208
    9SAPS   H4Y 1154   4.985   2.814   7.531  1.8954 -0.9725  0.8055
    9SAPS   C35 1155   4.964   2.593   7.503  0.0972 -0.4391  0.0205
    9SAPS   H5X 1156   5.045   2.578   7.577 -1.8048 -2.7639  1.8034
    9SAPS   H5Y 1157   4.991   2.532   7.415 -2.3259 -1.0933 -0.3544
    9SAPS   C36 1158   4.822   2.549   7.556 -1.7229 -0.0997  0.1672
    9SAPS   H6X 1159   4.758   2.534   7.466 -0.4213  0.6825 -0.9442
    9SAPS   H6Y 1160   4.782   2.627   7.623 -1.6688 -0.7534  0.9666
    9SAPS   C37 1161   4.813   2.421   7.641  0.1795 -0.0359  0.2063
    9SAPS   H7X 1162   4.808   2.333   7.573  0.7918 -1.7210  2.2385
    9SAPS   H7Y 1163   4.730   2.415   7.714  0.2685 -1.4544  0.2300
    9SAPS   C38 1164   4.940   2.391   7.714  0.4820  1.0893 -0.1504
    9SAPS   H8X 1165   4.957   2.485   7.771 -2.6156  1.6496  0.0424
    9SAPS   H8Y 1166   5.029   2.379   7.648  0.8769  1.0389  0.3831
    9SAPS   C39 1167   4.929   2.268   7.807 -1.2368  0.6711 -0.4066
    9SAPS   H9X 1168   5.030   2.223   7.816 -2.7875 -2.9049  0.7969
    9SAPS   H9Y 1169   4.856   2.193   7.768 -0.3316  1.3938 -3.8185
    9SAPS  C310 1170   4.895   2.300   7.953  0.2497  0.2690  0.0138
    9SAPS  H10X 1171   4.913   2.407   7.975  0.9257 -0.0169  0.9403
    9SAPS  H10Y 1172   4.955   2.236   8.022 -1.0757 -2.0390 -0.8926
    9SAPS  C311 1173   4.752   2.273   7.993  0.9170  0.6056  0.2567
    9SAPS  H11X 1174   4.713   2.176   7.954  2.8996  0.3007 -1.1196
    9SAPS  H11Y 1175   4.690   2.346   7.937  1.4000 -0.7016 -2.1269
    9SAPS  C312 1176   4.721   2.296   8.142 -0.3814 -0.0869  0.4481
    9SAPS  H12X 1177   4.775   2.229   8.211  2.6240  2.6759  1.0391
    9SAPS  H12Y 1178   4.611   2.278   8.148 -0.3803 -0.6521 -0.7977
    9SAPS  C313 1179   4.748   2.440   8.191  1.2336 -1.0672  0.1399
    9SAPS  H13X 1180   4.678   2.510   8.141 -1.3171 -2.1209  2.0420
    9SAPS  H13Y 1181   4.856   2.462   8.173  1.1531 -1.1200 -0.4530
    9SAPS  C314 1182   4.718   2.454   8.341 -0.0652  0.9552  0.2670
    9SAPS  H14X 1183   4.787   2.384   8.392  2.4313  1.3759 -2.3041
    9SAPS  H14Y 1184   4.614   2.417   8.353 -0.1001  0.7191 -0.6412
    9SAPS  C315 1185   4.741   2.587   8.411 -0.0740  0.9459  0.5399
    9SAPS  H15X 1186   4.707   2.569   8.515 -3.1597 -0.3164 -0.5603
    9SAPS  H15Y 1187   4.664   2.657   8.373 -3.0461 -2.1212  0.4238
    9SAPS  C316 1188   4.888   2.630   8.388 -0.4405  0.5953  0.0816
    9SAPS  H16X 1189   4.897   2.683   8.290  1.1925 -0.2924 -0.2869
    9SAPS  H16Y 1190   4.949   2.537   8.381 -2.4821 -0.6992 -1.5250
    9SAPS  C317 1191   4.931   2.718   8.505  0.0346  0.2950  0.9145
    9SAPS  H17X 1192   5.035   2.748   8.479  0.0349  1.4687  2.2092
    9SAPS  H17Y 1193   4.919   2.666   8.603 -1.9532  0.4214  0.7731
    9SAPS  C318 1194   4.856   2.859   8.499 -0.3495 -0.3983  0.2891
    9SAPS  H18X 1195   4.913   2.924   8.569 -0.3731 -0.4541  0.3613
    9SAPS  H18Y 1196   4.754   2.880   8.539 -0.0661  1.2018  0.2397
    9SAPS  H18Z 1197   4.861   2.898   8.396  0.2400 -1.1967  0.0078
   10SAPS     N 1198   5.677   3.037   6.214  0.3729  0.4879  0.1068
   10SAPS   HN1 1199   5.718   2.971   6.283 -0.2035 -1.4381 -1.3158
   10SAPS   HN2 1200   5.576   3.049   6.236 -0.1289 -3.3371  0.4636
   10SAPS   HN3 1201   5.681   2.982   6.126  0.0554  1.8750 -0.8069
   10SAPS   C12 1202   5.750   3.160   6.223 -0.4549  0.1861 -0.2334
   10SAPS  H12A 1203   5.853   3.129   6.229 -0.7441 -0.8687 -0.4806
   10SAPS   C13 1204   5.737   3.246   6.098 -0.4687 -0.2967  0.5100
   10SAPS  O13A 1205   5.683   3.197   5.994  0.4025  0.4448  0.2273
   10SAPS  O13B 1206   5.811   3.353   6.086 -0.6158  0.0074 -0.1729
   10SAPS   C11 1207   5.714   3.241   6.347  0.0069 -0.5318 -0.5521
   10SAPS  H11A 1208   5.615   3.286   6.322 -0.3333 -0.1614  1.3459
   10SAPS  H11B 1209   5.788   3.321   6.364  0.0697 -1.0124  1.6383
   10SAPS     P 1210   5.586   3.171   6.577 -0.0229  0.4858  0.4770
   10SAPS   O13 1211   5.598   3.308   6.630  0.0294 -0.3931  0.4728
   10SAPS   O14 1212   5.459   3.124   6.525 -0.4969 -0.0829  0.0483
   10SAPS   O12 1213   5.701   3.158   6.468  0.4910  0.3218  0.1099
   10SAPS   O11 1214   5.631   3.065   6.691 -0.1360  0.0173  0.3854
   10SAPS    C1 1215   5.743   2.979   6.684 -0.3247 -0.5284  0.0040
   10SAPS    HA 1216   5.704   2.875   6.680 -1.2154 -0.1858 -0.3345
   10SAPS    HB 1217   5.794   2.979   6.585 -3.3154 -2.3368 -1.6833
   10SAPS    C2 1218   5.842   2.983   6.803  1.2820  0.3185 -0.4270
   10SAPS    HS 1219   5.909   2.895   6.789  2.0571  1.0373 -1.3405
   10SAPS   O21 1220   5.780   2.994   6.933 -0.4680  0.4057 -0.0991
   10SAPS   C21 1221   5.731   2.883   6.968 -0.1327  0.1512  0.1658
   10SAPS   O22 1222   5.739   2.774   6.909  0.2065  0.3578 -0.0185
   10SAPS   C22 1223   5.673   2.895   7.108  0.3773  0.2745  0.1416
   10SAPS   H2R 1224   5.751   2.855   7.175 -1.4220 -2.6105  0.6860
   10SAPS   H2S 1225   5.653   3.002   7.131  0.2915 -0.0398  1.5553
   10SAPS    C3 1226   5.924   3.111   6.786  0.1634 -0.8787  0.4028
   10SAPS    HX 1227   5.849   3.181   6.828 -1.8454 -1.2830 -2.2739
   10SAPS    HY 1228   5.954   3.124   6.680 -0.1312 -0.9689  0.3087
   10SAPS   O31 1229   6.050   3.106   6.859 -0.2124  0.6673 -0.2463
   10SAPS   C31 1230   6.107   3.220   6.887 -0.7571  0.7677  0.0351
   10SAPS   O32 1231   6.056   3.328   6.860  0.0219  0.4115  0.7769
   10SAPS   C32 1232   6.242   3.205   6.959  0.7840 -0.2408 -0.2951
   10SAPS   H2X 1233   6.314   3.152   6.894  0.5156 -0.6658 -0.2472
   10SAPS   H2Y 1234   6.217   3.157   7.056  0.7478  2.1191  0.9597
   10SAPS   C23 1235   5.550   2.815   7.106  0.5051 -0.4230 -0.1126
   10SAPS   H3R 1236   5.562   2.709   7.075  0.2782  0.0263 -1.8149
   10SAPS   H3S 1237   5.478   2.864   7.036  1.3208  0.7110 -0.1860
   10SAPS   C24 1238   5.501   2.811   7.255  0.2516 -0.2097  0.0364
   10SAPS   H4R 1239   5.590   2.785   7.317  0.3225  2.2235  1.1044
   10SAPS   H4S 1240   5.416   2.743   7.276 -0.4306  0.4130 -0.6499
   10SAPS   C25 1241   5.466   2.953   7.303  0.6270 -0.4374  0.7575
   10SAPS   H5R 1242   5.432   3.016   7.220 -1.6046 -0.6962  1.4146
   10SAPS   C26 1243   5.464   2.993   7.428 -0.3916 -0.2810 -0.2200
   10SAPS   H6R 1244   5.429   3.096   7.442  2.2274  0.5623  0.8367
   10SAPS   C27 1245   5.486   2.915   7.555  0.1231  0.0813  0.4760
   10SAPS   H7R 1246   5.538   2.968   7.637 -1.1940  0.1019  1.3400
   10SAPS   H7S 1247   5.554   2.831   7.533  0.4401 -0.3891  2.9737
   10SAPS   C28 1248   5.356   2.857   7.608  0.0505 -0.4348 -0.2157
   10SAPS   H8R 1249   5.277   2.846   7.532  0.8941 -0.4558 -1.1042
   10SAPS   C29 1250   5.335   2.799   7.731  0.1883  0.0025  0.1225
   10SAPS   H9R 1251   5.243   2.751   7.768  0.2157  0.8575  1.3588
   10SAPS  C210 1252   5.450   2.798   7.833 -0.0306  0.2718 -0.6220
   10SAPS  H10R 1253   5.544   2.778   7.777  0.1025 -3.8950  0.6880
   10SAPS  H10S 1254   5.447   2.705   7.894  2.6718  0.5392  0.0305
   10SAPS  C211 1255   5.458   2.922   7.916 -0.2100 -0.8676  0.1737
   10SAPS  H11R 1256   5.424   3.011   7.862 -0.7335  0.1180  2.0347
   10SAPS  C212 1257   5.515   2.941   8.037  0.5100 -0.3109 -0.5571
   10SAPS  H12R 1258   5.510   3.045   8.072  0.7674 -0.9428  1.4622
   10SAPS  C213 1259   5.585   2.843   8.126  0.4675  0.2723  0.0123
   10SAPS  H13R 1260   5.691   2.834   8.096 -0.3107  0.3081 -3.0254
   10SAPS  H13S 1261   5.538   2.745   8.104 -1.5178  1.1996 -0.0647
   10SAPS  C214 1262   5.592   2.881   8.278 -0.6324 -0.1489  0.1329
   10SAPS  H14R 1263   5.632   2.982   8.299 -0.7828  0.1084 -0.7723
   10SAPS  C215 1264   5.574   2.792   8.376 -0.7074  0.6593  0.4103
   10SAPS  H15R 1265   5.582   2.821   8.482 -2.7829 -2.0706  1.4370
   10SAPS  C216 1266   5.548   2.650   8.361  0.3429  0.0312 -0.2628
   10SAPS  H16R 1267   5.483   2.630   8.273 -0.5674 -1.8740  0.8023
   10SAPS  H16S 1268   5.486   2.612   8.445 -0.3020 -2.5387 -1.8067
   10SAPS  C217 1269   5.684   2.568   8.353  0.3043  0.2859 -0.2059
   10SAPS  H17R 1270   5.732   2.561   8.453 -3.5318 -0.2214  1.8092
   10SAPS  H17S 1271   5.759   2.614   8.285 -0.6671  0.3139 -1.2834
   10SAPS  C218 1272   5.662   2.444   8.268  0.0912  0.5787  0.6901
   10SAPS  H18R 1273   5.642   2.479   8.165  0.0587  2.0272  1.1628
   10SAPS  H18S 1274   5.577   2.384   8.306 -0.9382  0.5066 -1.5795
   10SAPS  C219 1275   5.790   2.355   8.269  0.6405 -0.5785 -0.3489
   10SAPS  H19R 1276   5.791   2.314   8.373  0.0528 -3.4588 -1.3832
   10SAPS  H19S 1277   5.884   2.410   8.246  1.1310  0.3813  3.3210
   10SAPS  C220 1278   5.770   2.245   8.161  0.0117 -0.0870  0.8764
   10SAPS  H20R 1279   5.740   2.289   8.063 -0.0861  1.2926  1.4937
   10SAPS  H20S 1280   5.688   2.173   8.178  0.2126 -0.6582 -0.4711
   10SAPS  H20T 1281   5.861   2.192   8.129 -1.0404 -0.3130 -2.0315
   10SAPS   C33 1282   6.307   3.345   6.968  0.0689 -0.2520 -0.7881
   10SAPS   H3X 1283   6.242   3.434   6.956 -0.9113 -0.8532 -0.0743
   10SAPS   H3Y 1284   6.375   3.349   6.880 -0.8133 -1.1026 -1.5332
   10SAPS   C34 1285   6.400   3.359   7.101 -0.1509  0.3454 -0.1346
   10SAPS   H4X 1286   6.453   3.457   7.101  1.8294 -0.6597  0.9120
   10SAPS   H4Y 1287   6.483   3.290   7.078 -0.1401  1.1578 -2.9651
   10SAPS   C35 1288   6.323   3.334   7.229 -0.1769 -0.3190  0.1840
   10SAPS   H5X 1289   6.257   3.245   7.233 -2.7934  1.5425  1.1132
   10SAPS   H5Y 1290   6.257   3.422   7.239  2.1919  1.5579  0.2554
   10SAPS   C36 1291   6.411   3.323   7.357  0.4169  0.6452  0.3958
   10SAPS   H6X 1292   6.464   3.419   7.375  0.3818  0.4417  1.7062
   10SAPS   H6Y 1293   6.493   3.252   7.338  0.6464  0.8487  0.6210
   10SAPS   C37 1294   6.329   3.281   7.486  0.5421  0.6033  0.4915
   10SAPS   H7X 1295   6.289   3.180   7.464 -0.2585  1.2956 -1.5084
   10SAPS   H7Y 1296   6.245   3.353   7.481 -0.0592 -0.0168  1.4832
   10SAPS   C38 1297   6.417   3.293   7.611 -0.1329  0.2531 -0.2548
   10SAPS   H8X 1298   6.462   3.395   7.613 -0.7596  0.5275  0.2176
   10SAPS   H8Y 1299   6.507   3.229   7.599  1.7122  2.3173  1.5739
   10SAPS   C39 1300   6.360   3.269   7.756 -0.7860 -0.1735  0.4713
   10SAPS   H9X 1301   6.305   3.359   7.791 -2.2997 -1.7080  2.2374
   10SAPS   H9Y 1302   6.448   3.273   7.824  0.6509 -0.9551 -1.2811
   10SAPS  C310 1303   6.280   3.144   7.786 -0.4194  0.3279 -0.2896
   10SAPS  H10X 1304   6.335   3.053   7.752 -1.5420 -1.7381  2.9448
   10SAPS  H10Y 1305   6.180   3.153   7.738 -0.5966 -0.7912 -0.1725
   10SAPS  C311 1306   6.247   3.121   7.933 -0.3448  0.6319  0.4793
   10SAPS  H11X 1307   6.336   3.105   7.998 -1.3580 -1.6776  1.3945
   10SAPS  H11Y 1308   6.192   3.025   7.945 -2.0119  1.3343 -1.1260
   10SAPS  C312 1309   6.170   3.236   7.991  0.5503 -0.1309  0.0678
   10SAPS  H12X 1310   6.117   3.290   7.909  1.8711  2.2354  0.6598
   10SAPS  H12Y 1311   6.236   3.315   8.034  2.9387 -1.4420 -0.9608
   10SAPS  C313 1312   6.069   3.193   8.103  0.3745 -0.0068 -0.0031
   10SAPS  H13X 1313   6.119   3.137   8.185 -0.0963 -0.9370 -0.3405
   10SAPS  H13Y 1314   5.992   3.131   8.053 -1.4274 -0.2763  2.8877
   10SAPS  C314 1315   5.997   3.315   8.175  0.3906  0.8855  0.7091
   10SAPS  H14X 1316   5.908   3.341   8.113 -0.3596  1.2181  1.8934
   10SAPS  H14Y 1317   6.066   3.398   8.201 -0.1498  0.9484  2.0070
   10SAPS  C315 1318   5.918   3.278   8.306 -0.3486 -0.7794  0.2780
   10SAPS  H15X 1319   5.999   3.264   8.380  1.9141 -1.2508 -2.1349
   10SAPS  H15Y 1320   5.869   3.180   8.289 -0.0479 -0.6447 -1.7096
   10SAPS  C316 1321   5.830   3.390   8.357 -0.2588  0.5613  0.7202
   10SAPS  H16X 1322   5.885   3.484   8.337  0.1313  0.2853  0.4977
   10SAPS  H16Y 1323   5.811   3.382   8.467  2.6725  3.2106  1.5934
   10SAPS  C317 1324   5.687   3.394   8.292  0.1320 -0.4352 -0.3600
   10SAPS  H17X 1325   5.691   3.355   8.188  1.1668  0.1691 -0.5668
   10SAPS  H17Y 1326   5.653   3.499   8.308 -1.5433 -1.0041 -0.0175
   10SAPS  C318 1327   5.590   3.297   8.360 -0.4624  0.1601 -0.7713
   10SAPS  H18X 1328   5.619   3.192   8.338  1.5661  0.0435  1.9292
   10SAPS  H18Y 1329   5.490   3.317   8.314 -0.9142  0.0337  0.1366
   10SAPS  H18Z 1330   5.574   3.316   8.468 -0.6435  0.2100 -0.8053
   11SAPS     N 1331   0.676   4.574   5.722 -0.3370 -0.3474 -0.0063
   11SAPS   HN1 1332   0.594   4.633   5.750  0.5551  1.0381 -0.2113
   11SAPS   HN2 1333   0.707   4.606   5.628 -0.4320 -0.6202 -0.1330
   11SAPS   HN3 1334   0.637   4.477   5.721 -0.7998 -0.1652 -0.3049
   11SAPS   C12 1335   0.773   4.582   5.821 -0.2604 -0.7547 -0.1144
   11SAPS  H12A 1336   0.730   4.530   5.906 -2.3412  2.2090  0.7796
   11SAPS   C13 1337   0.910   4.522   5.773 -0.0274 -0.4924  0.6343
   11SAPS  O13A 1338   0.913   4.455   5.667 -0.4026  0.1020  0.2565
   11SAPS  O13B 1339   1.007   4.526   5.850 -0.5199  0.1783  0.1857
   11SAPS   C11 1340   0.796   4.725   5.864  0.5840  0.0350  0.3613
   11SAPS  H11A 1341   0.815   4.788   5.774 -0.9627 -1.7300 -1.3063
   11SAPS  H11B 1342   0.886   4.738   5.927  0.6673 -0.7017  0.3922
   11SAPS     P 1343   0.687   4.914   5.985 -0.0251  0.0413 -0.1709
   11SAPS   O13 1344   0.761   4.996   5.886 -0.1593 -0.1619 -0.2827
   11SAPS   O14 1345   0.551   4.958   6.033  0.4399 -0.2729  0.0378
   11SAPS   O12 1346   0.673   4.765   5.935  0.0776 -0.5270  0.1185
   11SAPS   O11 1347   0.776   4.887   6.121  0.0931  0.0011 -0.0370
   11SAPS    C1 1348   0.719   4.842   6.242 -0.3121  0.5006  0.4617
   11SAPS    HA 1349   0.609   4.831   6.238 -0.5137  2.3169 -0.2464
   11SAPS    HB 1350   0.767   4.745   6.265 -0.6252  0.1783 -0.2409
   11SAPS    C2 1351   0.753   4.938   6.358  0.0795  0.2338 -0.5082
   11SAPS    HS 1352   0.685   5.025   6.350 -0.8149  0.0226  3.1068
   11SAPS   O21 1353   0.897   4.980   6.342  0.1572 -0.2598  0.1872
   11SAPS   C21 1354   0.932   5.092   6.398  0.3076 -0.0770  0.2394
   11SAPS   O22 1355   0.864   5.174   6.449  0.2879  0.3243 -0.2083
   11SAPS   C22 1356   1.092   5.093   6.405  0.6172 -0.0773 -0.1358
   11SAPS   H2R 1357   1.135   4.991   6.408 -1.2739 -0.9487 -0.7747
   11SAPS   H2S 1358   1.130   5.131   6.308  4.2179  0.4046  1.3150
   11SAPS    C3 1359   0.731   4.872   6.500 -0.1234 -0.0172  0.1418
   11SAPS    HX 1360   0.815   4.801   6.515  2.3503  2.4071 -1.2300
   11SAPS    HY 1361   0.641   4.807   6.495 -0.0973  0.0018 -0.8576
   11SAPS   O31 1362   0.729   4.957   6.609 -0.8022 -0.1266 -0.1777
   11SAPS   C31 1363   0.630   5.050   6.618 -0.3652 -0.1331  0.1598
   11SAPS   O32 1364   0.546   5.062   6.531 -0.6180  0.4302  0.5691
   11SAPS   C32 1365   0.648   5.125   6.744  0.5586 -0.7541 -1.0087
   11SAPS   H2X 1366   0.746   5.168   6.775  0.2146 -0.4035 -0.3841
   11SAPS   H2Y 1367   0.620   5.066   6.834  1.0789 -0.9508 -0.9707
   11SAPS   C23 1368   1.132   5.166   6.531  0.2018 -0.2493 -0.3367
   11SAPS   H3R 1369   1.082   5.265   6.541 -2.0473 -1.2716 -0.8221
   11SAPS   H3S 1370   1.238   5.194   6.514  0.0884 -0.9040 -2.3486
   11SAPS   C24 1371   1.121   5.076   6.654  0.2517  0.5351 -0.6494
   11SAPS   H4R 1372   1.021   5.026   6.650  0.9906 -0.9504 -1.0264
   11SAPS   H4S 1373   1.121   5.144   6.743 -0.2440  0.3313 -0.4849
   11SAPS   C25 1374   1.235   4.973   6.662 -0.1019  0.0553 -0.0910
   11SAPS   H5R 1375   1.243   4.902   6.578 -1.8527  0.4775 -0.6636
   11SAPS   C26 1376   1.321   4.953   6.764  0.2352 -0.3625 -0.1529
   11SAPS   H6R 1377   1.395   4.872   6.755  2.5224  1.4803  0.7547
   11SAPS   C27 1378   1.325   5.019   6.900 -0.3717  0.0840  0.3784
   11SAPS   H7R 1379   1.373   4.942   6.965  1.2536 -1.2413 -2.2333
   11SAPS   H7S 1380   1.220   5.033   6.936 -0.9153 -2.3245 -0.0824
   11SAPS   C28 1381   1.384   5.154   6.890  0.4391 -0.1779  0.1870
   11SAPS   H8R 1382   1.396   5.196   6.789  1.7262 -1.0109 -0.0262
   11SAPS   C29 1383   1.426   5.236   6.994 -0.9463  0.3754  0.0235
   11SAPS   H9R 1384   1.463   5.335   6.964  2.0065 -1.3133 -2.5089
   11SAPS  C210 1385   1.431   5.199   7.136 -0.2619 -0.7293 -0.1131
   11SAPS  H10R 1386   1.502   5.270   7.182 -1.4878  1.2570 -1.1503
   11SAPS  H10S 1387   1.489   5.104   7.143  0.3091 -0.2871  1.4023
   11SAPS  C211 1388   1.306   5.207   7.221  0.2842 -0.5491  0.1514
   11SAPS  H11R 1389   1.224   5.264   7.175  0.9370  1.2192  1.1129
   11SAPS  C212 1390   1.295   5.151   7.344  0.0367  0.0649  0.0980
   11SAPS  H12R 1391   1.195   5.156   7.390 -0.3766  3.6056 -0.8742
   11SAPS  C213 1392   1.406   5.077   7.421 -0.0016 -0.5671 -0.2400
   11SAPS  H13R 1393   1.503   5.083   7.366  0.5805 -1.2044  0.6895
   11SAPS  H13S 1394   1.388   4.968   7.412  1.0785 -0.7250 -0.7501
   11SAPS  C214 1395   1.418   5.123   7.568 -0.3819 -0.1658  0.1360
   11SAPS  H14R 1396   1.435   5.230   7.587 -1.0110  0.0734 -0.6001
   11SAPS  C215 1397   1.412   5.054   7.681 -1.4288 -0.5832  0.2271
   11SAPS  H15R 1398   1.416   5.105   7.778 -1.8549 -0.1360  0.0120
   11SAPS  C216 1399   1.403   4.905   7.700  0.0359  0.8525 -0.2038
   11SAPS  H16R 1400   1.488   4.875   7.765 -0.1738 -0.0836 -0.3550
   11SAPS  H16S 1401   1.404   4.846   7.606  1.0705 -0.8031  0.8124
   11SAPS  C217 1402   1.281   4.873   7.786 -0.1885  0.6754  0.0005
   11SAPS  H17R 1403   1.290   4.917   7.887  2.8757 -0.5446  0.3666
   11SAPS  H17S 1404   1.283   4.762   7.796 -0.7898  0.7647  1.3122
   11SAPS  C218 1405   1.139   4.900   7.722 -0.2969 -0.0561 -0.5227
   11SAPS  H18R 1406   1.122   5.010   7.719  1.4510  0.2136 -2.0400
   11SAPS  H18S 1407   1.059   4.849   7.780  1.5551 -2.2930  0.1984
   11SAPS  C219 1408   1.127   4.862   7.574  0.1092  0.7085  0.3801
   11SAPS  H19R 1409   1.137   4.752   7.583 -1.8186  0.3892 -0.7901
   11SAPS  H19S 1410   1.208   4.905   7.511 -0.5264 -3.7583 -4.1870
   11SAPS  C220 1411   0.983   4.890   7.522  0.1602 -0.6729  0.2074
   11SAPS  H20R 1412   0.956   4.834   7.430 -1.8372 -0.2408  0.4958
   11SAPS  H20S 1413   0.969   4.998   7.502  0.3825 -1.0556 -2.3168
   11SAPS  H20T 1414   0.904   4.866   7.597 -2.5861  1.8672 -1.6483
   11SAPS   C33 1415   0.552   5.253   6.739  0.4000 -0.0329 -0.5483
   11SAPS   H3X 1416   0.445   5.227   6.723  0.2267  1.3194 -1.7291
   11SAPS   H3Y 1417   0.586   5.327   6.664  0.9594  2.4709  2.0039
   11SAPS   C34 1418   0.554   5.318   6.880  0.1659 -0.8755  0.3349
   11SAPS   H4X 1419   0.660   5.327   6.914 -0.6697  1.9531  2.5843
   11SAPS   H4Y 1420   0.497   5.254   6.952 -0.6656  0.8284  1.2544
   11SAPS   C35 1421   0.492   5.460   6.870 -1.0210  0.9849 -0.0628
   11SAPS   H5X 1422   0.382   5.461   6.853 -1.0990 -0.2992  0.2721
   11SAPS   H5Y 1423   0.550   5.512   6.791  2.4547 -0.5328  1.2523
   11SAPS   C36 1424   0.510   5.544   6.999 -0.1176 -0.5603  0.4146
   11SAPS   H6X 1425   0.490   5.651   6.977  2.1616 -0.7098 -3.3266
   11SAPS   H6Y 1426   0.614   5.530   7.038  0.5428 -1.3430 -1.4851
   11SAPS   C37 1427   0.421   5.513   7.117  0.3201  0.3225  0.3644
   11SAPS   H7X 1428   0.410   5.403   7.114 -0.1122  0.3845 -1.1326
   11SAPS   H7Y 1429   0.316   5.547   7.098  0.4305 -0.0783 -1.0609
   11SAPS   C38 1430   0.478   5.553   7.260  0.0516  0.3473 -0.1074
   11SAPS   H8X 1431   0.477   5.664   7.259  1.2769  0.3941  1.0266
   11SAPS   H8Y 1432   0.583   5.518   7.265  0.4510  1.5125 -0.0907
   11SAPS   C39 1433   0.394   5.511   7.377  0.1548  0.3873 -0.1776
   11SAPS   H9X 1434   0.416   5.406   7.405  0.2910  0.6415  0.7021
   11SAPS   H9Y 1435   0.289   5.513   7.341 -0.2485 -1.8805  0.7338
   11SAPS  C310 1436   0.432   5.595   7.502  0.4227 -0.3257  0.7200
   11SAPS  H10X 1437   0.453   5.700   7.474  0.1995 -0.5681 -0.4118
   11SAPS  H10Y 1438   0.527   5.554   7.542  0.0928 -0.5737  1.2737
   11SAPS  C311 1439   0.323   5.583   7.618  0.5559 -1.0126  0.1691
   11SAPS  H11X 1440   0.286   5.479   7.631  0.9617 -1.0793  0.8089
   11SAPS  H11Y 1441   0.239   5.647   7.584  0.3231 -0.9689  0.8157
   11SAPS  C312 1442   0.360   5.636   7.757 -0.0721 -0.5389 -0.1415
   11SAPS  H12X 1443   0.279   5.643   7.832  1.3084 -1.5581  1.5123
   11SAPS  H12Y 1444   0.388   5.744   7.756 -0.7361 -0.3282  1.2223
   11SAPS  C313 1445   0.479   5.567   7.816 -0.4826 -0.9212 -0.4211
   11SAPS  H13X 1446   0.570   5.578   7.754  0.3884 -1.0986  0.7920
   11SAPS  H13Y 1447   0.456   5.458   7.819  1.2641 -1.4171 -2.7215
   11SAPS  C314 1448   0.536   5.617   7.954  0.0875  0.1209 -0.2811
   11SAPS  H14X 1449   0.444   5.615   8.016  1.3710  1.2697  1.7456
   11SAPS  H14Y 1450   0.587   5.716   7.950  0.4020  0.0241  1.0111
   11SAPS  C315 1451   0.637   5.518   8.002  0.0800  0.3371  0.0045
   11SAPS  H15X 1452   0.730   5.521   7.942 -0.6981  0.4788 -1.2137
   11SAPS  H15Y 1453   0.597   5.415   7.990 -0.2871  0.3927  0.6744
   11SAPS  C316 1454   0.673   5.531   8.157  0.6558  0.0929  0.2020
   11SAPS  H16X 1455   0.574   5.520   8.207  0.7890 -1.6510  0.1470
   11SAPS  H16Y 1456   0.715   5.628   8.190  0.0090 -0.3038  2.3855
   11SAPS  C317 1457   0.762   5.418   8.209  0.1737 -0.5762  0.0037
   11SAPS  H17X 1458   0.865   5.453   8.187 -0.0133  0.2960  0.4455
   11SAPS  H17Y 1459   0.744   5.322   8.155 -0.8985 -0.3894  0.0096
   11SAPS  C318 1460   0.728   5.406   8.355  0.2098 -0.1372 -0.4502
   11SAPS  H18X 1461   0.734   5.507   8.399  4.3537  0.2002 -1.3971
   11SAPS  H18Y 1462   0.796   5.339   8.412 -0.2322  2.5673  3.6303
   11SAPS  H18Z 1463   0.625   5.366   8.367  0.4053 -1.1137 -1.7754
   12SAPS     N 1464   0.543   0.198   6.120  0.0142 -0.4598  0.1672
   12SAPS   HN1 1465   0.495   0.290   6.123 -0.1917 -0.5365 -0.6473
   12SAPS   HN2 1466   0.516   0.137   6.200 -0.0985 -1.8794 -0.9012
   12SAPS   HN3 1467   0.646   0.211   6.125 -0.1067  0.7990 -0.3753
   12SAPS   C12 1468   0.517   0.121   5.992  0.5304 -0.0956 -0.8112
   12SAPS  H12A 1469   0.410   0.119   5.983  0.5797  0.4389 -1.6403
   12SAPS   C13 1470   0.569   0.180   5.859  0.0968 -0.1136 -0.3434
   12SAPS  O13A 1471   0.634   0.291   5.871 -0.0501  0.1219  0.3104
   12SAPS  O13B 1472   0.527   0.146   5.748  0.1925  0.2068 -0.1210
   12SAPS   C11 1473   0.560  -0.024   6.003 -0.7192  0.5987  0.2082
   12SAPS  H11A 1474   0.666  -0.023   6.033 -1.0633  2.0997  1.4931
   12SAPS  H11B 1475   0.555  -0.085   5.910  1.3113 -2.2652  1.7967
   12SAPS     P 1476   0.484  -0.255   6.122 -0.1479 -0.6252  0.1676
   12SAPS   O13 1477   0.346  -0.301   6.133 -0.2730 -0.3747  0.3131
   12SAPS   O14 1478   0.573  -0.316   6.024 -0.5204 -0.0473  0.4319
   12SAPS   O12 1479   0.491  -0.095   6.110  0.0479  0.4361  0.3857
   12SAPS   O11 1480   0.558  -0.283   6.258 -0.0863 -0.6025  0.4486
   12SAPS    C1 1481   0.636  -0.197   6.341  0.5180  0.1046  0.3052
   12SAPS    HA 1482   0.746  -0.207   6.331  0.4726 -1.7415  1.1831
   12SAPS    HB 1483   0.620  -0.097   6.297 -0.2607 -0.3537 -0.4926
   12SAPS    C2 1484   0.581  -0.200   6.493 -0.1110 -0.0962 -0.5106
   12SAPS    HS 1485   0.614  -0.110   6.549 -0.7794  2.5562 -4.0604
   12SAPS   O21 1486   0.626  -0.323   6.559  0.6237  0.5279  0.1666
   12SAPS   C21 1487   0.756  -0.335   6.585  0.6618 -0.7275 -0.0141
   12SAPS   O22 1488   0.842  -0.249   6.566  0.1443 -0.0288  0.6338
   12SAPS   C22 1489   0.777  -0.472   6.656  0.0970 -0.8985 -0.6855
   12SAPS   H2R 1490   0.677  -0.518   6.668 -0.4698 -0.1804 -2.4164
   12SAPS   H2S 1491   0.837  -0.529   6.582  1.3293 -1.0022  0.3439
   12SAPS    C3 1492   0.427  -0.199   6.503  0.2862  0.2941 -0.9296
   12SAPS    HX 1493   0.384  -0.295   6.466 -1.2956  0.4951  0.2951
   12SAPS    HY 1494   0.384  -0.116   6.443 -1.8651  1.5633  2.1398
   12SAPS   O31 1495   0.381  -0.175   6.638 -0.3369  0.1230  0.1384
   12SAPS   C31 1496   0.409  -0.060   6.700  0.0549  0.2676  0.2133
   12SAPS   O32 1497   0.470   0.030   6.654  0.1816 -0.0174  0.2304
   12SAPS   C32 1498   0.361  -0.054   6.845  0.2358 -0.3179 -0.5541
   12SAPS   H2X 1499   0.276   0.017   6.834  1.5682  1.2924 -0.9650
   12SAPS   H2Y 1500   0.441   0.003   6.897  0.9594 -1.3898 -0.4475
   12SAPS   C23 1501   0.867  -0.463   6.787 -0.5124 -0.1248 -0.1117
   12SAPS   H3R 1502   0.956  -0.399   6.765  0.3053 -1.0626  0.3753
   12SAPS   H3S 1503   0.903  -0.568   6.801 -0.2149  0.0386  0.3763
   12SAPS   C24 1504   0.787  -0.412   6.910  0.0104 -0.2138 -0.1664
   12SAPS   H4R 1505   0.696  -0.476   6.914  1.6278 -2.5938  0.5579
   12SAPS   H4S 1506   0.760  -0.308   6.882 -0.6779 -0.1868  0.5613
   12SAPS   C25 1507   0.860  -0.409   7.043  0.0426 -0.1439  0.0656
   12SAPS   H5R 1508   0.969  -0.421   7.041  0.0227 -0.9023  1.7585
   12SAPS   C26 1509   0.808  -0.361   7.160  0.1377  0.1253  0.1682
   12SAPS   H6R 1510   0.864  -0.349   7.254 -1.4511 -0.5429  1.2402
   12SAPS   C27 1511   0.660  -0.325   7.184  0.4170  0.3074 -0.6773
   12SAPS   H7R 1512   0.616  -0.297   7.085 -0.9068 -0.3673 -0.2952
   12SAPS   H7S 1513   0.653  -0.239   7.253 -0.8141 -0.3391  0.0252
   12SAPS   C28 1514   0.598  -0.454   7.230 -0.1222  1.2500 -0.7198
   12SAPS   H8R 1515   0.588  -0.535   7.157  1.1774 -1.2675  1.6803
   12SAPS   C29 1516   0.557  -0.486   7.357  0.5562  0.1080  0.1796
   12SAPS   H9R 1517   0.492  -0.573   7.375 -2.6211  1.9469 -1.5393
   12SAPS  C210 1518   0.558  -0.395   7.476 -0.0058 -0.2900  0.0387
   12SAPS  H10R 1519   0.454  -0.396   7.514  0.4624  0.1591  1.3850
   12SAPS  H10S 1520   0.577  -0.294   7.434  1.2690 -1.2183 -1.8058
   12SAPS  C211 1521   0.659  -0.424   7.585 -0.5188 -0.3281 -0.1645
   12SAPS  H11R 1522   0.758  -0.456   7.550 -0.9375  0.0707 -1.8025
   12SAPS  C212 1523   0.645  -0.413   7.717  0.8518 -0.4895  0.0671
   12SAPS  H12R 1524   0.730  -0.424   7.787  1.6101 -0.0591 -0.7719
   12SAPS  C213 1525   0.519  -0.365   7.784  0.1525 -0.1156 -0.1232
   12SAPS  H13R 1526   0.518  -0.412   7.885  1.1067  0.9534  0.4032
   12SAPS  H13S 1527   0.436  -0.409   7.724  1.7938  1.0173 -3.4757
   12SAPS  C214 1528   0.505  -0.215   7.793 -0.1375 -0.0177  0.3463
   12SAPS  H14R 1529   0.563  -0.157   7.721 -1.3001  0.8604  0.1008
   12SAPS  C215 1530   0.452  -0.141   7.890 -0.2988  0.7912 -0.1758
   12SAPS  H15R 1531   0.455  -0.031   7.884 -2.2740  0.9927  1.4553
   12SAPS  C216 1532   0.387  -0.187   8.020  0.6211 -0.1372 -0.3771
   12SAPS  H16R 1533   0.349  -0.290   8.003  1.9298 -0.2727 -3.1059
   12SAPS  H16S 1534   0.295  -0.127   8.035 -0.5156 -2.0911  1.0087
   12SAPS  C217 1535   0.486  -0.172   8.142 -0.1207 -0.3619 -0.2205
   12SAPS  H17R 1536   0.539  -0.074   8.136  0.6927 -0.8222 -0.7785
   12SAPS  H17S 1537   0.562  -0.253   8.135  0.9739  0.7254 -1.4234
   12SAPS  C218 1538   0.419  -0.197   8.280 -0.3511 -0.5933 -0.7377
   12SAPS  H18R 1539   0.324  -0.138   8.282  0.6167  0.9826  0.7402
   12SAPS  H18S 1540   0.473  -0.154   8.367 -1.5379 -1.1156  0.2957
   12SAPS  C219 1541   0.399  -0.344   8.298  0.3943  0.4442  0.7136
   12SAPS  H19R 1542   0.502  -0.387   8.298 -0.3830 -1.9386 -3.3515
   12SAPS  H19S 1543   0.343  -0.384   8.211 -0.1446 -2.0542  2.1308
   12SAPS  C220 1544   0.324  -0.378   8.429 -0.4208  1.0201  0.2502
   12SAPS  H20R 1545   0.320  -0.487   8.450 -1.2575  0.5365 -2.1106
   12SAPS  H20S 1546   0.216  -0.354   8.418  0.1595  2.6853 -3.2209
   12SAPS  H20T 1547   0.369  -0.327   8.517 -1.2749  0.9326  0.7525
   12SAPS   C33 1548   0.327  -0.180   6.923  0.2959  0.4493 -0.7814
   12SAPS   H3X 1549   0.408  -0.252   6.948 -0.5227 -0.1289  0.3008
   12SAPS   H3Y 1550   0.270  -0.242   6.850 -0.6407  1.9038 -1.3371
   12SAPS   C34 1551   0.258  -0.141   7.052  0.1241  0.0073 -0.2396
   12SAPS   H4X 1552   0.153  -0.114   7.026  0.3978 -0.2273 -1.6379
   12SAPS   H4Y 1553   0.303  -0.055   7.105  0.1446  0.2513 -0.6478
   12SAPS   C35 1554   0.243  -0.254   7.153  0.3752 -0.3949 -0.0066
   12SAPS   H5X 1555   0.343  -0.260   7.202 -0.4907  0.8866  2.0208
   12SAPS   H5Y 1556   0.240  -0.355   7.107 -0.0504 -1.1136  1.5448
   12SAPS   C36 1557   0.132  -0.220   7.240  0.4029 -0.2659 -0.3008
   12SAPS   H6X 1558   0.033  -0.213   7.189  0.4825  3.3484 -0.1957
   12SAPS   H6Y 1559   0.157  -0.118   7.275  3.3815 -1.4439  1.3487
   12SAPS   C37 1560   0.138  -0.307   7.363  0.2657  0.3815 -0.6364
   12SAPS   H7X 1561   0.246  -0.304   7.388 -0.1039  1.2568  0.9761
   12SAPS   H7Y 1562   0.107  -0.412   7.344  2.5317 -0.5450  0.4679
   12SAPS   C38 1563   0.062  -0.247   7.485  0.1305 -0.0462 -0.8989
   12SAPS   H8X 1564  -0.043  -0.234   7.451 -0.0198 -1.7553 -1.1705
   12SAPS   H8Y 1565   0.100  -0.143   7.499 -0.2089 -0.1247  0.7509
   12SAPS   C39 1566   0.072  -0.343   7.608  0.2535 -0.0725 -0.6543
   12SAPS   H9X 1567   0.179  -0.360   7.631  0.0839 -0.5638 -0.1915
   12SAPS   H9Y 1568   0.043  -0.450   7.594  1.9797 -1.0190  2.1024
   12SAPS  C310 1569   0.016  -0.273   7.737  0.1284 -0.0667  0.1564
   12SAPS  H10X 1570  -0.092  -0.263   7.715  0.4534  0.3065 -1.4695
   12SAPS  H10Y 1571   0.064  -0.172   7.739  0.3679 -0.1388 -0.9863
   12SAPS  C311 1572   0.042  -0.341   7.873  0.7977 -0.5924 -0.6063
   12SAPS  H11X 1573   0.151  -0.340   7.896  0.2980 -2.1398  2.1329
   12SAPS  H11Y 1574   0.006  -0.446   7.875 -1.7648  0.2409  0.4499
   12SAPS  C312 1575  -0.028  -0.272   7.988  0.2032 -0.2720  0.4413
   12SAPS  H12X 1576  -0.135  -0.257   7.961  0.1083  2.8355  2.0120
   12SAPS  H12Y 1577   0.001  -0.165   7.997 -0.0768 -0.2200  0.7685
   12SAPS  C313 1578  -0.015  -0.343   8.126 -0.8552  0.0269 -0.0703
   12SAPS  H13X 1579   0.092  -0.371   8.143 -0.8635  1.0304  1.9802
   12SAPS  H13Y 1580  -0.064  -0.442   8.121  1.0460 -1.0004  0.5099
   12SAPS  C314 1581  -0.068  -0.272   8.246  0.3309 -0.1201 -0.7363
   12SAPS  H14X 1582  -0.173  -0.244   8.225  0.7092  1.4016 -0.6894
   12SAPS  H14Y 1583  -0.004  -0.182   8.259 -0.2737  0.4622 -1.6658
   12SAPS  C315 1584  -0.077  -0.354   8.371 -0.0091  0.5525 -0.4916
   12SAPS  H15X 1585   0.004  -0.429   8.375 -1.4841 -1.2412 -2.2808
   12SAPS  H15Y 1586  -0.165  -0.422   8.377 -1.0935  1.7697 -1.7256
   12SAPS  C316 1587  -0.083  -0.267   8.495 -0.4666  0.3785  0.4116
   12SAPS  H16X 1588  -0.175  -0.205   8.486 -0.4614  1.1024  3.8258
   12SAPS  H16Y 1589  -0.000  -0.194   8.499 -0.1932  0.0996 -0.0403
   12SAPS  C317 1590  -0.090  -0.344   8.625 -0.3963  0.6705 -0.0538
   12SAPS  H17X 1591  -0.165  -0.425   8.624 -0.0782  0.3731  0.1178
   12SAPS  H17Y 1592  -0.118  -0.269   8.702 -0.2641  0.5877  0.0741
   12SAPS  C318 1593   0.053  -0.387   8.673 -0.0098  0.5950  0.1616
   12SAPS  H18X 1594   0.037  -0.448   8.765 -0.7163  1.2103  0.4588
   12SAPS  H18Y 1595   0.127  -0.308   8.700  1.2219 -0.6267  0.4842
   12SAPS  H18Z 1596   0.106  -0.456   8.604 -0.3368  0.7173 -0.2125
   13SAPS     N 1597   5.685   2.569   6.445 -0.5518  0.1659  0.2039
   13SAPS   HN1 1598   5.662   2.594   6.543 -3.7660 -0.4298 -0.2735
   13SAPS   HN2 1599   5.603   2.592   6.384  0.8233  0.1381 -1.7393
   13SAPS   HN3 1600   5.693   2.465   6.446 -0.5542  0.1711  1.0229
   13SAPS   C12 1601   5.802   2.625   6.375  0.1439 -0.2153  0.0128
   13SAPS  H12A 1602   5.805   2.584   6.275  1.1966  1.2503 -0.5819
   13SAPS   C13 1603   5.798   2.782   6.367  0.4416 -0.3206  0.0611
   13SAPS  O13A 1604   5.692   2.844   6.382 -0.4425  0.9479  0.2135
   13SAPS  O13B 1605   5.892   2.838   6.308 -0.5715 -0.2919  0.9923
   13SAPS   C11 1606   5.935   2.589   6.443  0.2113  0.3092 -0.4119
   13SAPS  H11A 1607   5.941   2.639   6.542 -1.6911 -0.3919  0.1025
   13SAPS  H11B 1608   6.017   2.618   6.375 -0.1738 -2.3127 -2.1540
   13SAPS     P 1609   6.010   2.344   6.366  0.3018 -0.0676 -0.3703
   13SAPS   O13 1610   5.889   2.302   6.293  0.0557  0.9022 -0.2460
   13SAPS   O14 1611   6.118   2.406   6.291  0.0018  0.4957  0.0850
   13SAPS   O12 1612   5.960   2.448   6.468  0.2578 -0.7567 -0.0850
   13SAPS   O11 1613   6.063   2.232   6.462 -0.1933 -0.1317  0.5436
   13SAPS    C1 1614   6.153   2.257   6.570  0.4096  0.0664  0.1974
   13SAPS    HA 1615   6.209   2.162   6.579 -0.4797 -0.7351 -2.0737
   13SAPS    HB 1616   6.221   2.338   6.537  0.7455 -0.8372 -1.4014
   13SAPS    C2 1617   6.086   2.290   6.706  0.2648  0.3150  0.3009
   13SAPS    HS 1618   6.033   2.388   6.706 -0.6847 -0.1463  1.9907
   13SAPS   O21 1619   6.191   2.290   6.806  0.0874 -0.1863  0.2432
   13SAPS   C21 1620   6.157   2.362   6.919  0.2890  0.3199  0.2305
   13SAPS   O22 1621   6.066   2.439   6.933 -0.7718  0.1412 -0.5605
   13SAPS   C22 1622   6.273   2.348   7.026  0.9984 -0.3513  0.6347
   13SAPS   H2R 1623   6.297   2.240   7.012  0.9485 -0.4899  1.5601
   13SAPS   H2S 1624   6.354   2.415   6.991  0.1095 -0.8811 -2.7345
   13SAPS    C3 1625   5.986   2.178   6.755 -0.9977 -0.0739  0.0892
   13SAPS    HX 1626   6.040   2.081   6.765 -0.4839  0.1453 -0.5499
   13SAPS    HY 1627   5.905   2.147   6.685 -1.1416 -0.5240  0.4433
   13SAPS   O31 1628   5.929   2.200   6.892 -0.7824  0.0528  0.4655
   13SAPS   C31 1629   5.828   2.276   6.899  0.8037  0.8507  0.5748
   13SAPS   O32 1630   5.762   2.314   6.801  0.0179 -0.2359 -0.2848
   13SAPS   C32 1631   5.808   2.314   7.036  0.0628  0.0002  0.1877
   13SAPS   H2X 1632   5.897   2.276   7.092  1.6841 -0.0856 -2.2907
   13SAPS   H2Y 1633   5.720   2.257   7.071  0.4441 -0.5917  0.1864
   13SAPS   C23 1634   6.224   2.356   7.166  0.3639 -0.0571  0.1754
   13SAPS   H3R 1635   6.284   2.295   7.237 -3.0838 -2.5067  1.2697
   13SAPS   H3S 1636   6.123   2.313   7.183 -0.6299  2.5511  1.3817
   13SAPS   C24 1637   6.228   2.505   7.217 -0.8510  0.1484  0.2180
   13SAPS   H4R 1638   6.174   2.518   7.314 -1.4810  2.3024 -0.3662
   13SAPS   H4S 1639   6.158   2.562   7.153  1.1521  1.4141 -0.9351
   13SAPS   C25 1640   6.366   2.578   7.236 -0.2563  0.5612  0.2377
   13SAPS   H5R 1641   6.420   2.613   7.147  0.1682 -2.0013 -0.5872
   13SAPS   C26 1642   6.418   2.607   7.358  0.7328 -0.4747 -0.2225
   13SAPS   H6R 1643   6.523   2.642   7.359  0.2263  1.0804 -0.1761
   13SAPS   C27 1644   6.348   2.577   7.493  0.2757 -0.1325 -0.6669
   13SAPS   H7R 1645   6.400   2.498   7.550 -1.7506 -1.2463 -0.2739
   13SAPS   H7S 1646   6.243   2.543   7.478 -1.0845  3.4880 -0.4209
   13SAPS   C28 1647   6.343   2.704   7.578  0.0360  0.0181 -0.2436
   13SAPS   H8R 1648   6.280   2.784   7.537 -0.4457  0.5371  1.4412
   13SAPS   C29 1649   6.373   2.734   7.710 -0.1748 -0.0236  0.0638
   13SAPS   H9R 1650   6.365   2.840   7.739  0.0329 -0.1617  0.6390
   13SAPS  C210 1651   6.442   2.625   7.796 -0.3636  0.2941  0.3052
   13SAPS  H10R 1652   6.397   2.526   7.773  1.2630 -0.8452  1.6923
   13SAPS  H10S 1653   6.419   2.644   7.903 -1.0601  1.1613  0.0074
   13SAPS  C211 1654   6.598   2.621   7.780 -0.3245 -0.0728  0.9890
   13SAPS  H11R 1655   6.634   2.631   7.676  1.4929 -2.7804  1.2369
   13SAPS  C212 1656   6.685   2.609   7.882 -0.3212  0.3520  0.1792
   13SAPS  H12R 1657   6.793   2.607   7.865  0.1675 -0.5621  2.8144
   13SAPS  C213 1658   6.661   2.585   8.028 -0.3473 -0.2051  0.1498
   13SAPS  H13R 1659   6.744   2.540   8.087 -0.9995 -2.0260 -0.2702
   13SAPS  H13S 1660   6.584   2.506   8.029 -0.7400  0.1656 -0.5810
   13SAPS  C214 1661   6.619   2.709   8.101  0.1111 -0.1863  0.2108
   13SAPS  H14R 1662   6.601   2.796   8.036  1.2813 -0.1822 -0.1146
   13SAPS  C215 1663   6.597   2.711   8.236  0.2832  0.6149  0.0035
   13SAPS  H15R 1664   6.583   2.806   8.290  0.3219  0.6792 -0.1007
   13SAPS  C216 1665   6.616   2.587   8.328 -0.1280  0.4921  0.4601
   13SAPS  H16R 1666   6.639   2.500   8.263  0.6280  2.3881 -1.9711
   13SAPS  H16S 1667   6.519   2.574   8.381 -0.7876 -0.2506 -0.8694
   13SAPS  C217 1668   6.733   2.608   8.431 -0.2896 -0.9328  0.0957
   13SAPS  H17R 1669   6.818   2.650   8.373 -1.1683  2.9584  1.3030
   13SAPS  H17S 1670   6.766   2.507   8.464 -0.1661 -0.9410 -0.0519
   13SAPS  C218 1671   6.700   2.707   8.539 -0.5948 -0.3900 -0.8340
   13SAPS  H18R 1672   6.642   2.663   8.622 -1.6844  2.1161 -0.1742
   13SAPS  H18S 1673   6.637   2.795   8.513 -1.6244  0.3941  3.5314
   13SAPS  C219 1674   6.832   2.769   8.597 -0.0218  0.4622 -0.0037
   13SAPS  H19R 1675   6.862   2.851   8.529  1.5087 -0.5349 -0.5965
   13SAPS  H19S 1676   6.909   2.690   8.613 -0.8580 -0.4023 -0.1446
   13SAPS  C220 1677   6.809   2.824   8.739 -0.0293 -0.2303  0.0502
   13SAPS  H20R 1678   6.909   2.855   8.777 -0.2003 -1.4415  1.5828
   13SAPS  H20S 1679   6.772   2.744   8.807  0.9435 -0.3805  0.4213
   13SAPS  H20T 1680   6.744   2.912   8.723 -0.4958 -0.6396 -0.3586
   13SAPS   C33 1681   5.787   2.461   7.062  0.0820 -0.2870 -0.0916
   13SAPS   H3X 1682   5.718   2.501   6.985  0.9824 -0.2928 -0.9258
   13SAPS   H3Y 1683   5.879   2.516   7.034  0.3940 -1.1783 -0.8779
   13SAPS   C34 1684   5.744   2.500   7.205  0.2000  0.7399  0.0535
   13SAPS   H4X 1685   5.648   2.455   7.235 -0.4625  2.4860  0.7231
   13SAPS   H4Y 1686   5.715   2.607   7.219 -1.0113  0.0016  5.0955
   13SAPS   C35 1687   5.859   2.475   7.307  0.6071 -0.0830 -0.4052
   13SAPS   H5X 1688   5.951   2.530   7.276  0.7065 -1.2427 -2.3796
   13SAPS   H5Y 1689   5.892   2.369   7.302 -0.5878 -0.5312  0.7274
   13SAPS   C36 1690   5.803   2.514   7.449 -0.2886 -0.6053 -0.5316
   13SAPS   H6X 1691   5.721   2.445   7.478 -1.2930  0.4411 -0.7854
   13SAPS   H6Y 1692   5.750   2.611   7.441  1.3046  0.6969  2.8546
   13SAPS   C37 1693   5.917   2.529   7.548 -0.1139  0.4920 -0.2042
   13SAPS   H7X 1694   5.989   2.605   7.511  0.9578 -0.0928  0.6279
   13SAPS   H7Y 1695   5.975   2.437   7.570  0.2313  0.2428 -1.9927
   13SAPS   C38 1696   5.867   2.579   7.683  0.4280 -0.4298 -0.2445
   13SAPS   H8X 1697   5.796   2.509   7.731  0.1199  0.2238  0.2786
   13SAPS   H8Y 1698   5.790   2.659   7.669  1.7082  0.8953 -0.0197
   13SAPS   C39 1699   5.980   2.624   7.777 -0.3558  0.6921  0.4652
   13SAPS   H9X 1700   6.052   2.691   7.725  0.9657 -0.1634  1.1319
   13SAPS   H9Y 1701   6.034   2.528   7.794 -1.1530  0.2268  0.4294
   13SAPS  C310 1702   5.933   2.678   7.914  0.1527 -0.0552 -0.5619
   13SAPS  H10X 1703   5.873   2.597   7.960 -2.8530  0.9554 -2.4566
   13SAPS  H10Y 1704   5.862   2.758   7.887  1.3339  1.0222 -0.5564
   13SAPS  C311 1705   6.049   2.736   7.994  0.1310  0.6901  0.0067
   13SAPS  H11X 1706   6.090   2.827   7.945 -3.5347  1.6826 -1.5837
   13SAPS  H11Y 1707   6.131   2.661   7.995 -0.1666  0.3698  0.3104
   13SAPS  C312 1708   6.006   2.770   8.137 -0.2790 -0.3378 -0.1824
   13SAPS  H12X 1709   5.968   2.675   8.181  2.1160 -0.1219  2.6207
   13SAPS  H12Y 1710   5.926   2.847   8.133  0.5070  0.4843 -0.4352
   13SAPS  C313 1711   6.118   2.807   8.232 -0.5691 -0.4678  0.2758
   13SAPS  H13X 1712   6.161   2.906   8.208 -0.0189 -1.0348 -1.2227
   13SAPS  H13Y 1713   6.206   2.740   8.229 -0.1971 -0.0141  0.9597
   13SAPS  C314 1714   6.078   2.796   8.390  0.1273 -0.3880 -1.0456
   13SAPS  H14X 1715   6.167   2.822   8.451 -1.3960  4.8055 -0.4885
   13SAPS  H14Y 1716   6.044   2.692   8.408  3.2603 -1.4693 -0.7246
   13SAPS  C315 1717   5.967   2.902   8.436  0.1958  0.3822 -0.0792
   13SAPS  H15X 1718   5.894   2.904   8.352 -0.3423  0.7201  0.3864
   13SAPS  H15Y 1719   5.996   3.009   8.451 -0.1262  0.6445 -1.2515
   13SAPS  C316 1720   5.904   2.866   8.569 -0.1898 -1.1006  0.5542
   13SAPS  H16X 1721   5.991   2.858   8.638  0.9158  0.2677 -0.6032
   13SAPS  H16Y 1722   5.856   2.766   8.566 -0.9455 -0.7550  1.1866
   13SAPS  C317 1723   5.802   2.974   8.610  0.9839  0.5346 -0.1809
   13SAPS  H17X 1724   5.736   2.930   8.688  1.9228 -0.5010  0.0601
   13SAPS  H17Y 1725   5.732   3.002   8.528  0.7896 -2.9415 -1.3656
   13SAPS  C318 1726   5.858   3.102   8.672  0.3994  0.7692 -0.6141
   13SAPS  H18X 1727   5.906   3.158   8.588  1.8970 -0.0416 -0.3389
   13SAPS  H18Y 1728   5.941   3.092   8.745 -1.2250  0.4244  1.2631
   13SAPS  H18Z 1729   5.786   3.177   8.711  0.2451  0.2614  0.0904
   14SAPS     N 1730   0.061   4.695   5.938 -0.0519  0.0643 -0.4375
   14SAPS   HN1 1731   0.091   4.637   6.019 -1.4875 -2.5021 -1.6258
   14SAPS   HN2 1732   0.138   4.763   5.924 -0.8196  1.2511  0.8542
   14SAPS   HN3 1733  -0.024   4.752   5.949 -0.1576 -0.1391 -0.1898
   14SAPS   C12 1734   0.064   4.598   5.830 -0.1228  0.8411  0.1151
   14SAPS  H12A 1735  -0.042   4.574   5.833  0.1254 -0.8798 -2.0647
   14SAPS   C13 1736   0.104   4.662   5.691 -0.0544  0.0152 -0.2713
   14SAPS  O13A 1737   0.172   4.767   5.688 -0.8840  0.0450 -0.4120
   14SAPS  O13B 1738   0.070   4.593   5.589 -0.4234 -0.0946 -0.0401
   14SAPS   C11 1739   0.163   4.482   5.869  0.6624  0.4065  0.0019
   14SAPS  H11A 1740   0.262   4.503   5.824  0.3825 -0.7060 -1.2186
   14SAPS  H11B 1741   0.113   4.393   5.823 -0.7116  0.9437  0.4019
   14SAPS     P 1742   0.268   4.359   6.072  0.2751 -0.3208  0.2087
   14SAPS   O13 1743   0.251   4.231   5.996 -0.2045  0.0067 -0.2387
   14SAPS   O14 1744   0.404   4.418   6.079  0.0120 -0.2379  0.4367
   14SAPS   O12 1745   0.172   4.475   6.011  0.2069  0.3369  0.2206
   14SAPS   O11 1746   0.218   4.344   6.217  0.4239 -0.0744 -0.4311
   14SAPS    C1 1747   0.133   4.450   6.268  0.3590 -0.0341 -0.7447
   14SAPS    HA 1748   0.185   4.548   6.263 -0.4998  0.4123 -1.1120
   14SAPS    HB 1749   0.029   4.459   6.231  0.0637  1.1972  0.3249
   14SAPS    C2 1750   0.122   4.429   6.426 -0.5260 -0.4738  0.1210
   14SAPS    HS 1751   0.224   4.398   6.455 -0.7038 -0.4629  0.7870
   14SAPS   O21 1752   0.031   4.324   6.467 -0.1607  0.1238 -0.3347
   14SAPS   C21 1753  -0.061   4.260   6.394 -0.1158  0.1340  0.1679
   14SAPS   O22 1754  -0.108   4.281   6.285 -0.5844 -0.0096 -0.6848
   14SAPS   C22 1755  -0.106   4.141   6.485  0.4967  0.0232 -0.3547
   14SAPS   H2R 1756  -0.116   4.050   6.421  0.6841  0.5097 -1.0824
   14SAPS   H2S 1757  -0.034   4.120   6.567  0.1695 -1.0201 -0.3117
   14SAPS    C3 1758   0.084   4.554   6.502 -0.7007 -0.2233 -0.6761
   14SAPS    HX 1759  -0.019   4.588   6.481 -0.9864 -0.1729  0.6845
   14SAPS    HY 1760   0.162   4.630   6.481  1.1864 -1.5248  1.0487
   14SAPS   O31 1761   0.097   4.527   6.643 -0.3708  0.1195  0.1015
   14SAPS   C31 1762  -0.007   4.516   6.725  0.1900 -0.3289  0.8371
   14SAPS   O32 1763  -0.123   4.534   6.697 -0.2392  0.1446  0.1693
   14SAPS   C32 1764   0.046   4.489   6.862  0.0975 -0.5109  0.3639
   14SAPS   H2X 1765   0.153   4.521   6.865  0.0297 -0.1712 -0.6402
   14SAPS   H2Y 1766   0.040   4.378   6.863 -1.0339 -0.6310 -3.8039
   14SAPS   C23 1767  -0.243   4.181   6.547 -0.1678  1.0281 -0.4563
   14SAPS   H3R 1768  -0.315   4.193   6.463 -1.0351 -0.8519 -0.0477
   14SAPS   H3S 1769  -0.229   4.279   6.596  1.8008  0.3890  0.3805
   14SAPS   C24 1770  -0.296   4.077   6.650 -0.0471 -0.1079  0.7848
   14SAPS   H4R 1771  -0.318   3.978   6.604  0.0138 -1.2399  3.0226
   14SAPS   H4S 1772  -0.391   4.120   6.687  0.2298 -0.4998  1.9951
   14SAPS   C25 1773  -0.205   4.050   6.772  0.4467  0.5921  1.0477
   14SAPS   H5R 1774  -0.117   3.990   6.745 -1.5840 -0.9856 -2.7287
   14SAPS   C26 1775  -0.216   4.098   6.897  0.0303 -0.3789  0.4506
   14SAPS   H6R 1776  -0.153   4.041   6.966  1.2191  0.1273 -0.1849
   14SAPS   C27 1777  -0.320   4.182   6.953  1.1278  0.2573 -0.2185
   14SAPS   H7R 1778  -0.410   4.119   6.965  1.3872 -0.6919 -2.6435
   14SAPS   H7S 1779  -0.356   4.251   6.873  0.1751  0.5234  0.4306
   14SAPS   C28 1780  -0.287   4.265   7.068 -0.7462 -0.4442 -0.5026
   14SAPS   H8R 1781  -0.214   4.343   7.044 -0.3778 -0.9917 -1.1997
   14SAPS   C29 1782  -0.327   4.255   7.198  0.0548  0.8802 -0.4149
   14SAPS   H9R 1783  -0.279   4.324   7.269 -0.3066  1.8021 -1.0566
   14SAPS  C210 1784  -0.428   4.161   7.273  0.2931  0.0815 -0.6760
   14SAPS  H10R 1785  -0.368   4.109   7.351  0.5854  0.0791 -0.8988
   14SAPS  H10S 1786  -0.446   4.070   7.211  1.2295 -0.7200  0.1871
   14SAPS  C211 1787  -0.552   4.235   7.319  0.1426 -0.3696 -0.3418
   14SAPS  H11R 1788  -0.554   4.308   7.401 -0.8323  2.1609 -2.4562
   14SAPS  C212 1789  -0.674   4.225   7.260 -0.0106  0.2513  0.1778
   14SAPS  H12R 1790  -0.758   4.289   7.290  0.7589  1.7202 -0.6961
   14SAPS  C213 1791  -0.692   4.136   7.137 -0.6095  0.7679  0.7027
   14SAPS  H13R 1792  -0.655   4.036   7.168  0.0792  0.8793  0.2527
   14SAPS  H13S 1793  -0.607   4.161   7.070  0.5937 -0.5470  1.6814
   14SAPS  C214 1794  -0.828   4.135   7.070  0.5661  0.1254  0.2188
   14SAPS  H14R 1795  -0.878   4.037   7.060 -0.3311  0.5920 -0.0032
   14SAPS  C215 1796  -0.894   4.242   7.019 -0.5411  0.0256  0.6139
   14SAPS  H15R 1797  -0.988   4.222   6.965 -0.1996 -2.5421  0.8248
   14SAPS  C216 1798  -0.851   4.382   7.007  0.5540 -0.0498  0.1033
   14SAPS  H16R 1799  -0.762   4.403   7.070 -0.5348 -0.6355  1.9192
   14SAPS  H16S 1800  -0.936   4.443   7.045  1.8631  1.7053  0.3441
   14SAPS  C217 1801  -0.816   4.422   6.857  0.3921 -0.7123  0.2224
   14SAPS  H17R 1802  -0.783   4.528   6.854  0.8926 -0.8669 -2.8948
   14SAPS  H17S 1803  -0.893   4.403   6.779  3.6931 -0.5818 -3.3679
   14SAPS  C218 1804  -0.694   4.340   6.803  0.1345 -0.1317  0.2260
   14SAPS  H18R 1805  -0.716   4.232   6.814 -1.3591 -0.0902 -1.7503
   14SAPS  H18S 1806  -0.613   4.355   6.877 -0.2257 -1.8276  1.0241
   14SAPS  C219 1807  -0.669   4.403   6.663  0.5392 -0.2128 -0.0176
   14SAPS  H19R 1808  -0.693   4.511   6.653  0.8669 -0.2787 -1.7521
   14SAPS  H19S 1809  -0.755   4.367   6.603 -0.6291  1.3406  0.6900
   14SAPS  C220 1810  -0.535   4.359   6.596 -0.0857  0.1366 -0.0088
   14SAPS  H20R 1811  -0.519   4.428   6.510  2.2884  1.2930  1.2639
   14SAPS  H20S 1812  -0.535   4.251   6.571 -0.8199 -0.6458  2.9389
   14SAPS  H20T 1813  -0.458   4.353   6.676 -0.1316 -2.3800 -0.0952
   14SAPS   C33 1814  -0.025   4.548   6.984  0.4292 -0.5223 -0.1716
   14SAPS   H3X 1815  -0.135   4.536   6.978  0.3859 -0.8388  0.9386
   14SAPS   H3Y 1816  -0.009   4.658   6.995 -1.3104  0.0879 -2.9359
   14SAPS   C34 1817   0.024   4.479   7.106 -0.7262  0.5862  0.2494
   14SAPS   H4X 1818   0.135   4.475   7.113 -0.7821 -0.9418  0.5899
   14SAPS   H4Y 1819  -0.003   4.372   7.097  0.6363  0.1686  0.8813
   14SAPS   C35 1820  -0.054   4.536   7.229 -0.0110 -0.1249  0.3259
   14SAPS   H5X 1821  -0.163   4.546   7.208  0.2145  1.9764 -0.0547
   14SAPS   H5Y 1822  -0.035   4.645   7.233 -1.0696  0.1123 -0.6399
   14SAPS   C36 1823  -0.019   4.466   7.355 -0.0353  0.0004 -0.3053
   14SAPS   H6X 1824   0.090   4.463   7.376 -0.2428 -1.5771  0.7517
   14SAPS   H6Y 1825  -0.057   4.362   7.343  0.0684 -0.2780  1.4597
   14SAPS   C37 1826  -0.099   4.524   7.473  0.3890  0.2723 -0.8558
   14SAPS   H7X 1827  -0.204   4.554   7.449 -0.2277 -1.2553 -0.1886
   14SAPS   H7Y 1828  -0.051   4.618   7.508 -0.2486 -0.5157  2.5180
   14SAPS   C38 1829  -0.123   4.421   7.589  0.5693 -0.3519 -0.4245
   14SAPS   H8X 1830  -0.080   4.323   7.560 -1.1018 -0.8487 -1.3648
   14SAPS   H8Y 1831  -0.231   4.396   7.604  0.8819  0.0307  3.6487
   14SAPS   C39 1832  -0.084   4.447   7.742 -0.3649  0.0450 -0.2158
   14SAPS   H9X 1833  -0.105   4.346   7.783  0.7920 -0.0684  0.1168
   14SAPS   H9Y 1834  -0.140   4.531   7.788  1.8787  0.3958  2.1094
   14SAPS  C310 1835   0.068   4.480   7.750 -1.5112 -0.0244 -1.1003
   14SAPS  H10X 1836   0.096   4.540   7.661  2.5394  0.6262  0.4252
   14SAPS  H10Y 1837   0.123   4.384   7.748 -1.3546  0.0712 -1.6282
   14SAPS  C311 1838   0.114   4.551   7.877 -0.3036 -0.5132  0.3072
   14SAPS  H11X 1839   0.048   4.640   7.886 -0.0627 -0.0486 -1.9451
   14SAPS  H11Y 1840   0.218   4.590   7.871 -0.3467  0.1172  2.5337
   14SAPS  C312 1841   0.082   4.474   8.008  0.0936  0.0259 -0.2866
   14SAPS  H12X 1842   0.158   4.393   8.015  0.7605  0.7271  1.0453
   14SAPS  H12Y 1843  -0.019   4.427   8.008 -0.4293  1.0819 -1.5136
   14SAPS  C313 1844   0.078   4.566   8.123 -0.3114 -0.0350 -0.3906
   14SAPS  H13X 1845   0.024   4.655   8.084 -3.0800 -1.5201 -0.2685
   14SAPS  H13Y 1846   0.179   4.589   8.161 -1.5723  2.3210  1.8154
   14SAPS  C314 1847   0.011   4.513   8.256 -0.3942 -0.0348 -0.0757
   14SAPS  H14X 1848   0.076   4.436   8.304 -1.1836 -1.9880 -1.9757
   14SAPS  H14Y 1849  -0.079   4.455   8.226  0.4974 -1.5766  0.1013
   14SAPS  C315 1850   0.002   4.626   8.367 -0.3131 -0.0880  0.9235
   14SAPS  H15X 1851  -0.075   4.704   8.350  0.1401  0.2756  0.5170
   14SAPS  H15Y 1852   0.097   4.680   8.351 -1.0037  0.7923 -0.3821
   14SAPS  C316 1853  -0.006   4.572   8.515 -0.2189 -0.0092  0.4797
   14SAPS  H16X 1854   0.016   4.654   8.587  2.1360 -0.6851  0.6320
   14SAPS  H16Y 1855   0.072   4.492   8.523  1.1275  1.2172  0.0558
   14SAPS  C317 1856  -0.143   4.517   8.554  1.0325  0.6434 -0.1836
   14SAPS  H17X 1857  -0.170   4.447   8.473  2.1377  0.7466 -0.6637
   14SAPS  H17Y 1858  -0.216   4.600   8.564 -1.9058 -1.8898  0.7233
   14SAPS  C318 1859  -0.145   4.425   8.685 -0.1832 -0.8817 -0.5672
   14SAPS  H18X 1860  -0.245   4.389   8.717  0.2871 -1.1021  0.6930
   14SAPS  H18Y 1861  -0.101   4.476   8.773  0.7319 -0.6157 -1.1603
   14SAPS  H18Z 1862  -0.092   4.328   8.678  1.9855  0.0195  1.9458
   15SAPS     N 1863   6.473   6.409   6.019 -0.7058  0.2687 -0.0597
   15SAPS   HN1 1864   6.548   6.469   5.980  1.1067 -1.0338  1.2296
   15SAPS   HN2 1865   6.447   6.475   6.095  0.3234  1.9543 -1.1144
   15SAPS   HN3 1866   6.518   6.325   6.060  1.7191  1.9125  0.8778
   15SAPS   C12 1867   6.357   6.372   5.938 -0.4612 -0.0676  0.7893
   15SAPS  H12A 1868   6.335   6.449   5.866  0.6672 -1.0478 -0.6591
   15SAPS   C13 1869   6.388   6.257   5.843 -0.2440  0.6699  0.3073
   15SAPS  O13A 1870   6.504   6.208   5.841  0.6626  0.2100 -0.6535
   15SAPS  O13B 1871   6.302   6.216   5.759 -0.3970  0.0109  0.3161
   15SAPS   C11 1872   6.236   6.341   6.033  0.3592  0.1099  0.2657
   15SAPS  H11A 1873   6.250   6.257   6.104 -1.6945  0.8290  1.6178
   15SAPS  H11B 1874   6.153   6.321   5.962 -0.8446 -1.0659  1.9143
   15SAPS     P 1875   6.115   6.580   6.062  0.4637 -0.3277 -0.2559
   15SAPS   O13 1876   6.201   6.695   6.096  0.0667 -0.4017 -0.1141
   15SAPS   O14 1877   6.070   6.560   5.922 -0.5113  0.3704 -0.3836
   15SAPS   O12 1878   6.200   6.456   6.115  0.4031 -0.3808 -0.0354
   15SAPS   O11 1879   5.991   6.581   6.164 -0.0508  0.7152  0.0053
   15SAPS    C1 1880   6.017   6.601   6.304 -0.2707 -0.0415 -0.8799
   15SAPS    HA 1881   6.083   6.690   6.315 -1.0717  0.5969 -1.1422
   15SAPS    HB 1882   5.925   6.637   6.355  2.1471  3.0458  1.7350
   15SAPS    C2 1883   6.061   6.467   6.365  0.1511  0.4117  0.4655
   15SAPS    HS 1884   6.169   6.457   6.346 -0.3707 -0.5977 -2.4030
   15SAPS   O21 1885   5.983   6.368   6.297 -0.0347 -0.4606  0.1022
   15SAPS   C21 1886   6.040   6.254   6.296  0.2029  0.4955  0.5049
   15SAPS   O22 1887   6.138   6.216   6.362 -0.2351  0.1293  0.6761
   15SAPS   C22 1888   5.966   6.164   6.198 -0.9452 -0.1022  0.4665
   15SAPS   H2R 1889   5.970   6.221   6.102 -1.3061 -0.5773  0.1646
   15SAPS   H2S 1890   6.033   6.081   6.169 -0.5308  0.8021 -1.3387
   15SAPS    C3 1891   6.033   6.461   6.524 -0.4410  0.1930 -0.0484
   15SAPS    HX 1892   5.923   6.450   6.541 -0.7955 -1.0909 -2.6322
   15SAPS    HY 1893   6.060   6.563   6.558 -0.7615  0.1401  0.3665
   15SAPS   O31 1894   6.106   6.367   6.595 -0.0841 -0.2026 -0.1236
   15SAPS   C31 1895   6.044   6.298   6.689  0.2941 -0.2133  0.1647
   15SAPS   O32 1896   5.927   6.314   6.720  0.3132  0.1373 -0.3375
   15SAPS   C32 1897   6.150   6.196   6.740  0.5834  0.1687 -0.3061
   15SAPS   H2X 1898   6.231   6.254   6.789  2.1074 -2.0892  0.0135
   15SAPS   H2Y 1899   6.205   6.155   6.653  1.0827 -1.3114  0.6672
   15SAPS   C23 1900   5.823   6.122   6.243  0.5133  0.2893  0.0427
   15SAPS   H3R 1901   5.786   6.057   6.160  0.9327  0.8095 -0.5578
   15SAPS   H3S 1902   5.767   6.216   6.260  1.7038  1.6589 -2.9871
   15SAPS   C24 1903   5.810   6.039   6.375  0.0173  0.1016 -0.5282
   15SAPS   H4R 1904   5.856   6.106   6.450  1.5855 -0.7489 -0.6855
   15SAPS   H4S 1905   5.872   5.948   6.361  0.2913  0.2531 -0.3044
   15SAPS   C25 1906   5.675   5.991   6.405 -0.2740  0.4612  0.8461
   15SAPS   H5R 1907   5.615   5.973   6.315  0.4282  0.1201  0.4320
   15SAPS   C26 1908   5.627   5.956   6.529  0.7444 -0.5525 -0.1129
   15SAPS   H6R 1909   5.524   5.919   6.538  0.6513 -0.3389 -0.3217
   15SAPS   C27 1910   5.695   5.980   6.662 -0.3644  0.0370  0.1911
   15SAPS   H7R 1911   5.625   6.048   6.716  0.4392  0.0301  1.2713
   15SAPS   H7S 1912   5.788   6.039   6.650 -1.4678  2.0878  1.2115
   15SAPS   C28 1913   5.722   5.845   6.729 -0.3850  0.2036 -0.9148
   15SAPS   H8R 1914   5.821   5.801   6.710 -0.3710  0.6209 -1.8498
   15SAPS   C29 1915   5.646   5.785   6.824 -0.5013  0.0921  0.1658
   15SAPS   H9R 1916   5.679   5.696   6.882 -2.5316 -1.2293 -0.6113
   15SAPS  C210 1917   5.516   5.839   6.875 -0.0086  0.1841 -0.6368
   15SAPS  H10R 1918   5.462   5.889   6.792  2.1721  0.6137 -1.8718
   15SAPS  H10S 1919   5.541   5.914   6.954  0.0704  0.6273 -1.0743
   15SAPS  C211 1920   5.423   5.733   6.934 -0.6274 -0.1043 -0.3008
   15SAPS  H11R 1921   5.343   5.700   6.866 -1.8288 -1.8139  1.8388
   15SAPS  C212 1922   5.432   5.683   7.057  0.0657 -0.5562 -0.2543
   15SAPS  H12R 1923   5.355   5.608   7.081  0.5819 -0.4168  2.0665
   15SAPS  C213 1924   5.518   5.725   7.178  0.2600  0.3183 -0.0369
   15SAPS  H13R 1925   5.626   5.728   7.152  0.4524  0.5521  0.7688
   15SAPS  H13S 1926   5.512   5.637   7.244  0.0742  0.9876  0.8611
   15SAPS  C214 1927   5.483   5.845   7.266  0.2321  0.2228  0.4305
   15SAPS  H14R 1928   5.413   5.911   7.212  0.9639 -1.5993 -3.0477
   15SAPS  C215 1929   5.557   5.876   7.375  0.5852 -0.9150 -0.6868
   15SAPS  H15R 1930   5.524   5.968   7.425 -1.5374 -1.2771 -1.3383
   15SAPS  C216 1931   5.678   5.813   7.437 -0.0680 -0.0152  0.2915
   15SAPS  H16R 1932   5.756   5.891   7.448  0.5678 -0.6371  0.2813
   15SAPS  H16S 1933   5.736   5.737   7.379  2.5175  0.5974  1.8719
   15SAPS  C217 1934   5.655   5.758   7.584  0.1996  0.3670 -0.1015
   15SAPS  H17R 1935   5.595   5.834   7.639  3.2995  2.5502  0.5051
   15SAPS  H17S 1936   5.743   5.739   7.648 -0.4511 -1.0096  0.4389
   15SAPS  C218 1937   5.568   5.623   7.586 -0.4279  0.1970  0.5311
   15SAPS  H18R 1938   5.612   5.548   7.517 -1.2129 -1.4010  1.7151
   15SAPS  H18S 1939   5.465   5.647   7.553 -0.8616 -0.4582  1.3852
   15SAPS  C219 1940   5.573   5.547   7.722 -0.1624  0.6202  1.0917
   15SAPS  H19R 1941   5.678   5.517   7.741 -0.1290 -0.1743 -0.2371
   15SAPS  H19S 1942   5.508   5.458   7.707 -0.1351  0.3626  2.3577
   15SAPS  C220 1943   5.517   5.617   7.840  0.7585  0.7620 -0.6185
   15SAPS  H20R 1944   5.549   5.564   7.932  2.7949 -1.5295 -2.4792
   15SAPS  H20S 1945   5.407   5.608   7.832  1.0020 -1.4058 -3.2299
   15SAPS  H20T 1946   5.547   5.724   7.847 -1.0658  1.3766 -1.6042
   15SAPS   C33 1947   6.087   6.086   6.828  0.0878  0.0030 -0.7686
   15SAPS   H3X 1948   6.167   6.012   6.846  1.5813  2.2416  3.1837
   15SAPS   H3Y 1949   6.005   6.037   6.771  1.7304  0.7689 -4.0107
   15SAPS   C34 1950   6.025   6.131   6.964 -0.5379  0.2154  1.0566
   15SAPS   H4X 1951   5.935   6.188   6.932 -0.8818 -1.1520 -0.5631
   15SAPS   H4Y 1952   6.096   6.198   7.016 -0.8128  1.7864 -0.4764
   15SAPS   C35 1953   5.984   6.020   7.063  0.8180  0.0605  0.1046
   15SAPS   H5X 1954   6.074   5.955   7.056  2.0309  1.4511  1.7492
   15SAPS   H5Y 1955   5.897   5.971   7.015  2.1692 -0.6637 -1.7100
   15SAPS   C36 1956   5.957   6.034   7.210  0.8853  0.0201 -0.8790
   15SAPS   H6X 1957   5.952   5.933   7.257 -0.6028 -1.0743 -3.1867
   15SAPS   H6Y 1958   5.860   6.087   7.221  2.0321  1.9466  0.6127
   15SAPS   C37 1959   6.066   6.111   7.290 -0.3372 -0.7692 -0.3481
   15SAPS   H7X 1960   6.057   6.211   7.242 -2.1891  0.4628  2.3306
   15SAPS   H7Y 1961   6.165   6.064   7.271 -0.2227 -0.9939  0.7330
   15SAPS   C38 1962   6.052   6.119   7.438  0.4745 -0.1540 -0.4496
   15SAPS   H8X 1963   6.127   6.197   7.464  0.1605 -0.2899  0.9800
   15SAPS   H8Y 1964   6.077   6.030   7.500  2.2725  0.2680 -0.5028
   15SAPS   C39 1965   5.913   6.169   7.483 -0.6726  0.2821  0.2123
   15SAPS   H9X 1966   5.845   6.088   7.450 -0.6824  0.2890  0.2149
   15SAPS   H9Y 1967   5.882   6.264   7.434 -2.3041  1.2988  2.9840
   15SAPS  C310 1968   5.909   6.188   7.633 -0.1615 -0.2183 -0.9666
   15SAPS  H10X 1969   5.995   6.249   7.668 -0.9467  0.2432  0.2164
   15SAPS  H10Y 1970   5.925   6.092   7.686  0.9126 -0.8272 -2.3315
   15SAPS  C311 1971   5.782   6.263   7.671  0.0635  0.3527 -0.4741
   15SAPS  H11X 1972   5.691   6.203   7.644  0.7578 -0.6813 -0.5792
   15SAPS  H11Y 1973   5.779   6.361   7.619 -2.1938  0.3923 -0.3792
   15SAPS  C312 1974   5.763   6.281   7.824 -0.0862  0.0459  0.4242
   15SAPS  H12X 1975   5.760   6.184   7.877  1.9177  1.1125  2.6612
   15SAPS  H12Y 1976   5.669   6.339   7.835  0.1492  0.3550  0.8288
   15SAPS  C313 1977   5.884   6.359   7.886 -0.3901 -0.8329  0.0277
   15SAPS  H13X 1978   5.879   6.451   7.824 -0.1044  0.3446  1.6783
   15SAPS  H13Y 1979   5.982   6.307   7.888  1.0181  1.6618  1.7381
   15SAPS  C314 1980   5.846   6.405   8.029 -0.1481 -0.6951  0.4639
   15SAPS  H14X 1981   5.754   6.467   8.030 -1.1862 -2.1457 -0.6606
   15SAPS  H14Y 1982   5.923   6.474   8.070 -1.5328  0.9998  0.3540
   15SAPS  C315 1983   5.830   6.293   8.137  0.1768 -0.5537  0.3076
   15SAPS  H15X 1984   5.910   6.302   8.212 -0.4374  1.9840  0.7485
   15SAPS  H15Y 1985   5.835   6.202   8.073  0.6024  0.6404 -1.4304
   15SAPS  C316 1986   5.709   6.300   8.226 -0.2392 -0.0024  0.5441
   15SAPS  H16X 1987   5.705   6.404   8.263 -0.5638  0.6554 -1.2400
   15SAPS  H16Y 1988   5.720   6.226   8.308  0.7173 -0.5489 -0.0523
   15SAPS  C317 1989   5.569   6.273   8.160 -0.0372  0.6206  0.2513
   15SAPS  H17X 1990   5.566   6.346   8.077  0.3894  0.2305 -0.1156
   15SAPS  H17Y 1991   5.492   6.297   8.236  1.5883  2.7076  1.3642
   15SAPS  C318 1992   5.541   6.132   8.112 -0.2474  0.3151  0.3594
   15SAPS  H18X 1993   5.564   6.061   8.195  1.4075  2.0933  1.4990
   15SAPS  H18Y 1994   5.583   6.111   8.011  0.6905  3.0215  0.1058
   15SAPS  H18Z 1995   5.431   6.137   8.094 -0.6321 -1.1355  2.0390
   16SAPS     N 1996   3.197   0.169   6.467  0.6679  0.2558 -0.2401
   16SAPS   HN1 1997   3.262   0.109   6.522 -1.6518 -2.3036 -0.0784
   16SAPS   HN2 1998   3.129   0.206   6.536  2.1219  2.8574 -0.0666
   16SAPS   HN3 1999   3.144   0.106   6.404 -0.7697 -0.0607  1.2185
   16SAPS   C12 2000   3.280   0.280   6.412 -0.2908 -0.4318  0.0788
   16SAPS  H12A 2001   3.363   0.243   6.353  0.0145 -0.2074  0.3598
   16SAPS   C13 2002   3.218   0.402   6.342  0.1870  0.3919  0.2729
   16SAPS  O13A 2003   3.091   0.418   6.351  0.2025 -0.0284  0.3365
   16SAPS  O13B 2004   3.296   0.474   6.279 -0.2048  0.1169  0.1501
   16SAPS   C11 2005   3.360   0.347   6.530 -0.5961  0.2900  0.3289
   16SAPS  H11A 2006   3.283   0.378   6.604  0.1866 -1.4042  1.9309
   16SAPS  H11B 2007   3.412   0.437   6.492 -1.3554  0.5718 -0.0604
   16SAPS     P 2008   3.539   0.263   6.726  0.1572 -0.2639 -0.1773
   16SAPS   O13 2009   3.558   0.127   6.771 -0.4347 -0.3746  0.5839
   16SAPS   O14 2010   3.658   0.340   6.699 -0.4236 -0.5507 -0.1738
   16SAPS   O12 2011   3.446   0.255   6.597 -0.2233 -0.2025  0.1207
   16SAPS   O11 2012   3.448   0.336   6.830 -0.0125  0.0423  0.0463
   16SAPS    C1 2013   3.321   0.300   6.865  0.1633  0.3908 -0.4415
   16SAPS    HA 2014   3.258   0.392   6.865 -0.7577 -0.1913  1.0501
   16SAPS    HB 2015   3.280   0.229   6.790 -1.3114 -0.3596  1.0059
   16SAPS    C2 2016   3.310   0.235   7.005 -0.6492 -0.0855  0.1025
   16SAPS    HS 2017   3.206   0.198   7.020 -0.0220 -2.0944 -0.2137
   16SAPS   O21 2018   3.350   0.332   7.101  0.1259 -0.1840  0.0839
   16SAPS   C21 2019   3.261   0.418   7.143  0.3255  0.1931 -0.0619
   16SAPS   O22 2020   3.151   0.430   7.095  0.5965 -0.1701  0.7594
   16SAPS   C22 2021   3.302   0.500   7.271  0.4786 -0.7344  0.1794
   16SAPS   H2R 2022   3.413   0.505   7.275  0.4132  0.8864  0.8112
   16SAPS   H2S 2023   3.270   0.604   7.248 -0.6833 -0.4657  2.6506
   16SAPS    C3 2024   3.394   0.106   7.018  0.2829  0.1069 -0.0726
   16SAPS    HX 2025   3.500   0.131   7.000  0.4364 -0.7790 -0.4251
   16SAPS    HY 2026   3.357   0.026   6.951 -0.9936 -2.3480  3.2681
   16SAPS   O31 2027   3.374   0.063   7.157 -0.0808 -0.3126  0.1796
   16SAPS   C31 2028   3.455  -0.036   7.186 -0.5539  1.0869  0.5213
   16SAPS   O32 2029   3.522  -0.111   7.116  0.1177 -0.5592  0.2166
   16SAPS   C32 2030   3.475  -0.040   7.341 -0.1984  0.6942  0.0404
   16SAPS   H2X 2031   3.373  -0.035   7.385 -1.4060  0.5579 -2.5865
   16SAPS   H2Y 2032   3.529   0.052   7.371  0.2911  0.8799 -1.3545
   16SAPS   C23 2033   3.239   0.443   7.400  0.1914  0.7485  0.6249
   16SAPS   H3R 2034   3.135   0.428   7.365  0.9270 -2.9996 -0.4520
   16SAPS   H3S 2035   3.257   0.521   7.477  0.5343  0.3161  0.9956
   16SAPS   C24 2036   3.315   0.311   7.431  0.6371 -0.1200  0.7502
   16SAPS   H4R 2037   3.417   0.333   7.468  0.2138 -0.2100  2.0228
   16SAPS   H4S 2038   3.319   0.241   7.344  1.4622  0.7258  0.0796
   16SAPS   C25 2039   3.228   0.252   7.545 -0.0398 -0.0544 -0.4750
   16SAPS   H5R 2040   3.122   0.242   7.518  0.0083 -0.2251 -0.5974
   16SAPS   C26 2041   3.279   0.225   7.669 -0.5886 -0.3281  0.8518
   16SAPS   H6R 2042   3.212   0.203   7.753 -0.4594 -0.3254  0.9560
   16SAPS   C27 2043   3.421   0.238   7.722 -0.1321 -0.9477 -0.1006
   16SAPS   H7R 2044   3.493   0.272   7.644  2.0843 -2.3773  1.2099
   16SAPS   H7S 2045   3.472   0.140   7.738 -1.2027 -1.3427  0.9911
   16SAPS   C28 2046   3.426   0.345   7.831 -0.2258 -0.4868 -0.4954
   16SAPS   H8R 2047   3.331   0.397   7.852  0.3406 -0.0269  1.1133
   16SAPS   C29 2048   3.528   0.382   7.916 -0.3343 -0.3011  0.5763
   16SAPS   H9R 2049   3.509   0.460   7.992 -1.8379 -1.0569  1.0175
   16SAPS  C210 2050   3.666   0.316   7.909 -0.5173  0.6573 -0.4553
   16SAPS  H10R 2051   3.744   0.385   7.871  1.8205 -1.6977 -0.2238
   16SAPS  H10S 2052   3.666   0.241   7.827  0.4120 -0.1652  0.2713
   16SAPS  C211 2053   3.705   0.260   8.044 -0.0243 -0.1805 -0.5784
   16SAPS  H11R 2054   3.725   0.153   8.059  0.3850 -0.1108 -0.6109
   16SAPS  C212 2055   3.745   0.335   8.152 -0.0281 -0.3092  0.5742
   16SAPS  H12R 2056   3.762   0.275   8.242 -1.7186 -2.8506 -0.6936
   16SAPS  C213 2057   3.754   0.488   8.166 -0.1822  0.0613  0.2258
   16SAPS  H13R 2058   3.683   0.513   8.248 -0.7507 -2.1712  0.4688
   16SAPS  H13S 2059   3.708   0.534   8.076  0.8152 -2.2252 -1.5714
   16SAPS  C214 2060   3.900   0.518   8.176 -0.9645  0.7626  0.6517
   16SAPS  H14R 2061   3.965   0.495   8.090  1.0738 -1.7258  2.6696
   16SAPS  C215 2062   3.961   0.567   8.286 -0.3233  0.0541 -0.2574
   16SAPS  H15R 2063   4.070   0.564   8.290 -0.3606 -3.1503  0.9884
   16SAPS  C216 2064   3.890   0.592   8.415 -0.8654  0.6755  0.0926
   16SAPS  H16R 2065   3.911   0.498   8.472 -0.1042  0.9445  0.2721
   16SAPS  H16S 2066   3.780   0.597   8.404 -0.8210 -0.0206 -0.7184
   16SAPS  C217 2067   3.948   0.710   8.494 -0.0470  0.3652 -0.5234
   16SAPS  H17R 2068   3.885   0.735   8.582 -0.6530 -1.3548 -0.4403
   16SAPS  H17S 2069   3.959   0.799   8.428  1.8783  0.5960  0.0447
   16SAPS  C218 2070   4.093   0.692   8.559  0.1352 -1.1859  0.7119
   16SAPS  H18R 2071   4.159   0.665   8.474 -0.6800  0.7071 -0.5791
   16SAPS  H18S 2072   4.090   0.608   8.632  0.6921 -0.3563  1.7110
   16SAPS  C219 2073   4.146   0.825   8.628  0.9701 -0.0830  0.4073
   16SAPS  H19R 2074   4.060   0.887   8.662 -0.2990 -2.4580  1.7992
   16SAPS  H19S 2075   4.194   0.874   8.541 -1.6083  2.0989  0.0904
   16SAPS  C220 2076   4.232   0.793   8.751  0.0243  0.3458 -0.0367
   16SAPS  H20R 2077   4.169   0.754   8.834 -0.7884  0.6377 -0.5133
   16SAPS  H20S 2078   4.272   0.886   8.797  2.1706 -0.0051 -1.0600
   16SAPS  H20T 2079   4.315   0.726   8.720 -0.1627 -0.0933  0.3868
   16SAPS   C33 2080   3.539  -0.178   7.381 -0.1548 -0.0503 -0.2955
   16SAPS   H3X 2081   3.643  -0.159   7.347  0.0892 -0.5160  0.1776
   16SAPS   H3Y 2082   3.489  -0.260   7.326 -0.5168 -1.4845  2.0011
   16SAPS   C34 2083   3.531  -0.223   7.534  0.1159 -0.1978  0.1954
   16SAPS   H4X 2084   3.585  -0.151   7.600  1.1360 -1.2955  0.5880
   16SAPS   H4Y 2085   3.582  -0.321   7.537 -0.5625 -0.6145 -1.0564
   16SAPS   C35 2086   3.389  -0.229   7.586  0.2485  0.2857 -0.2344
   16SAPS   H5X 2087   3.323  -0.299   7.529 -0.0875  2.0425 -2.1206
   16SAPS   H5Y 2088   3.346  -0.127   7.585  1.8552  0.9905 -1.4639
   16SAPS   C36 2089   3.395  -0.263   7.737 -0.9094 -0.1639 -0.7645
   16SAPS   H6X 2090   3.466  -0.347   7.751 -2.0096 -0.8369  1.1788
   16SAPS   H6Y 2091   3.295  -0.294   7.775 -1.2097  0.7735 -0.7506
   16SAPS   C37 2092   3.438  -0.143   7.823 -0.2172 -0.3101 -0.1368
   16SAPS   H7X 2093   3.364  -0.063   7.800 -1.5569 -1.3154  0.5378
   16SAPS   H7Y 2094   3.540  -0.115   7.791 -0.9417  0.2360 -2.1438
   16SAPS   C38 2095   3.428  -0.154   7.977  0.5452 -0.4963  0.4129
   16SAPS   H8X 2096   3.505  -0.229   8.004  0.6434 -0.2042  0.9711
   16SAPS   H8Y 2097   3.325  -0.189   7.999 -0.3123  2.1006  0.9573
   16SAPS   C39 2098   3.453  -0.017   8.045 -0.4577 -0.3819 -0.2795
   16SAPS   H9X 2099   3.531   0.036   7.985  0.2125  0.2505  1.1169
   16SAPS   H9Y 2100   3.485  -0.037   8.149 -0.3025 -2.0663 -0.6240
   16SAPS  C310 2101   3.323   0.069   8.063  1.0298 -0.1501 -0.0892
   16SAPS  H10X 2102   3.238  -0.002   8.076 -0.0840  1.2861  0.9785
   16SAPS  H10Y 2103   3.308   0.125   7.968 -4.0858 -1.3304 -0.2891
   16SAPS  C311 2104   3.335   0.164   8.180  0.3652 -0.0603 -0.3851
   16SAPS  H11X 2105   3.428   0.223   8.165 -0.1790  1.3202  1.3799
   16SAPS  H11Y 2106   3.349   0.111   8.276 -0.1875  1.6368  0.6743
   16SAPS  C312 2107   3.220   0.270   8.197 -0.3396  0.2581  0.0467
   16SAPS  H12X 2108   3.123   0.216   8.192  0.6281 -1.6379  0.5293
   16SAPS  H12Y 2109   3.218   0.340   8.111 -1.6694 -0.2732 -0.3867
   16SAPS  C313 2110   3.218   0.352   8.329 -0.0651 -0.2172  0.5303
   16SAPS  H13X 2111   3.316   0.405   8.337  0.9897 -2.1058  0.8016
   16SAPS  H13Y 2112   3.209   0.272   8.405 -2.8639 -1.9834 -1.4918
   16SAPS  C314 2113   3.108   0.451   8.335 -0.6715 -0.2410  0.4679
   16SAPS  H14X 2114   3.117   0.518   8.246 -2.1127  1.3465  1.4673
   16SAPS  H14Y 2115   3.122   0.505   8.430  3.7275  0.6090 -0.4423
   16SAPS  C315 2116   2.969   0.392   8.344  0.7499 -0.0962 -0.0457
   16SAPS  H15X 2117   2.939   0.347   8.440 -0.3016 -3.6134 -1.8536
   16SAPS  H15Y 2118   2.956   0.316   8.264 -0.9255  1.2016 -1.1087
   16SAPS  C316 2119   2.858   0.497   8.311  0.2137  0.2856 -0.2994
   16SAPS  H16X 2120   2.760   0.445   8.315  1.5041 -2.4330 -1.4499
   16SAPS  H16Y 2121   2.866   0.524   8.203 -1.4398  3.1872  0.1866
   16SAPS  C317 2122   2.861   0.634   8.391 -0.2648  0.1884 -0.0355
   16SAPS  H17X 2123   2.949   0.695   8.361 -0.0693  0.4214  0.9905
   16SAPS  H17Y 2124   2.863   0.627   8.502  0.7187 -0.3773 -0.0825
   16SAPS  C318 2125   2.742   0.725   8.363  0.1597  0.2631 -0.4712
   16SAPS  H18X 2126   2.740   0.754   8.256 -2.9913 -0.0778 -0.6056
   16SAPS  H18Y 2127   2.741   0.814   8.429 -1.0802  1.4818 -2.0392
   16SAPS  H18Z 2128   2.643   0.675   8.373  0.0508  0.5230 -0.2137
   17SAPC     N 2129   2.394   1.871  10.780  0.4006  0.4930  0.1565
   17SAPC   C12 2130   2.379   1.930  10.638  0.5174  0.0590  0.4912
   17SAPC  H12A 2131   2.356   2.036  10.644 -2.0154 -0.3442 -0.7483
   17SAPC  H12B 2132   2.286   1.886  10.603  1.1516 -1.0767  0.1971
   17SAPC   C13 2133   2.347   1.970  10.884  0.1149  0.0252  0.1132
   17SAPC  H13A 2134   2.414   2.054  10.897  0.6780  0.0207 -2.2390
   17SAPC  H13B 2135   2.249   2.012  10.868  0.8326  1.3338 -1.0992
   17SAPC  H13C 2136   2.350   1.915  10.976  0.3027 -1.2610 -0.6317
   17SAPC   C14 2137   2.335   1.734  10.803 -0.0163 -0.1531 -0.5785
   17SAPC  H14A 2138   2.342   1.699  10.905 -0.3521 -1.6586 -1.0517
   17SAPC  H14B 2139   2.233   1.736  10.767 -0.7947  3.6127  1.3242
   17SAPC  H14C 2140   2.397   1.667  10.745 -0.4359 -1.3661  0.3483
   17SAPC   C15 2141   2.547   1.845  10.794  0.0599 -0.0534 -0.6710
   17SAPC  H15A 2142   2.560   1.798  10.890 -0.5607 -1.9468 -1.4734
   17SAPC  H15B 2143   2.594   1.778  10.724  2.6383 -1.2205  1.9813
   17SAPC  H15C 2144   2.591   1.943  10.801 -0.3194  0.2032 -1.7569
   17SAPC   C11 2145   2.485   1.893  10.532  0.2337 -0.2288 -0.1286
   17SAPC  H11A 2146   2.588   1.930  10.555 -0.3163  0.6849  1.0039
   17SAPC  H11B 2147   2.456   1.946  10.439 -3.2993  0.4495  1.2133
   17SAPC     P 2148   2.359   1.686  10.439 -0.0134  0.3122  0.0191
   17SAPC   O13 2149   2.338   1.555  10.505 -0.2930 -0.1394  0.0204
   17SAPC   O14 2150   2.237   1.769  10.431 -0.0551 -0.1528  0.1126
   17SAPC   O12 2151   2.479   1.754  10.516  0.7652 -0.2385  0.3360
   17SAPC   O11 2152   2.409   1.658  10.293 -0.2114 -0.2957 -0.5232
   17SAPC    C1 2153   2.512   1.569  10.269 -0.7697  0.0587  0.5403
   17SAPC    HA 2154   2.510   1.475  10.329 -0.6255 -0.3223 -0.0493
   17SAPC    HB 2155   2.518   1.535  10.164  1.9633  0.0087  0.6252
   17SAPC    C2 2156   2.655   1.633  10.283 -0.0673 -0.2089 -0.3535
   17SAPC    HS 2157   2.663   1.672  10.387  2.7677 -0.6896 -0.3031
   17SAPC   O21 2158   2.679   1.750  10.194  0.0967  0.3779 -0.2666
   17SAPC   C21 2159   2.786   1.824  10.237 -1.1439 -0.0066 -0.2017
   17SAPC   O22 2160   2.834   1.816  10.348 -0.0921 -0.1982 -0.1820
   17SAPC   C22 2161   2.850   1.905  10.128 -0.2969  0.3100  0.2194
   17SAPC   H2R 2162   2.930   1.834  10.094 -0.5797 -1.0796  2.3034
   17SAPC   H2S 2163   2.782   1.931  10.044  0.7720  2.1844 -0.1354
   17SAPC    C3 2164   2.770   1.525  10.257  0.3596 -0.4266  0.4361
   17SAPC    HX 2165   2.756   1.446  10.333  0.0089 -1.0053 -0.2188
   17SAPC    HY 2166   2.868   1.573  10.278 -0.4924  0.4551  2.7793
   17SAPC   O31 2167   2.755   1.466  10.127 -0.0435 -0.2184 -0.1000
   17SAPC   C31 2168   2.831   1.516  10.029  0.5787 -0.9191 -1.1441
   17SAPC   O32 2169   2.918   1.600  10.043  0.4631 -0.1009  0.5191
   17SAPC   C32 2170   2.807   1.438   9.898  0.7192 -0.3017  0.4838
   17SAPC   H2X 2171   2.698   1.418   9.903  0.5784 -0.0878 -1.1061
   17SAPC   H2Y 2172   2.855   1.340   9.917 -2.4343 -1.8644  1.1581
   17SAPC   C23 2173   2.924   2.031  10.177 -0.6268  0.8435  0.0509
   17SAPC   H3R 2174   3.006   2.015  10.250 -1.1819  1.1796  0.7720
   17SAPC   H3S 2175   2.845   2.097  10.220 -1.1198  0.9611 -1.0103
   17SAPC   C24 2176   2.974   2.116  10.056 -0.2042 -1.0579  0.8459
   17SAPC   H4R 2177   3.020   2.210  10.094 -2.7720  0.1270  1.2482
   17SAPC   H4S 2178   2.877   2.151  10.015 -0.2753 -0.5261  1.4425
   17SAPC   C25 2179   3.055   2.061   9.949  0.5355 -0.4474 -0.0128
   17SAPC   H5R 2180   3.162   2.059   9.975  0.4639  1.2701  0.5888
   17SAPC   C26 2181   3.006   2.031   9.824 -0.3569 -0.1988 -0.5862
   17SAPC   H6R 2182   3.076   1.996   9.747  0.2610  1.2916 -0.7358
   17SAPC   C27 2183   2.862   2.040   9.777 -0.1538  0.0065  0.3498
   17SAPC   H7R 2184   2.788   2.034   9.860 -0.2449  2.1429  0.4758
   17SAPC   H7S 2185   2.856   1.956   9.706  1.9104 -0.0899  0.2322
   17SAPC   C28 2186   2.840   2.178   9.712  0.0607  0.6411 -0.0951
   17SAPC   H8R 2187   2.813   2.254   9.786 -2.7680  1.6626 -2.0184
   17SAPC   C29 2188   2.862   2.215   9.587 -0.4406 -0.2945  0.4038
   17SAPC   H9R 2189   2.835   2.314   9.548  1.3078  0.0520 -0.0197
   17SAPC  C210 2190   2.922   2.123   9.478  0.3246  0.0341  0.0826
   17SAPC  H10R 2191   2.980   2.045   9.532 -2.3849 -0.7704  2.0412
   17SAPC  H10S 2192   2.991   2.187   9.419  1.3934 -1.4950 -0.4036
   17SAPC  C211 2193   2.808   2.063   9.397  0.0061  0.6132  0.2336
   17SAPC  H11R 2194   2.754   1.978   9.442 -1.7862  1.5304 -0.0787
   17SAPC  C212 2195   2.763   2.096   9.275  0.0291  0.0074 -0.9051
   17SAPC  H12R 2196   2.698   2.027   9.219 -0.3403 -0.1109 -0.3432
   17SAPC  C213 2197   2.815   2.209   9.197  0.3074  0.6534  0.4509
   17SAPC  H13R 2198   2.915   2.182   9.156 -0.7837 -1.4703 -1.0247
   17SAPC  H13S 2199   2.838   2.296   9.262  4.2655 -0.4245  0.7347
   17SAPC  C214 2200   2.729   2.254   9.085 -0.5605 -0.1133  0.0138
   17SAPC  H14R 2201   2.680   2.353   9.087 -0.8684 -0.2758  0.9861
   17SAPC  C215 2202   2.720   2.188   8.970 -0.3220 -0.6328 -0.2180
   17SAPC  H15R 2203   2.671   2.242   8.889  1.8228  0.4233 -0.8727
   17SAPC  C216 2204   2.786   2.055   8.931 -0.0745  0.6258 -0.3857
   17SAPC  H16R 2205   2.736   1.963   8.969 -0.4642  0.4869 -1.2118
   17SAPC  H16S 2206   2.893   2.049   8.963  0.0083  3.7758  0.1952
   17SAPC  C217 2207   2.778   2.040   8.779 -0.4940  0.0594 -0.1236
   17SAPC  H17R 2208   2.669   2.037   8.756 -0.7048 -2.6186  0.8648
   17SAPC  H17S 2209   2.812   1.936   8.761  1.4017  0.3687  1.3419
   17SAPC  C218 2210   2.862   2.125   8.686 -0.5874 -0.0058  0.4801
   17SAPC  H18R 2211   2.836   2.231   8.665 -1.1180 -0.1312  0.4866
   17SAPC  H18S 2212   2.849   2.078   8.586  1.7385  0.5397 -0.1321
   17SAPC  C219 2213   3.015   2.125   8.712  0.4447 -0.2078 -0.3071
   17SAPC  H19R 2214   3.043   2.182   8.803 -1.3704  0.3312 -0.0556
   17SAPC  H19S 2215   3.066   2.183   8.633  1.9469 -2.6149 -1.2047
   17SAPC  C220 2216   3.080   1.988   8.722 -0.5094 -0.2167 -0.3329
   17SAPC  H20R 2217   3.041   1.940   8.814 -2.2966 -0.9378 -1.4223
   17SAPC  H20S 2218   3.191   1.991   8.733 -0.5354 -0.2438 -0.0606
   17SAPC  H20T 2219   3.060   1.929   8.629  1.3097 -1.6342  0.1064
   17SAPC   C33 2220   2.854   1.515   9.770 -0.1488 -0.5354 -0.2281
   17SAPC   H3X 2221   2.839   1.447   9.683 -4.4049  0.7233 -0.7185
   17SAPC   H3Y 2222   2.960   1.540   9.790  0.0219  0.0052 -1.6996
   17SAPC   C34 2223   2.771   1.641   9.727  0.2438 -0.2104 -0.0969
   17SAPC   H4X 2224   2.806   1.718   9.798  0.6007 -0.4847  0.0277
   17SAPC   H4Y 2225   2.660   1.636   9.732  0.2279  0.2262  0.0372
   17SAPC   C35 2226   2.804   1.685   9.584  0.0482 -0.4524  0.2219
   17SAPC   H5X 2227   2.914   1.671   9.581  0.1081 -0.8038  2.6026
   17SAPC   H5Y 2228   2.790   1.794   9.574  2.0989 -0.2382 -0.9728
   17SAPC   C36 2229   2.732   1.603   9.479 -0.1268 -0.5021 -0.2274
   17SAPC   H6X 2230   2.623   1.607   9.500  0.4729  0.1592  3.4211
   17SAPC   H6Y 2231   2.764   1.497   9.490  1.2061  0.0024  1.0272
   17SAPC   C37 2232   2.767   1.646   9.337 -0.0985  0.1244  0.4001
   17SAPC   H7X 2233   2.876   1.634   9.318  0.1005  0.0790  1.5049
   17SAPC   H7Y 2234   2.737   1.752   9.323  2.0673  0.7429  0.2154
   17SAPC   C38 2235   2.696   1.561   9.235 -0.7948  0.7390  0.2885
   17SAPC   H8X 2236   2.587   1.566   9.260 -0.6439  1.3254  0.8495
   17SAPC   H8Y 2237   2.735   1.457   9.242  0.7368  1.3318  0.9705
   17SAPC   C39 2238   2.716   1.623   9.096 -0.1843 -0.6043  0.3732
   17SAPC   H9X 2239   2.821   1.657   9.085 -0.3637 -0.4473 -0.9936
   17SAPC   H9Y 2240   2.650   1.712   9.087 -0.6902 -1.0420 -0.2604
   17SAPC  C310 2241   2.675   1.538   8.979  0.5752 -0.5235 -0.6307
   17SAPC  H10X 2242   2.576   1.492   9.001  1.4213 -1.2433  2.1555
   17SAPC  H10Y 2243   2.748   1.454   8.972  2.2886  1.0357 -2.3697
   17SAPC  C311 2244   2.659   1.627   8.851  0.1224  0.1343  0.3352
   17SAPC  H11X 2245   2.665   1.550   8.770  1.6268 -1.1522  1.5991
   17SAPC  H11Y 2246   2.736   1.706   8.854  1.8188 -1.4524  0.4075
   17SAPC  C312 2247   2.517   1.681   8.838  0.0928  0.4852 -0.0754
   17SAPC  H12X 2248   2.506   1.742   8.930 -1.4462  0.4312 -0.2060
   17SAPC  H12Y 2249   2.452   1.591   8.843 -0.5059  0.8124 -1.5041
   17SAPC  C313 2250   2.485   1.777   8.722  0.7486  0.3712  0.9202
   17SAPC  H13X 2251   2.583   1.821   8.691  1.6886 -1.9856  0.3793
   17SAPC  H13Y 2252   2.412   1.856   8.747 -0.6474  0.3129 -2.3880
   17SAPC  C314 2253   2.437   1.705   8.594 -0.2928 -0.4606  0.2744
   17SAPC  H14X 2254   2.342   1.653   8.618 -0.0232 -1.4014 -0.6419
   17SAPC  H14Y 2255   2.498   1.621   8.555 -1.9416 -0.7000 -1.9894
   17SAPC  C315 2256   2.426   1.799   8.484 -0.1768  0.0607  0.4345
   17SAPC  H15X 2257   2.529   1.832   8.455 -0.8131 -0.1241 -2.3873
   17SAPC  H15Y 2258   2.369   1.885   8.524 -0.0244 -0.2947  1.4405
   17SAPC  C316 2259   2.357   1.756   8.354 -0.2530  0.3015 -0.7705
   17SAPC  H16X 2260   2.260   1.719   8.393 -0.7102  0.0200 -2.1364
   17SAPC  H16Y 2261   2.426   1.676   8.320  0.4481 -0.6762  2.5764
   17SAPC  C317 2262   2.330   1.875   8.256  0.1059 -0.1821 -0.3511
   17SAPC  H17X 2263   2.424   1.933   8.247  0.7275 -0.8017  1.5246
   17SAPC  H17Y 2264   2.259   1.950   8.297 -0.3943 -0.6594 -0.3402
   17SAPC  C318 2265   2.272   1.822   8.123  0.2481  0.1295  0.6699
   17SAPC  H18X 2266   2.185   1.754   8.134 -1.6684  1.8991 -2.2239
   17SAPC  H18Y 2267   2.230   1.910   8.069  0.8465  1.1708  1.8452
   17SAPC  H18Z 2268   2.355   1.790   8.056  1.2390  0.9624  1.4514
   18SAPC     N 2269   1.742   1.861  10.918 -0.8263 -0.1622  0.8130
   18SAPC   C12 2270   1.887   1.887  10.871  0.1910 -0.4717  0.4371
   18SAPC  H12A 2271   1.945   1.796  10.874  2.2954  0.7213 -0.8266
   18SAPC  H12B 2272   1.934   1.957  10.939 -0.1440  2.3750 -2.0258
   18SAPC   C13 2273   1.669   1.995  10.930 -0.8145 -0.5309 -0.1141
   18SAPC  H13A 2274   1.731   2.064  10.985 -3.4075  0.8825  1.2309
   18SAPC  H13B 2275   1.654   2.043  10.834 -0.0842 -1.9122 -0.9487
   18SAPC  H13C 2276   1.575   1.984  10.981  0.0511 -0.1190  1.6262
   18SAPC   C14 2277   1.666   1.767  10.833  0.0080  0.7956  0.3036
   18SAPC  H14A 2278   1.572   1.749  10.884  1.0198 -1.2569  1.5508
   18SAPC  H14B 2279   1.635   1.817  10.742 -1.5970 -2.7089 -1.2832
   18SAPC  H14C 2280   1.713   1.671  10.821  0.8277  1.1522  0.6106
   18SAPC   C15 2281   1.739   1.808  11.054 -0.5936  0.0206  0.0170
   18SAPC  H15A 2282   1.772   1.706  11.042  1.1265  0.3688  1.3527
   18SAPC  H15B 2283   1.814   1.852  11.118 -0.9498  0.2099  0.3092
   18SAPC  H15C 2284   1.637   1.798  11.087 -0.5279  1.8773  0.9038
   18SAPC   C11 2285   1.899   1.950  10.722 -0.1333  1.0122 -0.3128
   18SAPC  H11A 2286   1.824   1.893  10.662 -0.8612  2.3133 -0.6861
   18SAPC  H11B 2287   1.999   1.933  10.678 -0.9763 -3.5202 -1.0373
   18SAPC     P 2288   1.971   2.198  10.743  0.0784 -0.2944  0.2047
   18SAPC   O13 2289   1.913   2.332  10.718  0.1554  0.3789 -0.2631
   18SAPC   O14 2290   2.043   2.182  10.874 -0.3706  0.7641  0.1151
   18SAPC   O12 2291   1.857   2.088  10.738  0.7730  0.0198 -0.3520
   18SAPC   O11 2292   2.069   2.158  10.619 -0.0451  0.1827 -0.9221
   18SAPC    C1 2293   2.029   2.170  10.483 -0.4695 -0.3542 -0.7046
   18SAPC    HA 2294   1.967   2.080  10.462  0.1494 -0.9801  0.0547
   18SAPC    HB 2295   1.969   2.262  10.473  0.4969  0.1829 -1.8247
   18SAPC    C2 2296   2.147   2.180  10.393 -0.7858 -0.7166  0.0902
   18SAPC    HS 2297   2.231   2.163  10.464 -1.1872 -1.5539  0.3785
   18SAPC   O21 2298   2.159   2.315  10.345  0.0257  0.0999  0.1139
   18SAPC   C21 2299   2.276   2.364  10.309 -0.6031 -0.6574  0.0704
   18SAPC   O22 2300   2.378   2.301  10.313 -0.2917 -0.8369  0.1168
   18SAPC   C22 2301   2.253   2.511  10.278  0.0729 -0.1994  0.0801
   18SAPC   H2R 2302   2.190   2.506  10.187  1.2660  0.6358 -0.8204
   18SAPC   H2S 2303   2.206   2.559  10.367 -1.3876  0.1187 -0.8294
   18SAPC    C3 2304   2.157   2.076  10.281 -0.1629  0.0042 -0.4317
   18SAPC    HX 2305   2.186   1.978  10.324 -0.2687 -0.0046 -0.3808
   18SAPC    HY 2306   2.244   2.101  10.216  0.1851  0.0859  0.0610
   18SAPC   O31 2307   2.028   2.069  10.218  0.0183  0.2743  0.0927
   18SAPC   C31 2308   2.010   2.150  10.117 -0.2809  0.8301  0.6359
   18SAPC   O32 2309   2.084   2.240  10.084 -0.5823 -0.1227  0.4704
   18SAPC   C32 2310   1.872   2.111  10.050  0.1930 -0.4670  0.4786
   18SAPC   H2X 2311   1.804   2.198  10.045 -0.2115 -0.7996  0.0647
   18SAPC   H2Y 2312   1.817   2.034  10.108 -2.3696  0.8419 -0.0696
   18SAPC   C23 2313   2.384   2.585  10.229  0.1830 -0.2362 -0.5589
   18SAPC   H3R 2314   2.467   2.552  10.295  0.0505  0.8084  0.1653
   18SAPC   H3S 2315   2.368   2.695  10.242  2.7942  0.4687 -2.6382
   18SAPC   C24 2316   2.432   2.565  10.084 -0.2297  0.5434  0.1745
   18SAPC   H4R 2317   2.469   2.461  10.073 -3.1950 -0.7353  1.0587
   18SAPC   H4S 2318   2.519   2.633  10.072  1.4277 -0.7315  3.4742
   18SAPC   C25 2319   2.318   2.605   9.986 -0.2807  0.0708 -0.1718
   18SAPC   H5R 2320   2.258   2.695  10.005 -0.8435 -0.7255  2.1088
   18SAPC   C26 2321   2.268   2.531   9.885 -0.7334  0.0701 -0.1746
   18SAPC   H6R 2322   2.174   2.571   9.843 -0.3659  1.1916  0.0369
   18SAPC   C27 2323   2.312   2.396   9.837  0.0579  0.5408  0.2759
   18SAPC   H7R 2324   2.236   2.335   9.783 -0.5851  2.2858 -0.8808
   18SAPC   H7S 2325   2.344   2.332   9.922  1.0880 -1.9352 -1.8262
   18SAPC   C28 2326   2.437   2.394   9.747 -0.1353  0.5739  0.1738
   18SAPC   H8R 2327   2.528   2.371   9.805 -0.1980  0.7644  0.3455
   18SAPC   C29 2328   2.450   2.423   9.617  0.2707 -0.6432  0.2715
   18SAPC   H9R 2329   2.544   2.406   9.562 -0.2815 -0.7240 -0.6709
   18SAPC  C210 2330   2.340   2.488   9.522 -0.2680  0.5533 -0.1575
   18SAPC  H10R 2331   2.373   2.581   9.469  0.6208 -0.8133 -2.1268
   18SAPC  H10S 2332   2.252   2.510   9.586  0.0879 -1.5900  1.1503
   18SAPC  C211 2333   2.301   2.398   9.406  0.5393  0.4089  0.0351
   18SAPC  H11R 2334   2.238   2.313   9.437  0.9775 -0.4776 -1.4154
   18SAPC  C212 2335   2.324   2.418   9.274 -0.5133  0.1957 -0.2693
   18SAPC  H12R 2336   2.281   2.340   9.208 -1.2187 -1.0801  1.6107
   18SAPC  C213 2337   2.419   2.529   9.220 -0.4293 -0.0075  0.0034
   18SAPC  H13R 2338   2.370   2.628   9.229 -1.2853 -0.2642 -1.4075
   18SAPC  H13S 2339   2.413   2.500   9.113 -3.3472  0.3653 -0.0162
   18SAPC  C214 2340   2.565   2.517   9.262 -0.2962 -0.3049  0.1122
   18SAPC  H14R 2341   2.597   2.432   9.324 -0.0949 -1.1326 -1.0709
   18SAPC  C215 2342   2.666   2.596   9.209 -0.1498  0.2974 -0.1330
   18SAPC  H15R 2343   2.769   2.588   9.248 -1.2453 -0.8019  2.8711
   18SAPC  C216 2344   2.644   2.713   9.120  0.2964 -0.4852 -0.4941
   18SAPC  H16R 2345   2.671   2.807   9.173  0.1283 -0.0746 -1.1278
   18SAPC  H16S 2346   2.538   2.741   9.104 -0.8937 -1.0857  4.7140
   18SAPC  C217 2347   2.717   2.702   8.981  0.9704 -0.0782 -0.5637
   18SAPC  H17R 2348   2.819   2.666   9.004 -0.4775 -3.6134  1.0492
   18SAPC  H17S 2349   2.716   2.805   8.939 -4.2538 -0.0755 -1.0380
   18SAPC  C218 2350   2.650   2.610   8.874  0.2594  0.2094 -0.2355
   18SAPC  H18R 2351   2.546   2.649   8.869 -0.5168 -1.8095 -0.9246
   18SAPC  H18S 2352   2.651   2.506   8.911 -0.3906  0.2783 -0.0166
   18SAPC  C219 2353   2.712   2.618   8.736 -0.0843 -0.1592 -0.1850
   18SAPC  H19R 2354   2.713   2.720   8.693 -0.7713  0.0941  0.3769
   18SAPC  H19S 2355   2.653   2.556   8.665 -2.1754  1.0816  0.3901
   18SAPC  C220 2356   2.861   2.553   8.735  0.3923 -0.0620 -0.4081
   18SAPC  H20R 2357   2.924   2.612   8.666 -0.7942  1.2985 -0.3756
   18SAPC  H20S 2358   2.856   2.450   8.695  1.1990 -0.2965  0.0828
   18SAPC  H20T 2359   2.903   2.549   8.838 -0.4641 -2.9895 -0.0894
   18SAPC   C33 2360   1.876   2.075   9.896  0.0131  0.3992 -0.4463
   18SAPC   H3X 2361   1.771   2.075   9.860 -0.5653  1.1336  1.1268
   18SAPC   H3Y 2362   1.922   1.975   9.882  0.3365  0.7651 -2.2536
   18SAPC   C34 2363   1.966   2.179   9.817 -0.0477 -0.5470 -0.0287
   18SAPC   H4X 2364   2.072   2.184   9.849  0.2145  2.2341 -1.1123
   18SAPC   H4Y 2365   1.916   2.272   9.849  1.1645  0.0179  0.2872
   18SAPC   C35 2366   1.964   2.156   9.663 -0.7263  0.1027 -0.0390
   18SAPC   H5X 2367   1.984   2.049   9.638  0.3477 -0.1693  1.8436
   18SAPC   H5Y 2368   2.059   2.209   9.638 -0.6186 -0.1433 -0.1612
   18SAPC   C36 2369   1.849   2.209   9.582 -0.0380  0.6364  0.1058
   18SAPC   H6X 2370   1.832   2.318   9.595 -0.6276  0.8780 -2.2103
   18SAPC   H6Y 2371   1.759   2.163   9.627  0.2112 -0.0976 -0.1240
   18SAPC   C37 2372   1.864   2.175   9.434 -0.6298 -0.2135  0.1701
   18SAPC   H7X 2373   1.876   2.066   9.414  0.2777 -0.3295  1.2384
   18SAPC   H7Y 2374   1.957   2.224   9.398 -0.9950 -0.1985 -0.7676
   18SAPC   C38 2375   1.752   2.227   9.344  0.0724 -0.4104  0.4560
   18SAPC   H8X 2376   1.745   2.333   9.377  0.1478 -0.4807  0.6989
   18SAPC   H8Y 2377   1.654   2.186   9.374 -1.4294  1.3197 -1.7469
   18SAPC   C39 2378   1.775   2.225   9.187 -0.3336 -0.3134 -0.1943
   18SAPC   H9X 2379   1.866   2.285   9.166 -0.1957  1.1070  3.7693
   18SAPC   H9Y 2380   1.688   2.271   9.134  0.4087  2.2312  0.6637
   18SAPC  C310 2381   1.783   2.080   9.139 -0.4470 -0.5461  0.0032
   18SAPC  H10X 2382   1.684   2.034   9.158 -0.3585  0.3997  3.2361
   18SAPC  H10Y 2383   1.867   2.024   9.188 -1.1027 -0.8158  0.8355
   18SAPC  C311 2384   1.821   2.074   8.985 -0.4182  0.0728 -0.0717
   18SAPC  H11X 2385   1.843   1.966   8.971 -1.1060 -0.3222  1.6594
   18SAPC  H11Y 2386   1.917   2.130   8.973  0.0720 -0.2023  2.1308
   18SAPC  C312 2387   1.708   2.108   8.881  0.9413 -0.9035 -0.4401
   18SAPC  H12X 2388   1.730   2.215   8.858 -0.2207 -0.7390 -0.8544
   18SAPC  H12Y 2389   1.606   2.096   8.925  0.8267  0.2343 -0.3684
   18SAPC  C313 2390   1.705   2.017   8.758  0.4106  0.3528 -0.8753
   18SAPC  H13X 2391   1.718   1.911   8.791  1.0270  0.4425 -0.8138
   18SAPC  H13Y 2392   1.799   2.035   8.701  1.6268 -0.8183  0.6492
   18SAPC  C314 2393   1.580   2.026   8.667  0.2067  0.1156  0.4415
   18SAPC  H14X 2394   1.555   2.128   8.632 -0.7334 -1.0846 -2.8108
   18SAPC  H14Y 2395   1.490   1.982   8.715 -0.7771 -0.4870 -1.8012
   18SAPC  C315 2396   1.606   1.944   8.541  0.4449  0.8966  0.1059
   18SAPC  H15X 2397   1.621   1.835   8.558  0.2241  0.5719 -1.6310
   18SAPC  H15Y 2398   1.699   1.997   8.509  0.2206 -0.2977 -2.8163
   18SAPC  C316 2399   1.493   1.951   8.437 -0.1075  0.2594 -0.5031
   18SAPC  H16X 2400   1.453   2.054   8.421  1.8365  0.9505 -1.2487
   18SAPC  H16Y 2401   1.408   1.897   8.484 -1.1582  2.2596  0.0297
   18SAPC  C317 2402   1.532   1.890   8.303 -0.3551  0.7240 -0.6085
   18SAPC  H17X 2403   1.443   1.896   8.236 -0.6330 -1.4543 -0.5133
   18SAPC  H17Y 2404   1.568   1.787   8.322 -2.2563  0.0857 -0.2838
   18SAPC  C318 2405   1.652   1.965   8.243  0.3307  0.6752 -0.3235
   18SAPC  H18X 2406   1.743   1.910   8.276  0.0809  1.0038  0.9652
   18SAPC  H18Y 2407   1.655   2.075   8.261  1.2921  0.8362 -1.3756
   18SAPC  H18Z 2408   1.652   1.962   8.132 -1.2173  1.8923 -0.3869
   19SAPC     N 2409   2.005   4.005  10.631  0.3729  0.1534  0.1522
   19SAPC   C12 2410   1.875   3.994  10.700  0.9779  0.4173 -0.3976
   19SAPC  H12A 2411   1.867   3.893  10.738  1.7162  1.5662  3.1345
   19SAPC  H12B 2412   1.802   4.012  10.622  0.3305  2.5853  0.6310
   19SAPC   C13 2413   2.121   3.955  10.717  0.6874  0.1800  0.6913
   19SAPC  H13A 2414   2.215   3.959  10.665  0.4475  0.4867  0.2690
   19SAPC  H13B 2415   2.140   4.021  10.800  3.2263 -0.5726  0.7758
   19SAPC  H13C 2416   2.114   3.851  10.746  0.0091  0.4858  1.6572
   19SAPC   C14 2417   2.002   3.914  10.511 -0.6884  0.2899 -0.6194
   19SAPC  H14A 2418   1.925   3.935  10.437 -1.0296  0.5349 -0.1983
   19SAPC  H14B 2419   2.097   3.930  10.462 -0.2310 -1.1698 -0.2443
   19SAPC  H14C 2420   2.009   3.813  10.547  0.4376  1.1889  1.8605
   19SAPC   C15 2421   2.039   4.144  10.599  0.0976  0.6780 -0.4651
   19SAPC  H15A 2422   2.057   4.205  10.687  3.3034 -0.2142 -0.3662
   19SAPC  H15B 2423   2.121   4.158  10.530  0.5443 -1.0040 -0.3138
   19SAPC  H15C 2424   1.953   4.198  10.563  0.5195  2.0368  0.4558
   19SAPC   C11 2425   1.849   4.074  10.823 -0.1913  0.3423  0.4881
   19SAPC  H11A 2426   1.934   4.051  10.892 -0.6140 -2.1864  0.2767
   19SAPC  H11B 2427   1.759   4.044  10.880  0.4375 -2.2311  0.2637
   19SAPC     P 2428   1.719   4.281  10.742  0.1258  0.4243  0.2818
   19SAPC   O13 2429   1.608   4.184  10.732  0.2446 -0.0859  0.0096
   19SAPC   O14 2430   1.700   4.410  10.812  0.2714  0.6287  0.3581
   19SAPC   O12 2431   1.842   4.213  10.799 -0.4524 -0.5068  0.3818
   19SAPC   O11 2432   1.747   4.307  10.591 -0.5605 -0.4119 -0.1296
   19SAPC    C1 2433   1.826   4.424  10.550  0.4116  0.4582  0.0883
   19SAPC    HA 2434   1.773   4.517  10.580  0.4665  0.9236 -1.2161
   19SAPC    HB 2435   1.932   4.427  10.585  0.0784  1.0188  1.0918
   19SAPC    C2 2436   1.836   4.441  10.394 -0.2193 -0.1561 -0.5809
   19SAPC    HS 2437   1.728   4.448  10.367 -0.3466 -1.2374 -0.4005
   19SAPC   O21 2438   1.898   4.322  10.338  0.3134  0.0753 -0.2538
   19SAPC   C21 2439   1.834   4.270  10.239 -0.0445 -0.1165  0.8850
   19SAPC   O22 2440   1.740   4.327  10.184 -0.0355  0.4785  0.4886
   19SAPC   C22 2441   1.908   4.146  10.197  0.1680 -0.0160 -0.0550
   19SAPC   H2R 2442   1.989   4.178  10.127  0.2116 -2.8641 -1.4376
   19SAPC   H2S 2443   1.958   4.106  10.288  0.4052  0.2510 -0.0646
   19SAPC    C3 2444   1.903   4.573  10.344 -0.2002 -0.2997 -0.3451
   19SAPC    HX 2445   2.013   4.559  10.343 -0.0060  0.9958  1.0571
   19SAPC    HY 2446   1.869   4.648  10.418  0.7469  2.3532 -2.4511
   19SAPC   O31 2447   1.859   4.606  10.215 -0.0335  0.4567  0.0223
   19SAPC   C31 2448   1.938   4.563  10.115  0.4305  0.2440  0.2255
   19SAPC   O32 2449   2.048   4.509  10.132  0.5703 -0.7292  0.4422
   19SAPC   C32 2450   1.879   4.598   9.981 -0.2031  0.2755 -0.3094
   19SAPC   H2X 2451   1.796   4.669  10.002  0.0803  0.5978 -0.2549
   19SAPC   H2Y 2452   1.827   4.511   9.935 -2.0089  0.4874  1.2143
   19SAPC   C23 2453   1.825   4.034  10.120 -0.5311  0.3685 -0.7406
   19SAPC   H3R 2454   1.779   4.089  10.035 -0.3700  1.3662 -0.2002
   19SAPC   H3S 2455   1.748   3.989  10.186  0.1509  2.0472  1.2942
   19SAPC   C24 2456   1.913   3.925  10.048 -0.1216  0.8289  0.4913
   19SAPC   H4R 2457   1.979   3.974   9.972 -0.9460  1.1728 -0.0201
   19SAPC   H4S 2458   1.846   3.860   9.988  0.1304  1.3784 -0.4229
   19SAPC   C25 2459   1.985   3.825  10.135 -0.5229  0.7079 -0.5601
   19SAPC   H5R 2460   1.923   3.787  10.218 -0.3830  2.8630  0.6353
   19SAPC   C26 2461   2.113   3.785  10.135 -0.4486 -0.1409  0.1260
   19SAPC   H6R 2462   2.140   3.712  10.212 -2.3671 -1.7506 -0.6401
   19SAPC   C27 2463   2.223   3.821  10.039 -0.4232  0.5585  0.9983
   19SAPC   H7R 2464   2.317   3.849  10.092  0.6402  0.8291 -0.9564
   19SAPC   H7S 2465   2.193   3.907   9.976 -0.8046 -1.0235 -1.0777
   19SAPC   C28 2466   2.257   3.713   9.939 -0.4348  0.8800 -0.0603
   19SAPC   H8R 2467   2.313   3.633   9.990  0.3068  1.6642  0.3854
   19SAPC   C29 2468   2.237   3.704   9.812 -0.0137  0.3802  0.2640
   19SAPC   H9R 2469   2.273   3.613   9.760 -2.1315  0.0982 -0.8268
   19SAPC  C210 2470   2.146   3.809   9.737 -1.0886  0.0279  0.2794
   19SAPC  H10R 2471   2.187   3.912   9.741  0.2597 -0.5230  1.7897
   19SAPC  H10S 2472   2.053   3.796   9.797 -1.2911  0.5327  0.0797
   19SAPC  C211 2473   2.142   3.771   9.582  0.2414 -0.0137 -0.3467
   19SAPC  H11R 2474   2.237   3.748   9.532  2.0914  3.1202  1.3331
   19SAPC  C212 2475   2.026   3.754   9.513 -0.1750 -0.5052  0.7916
   19SAPC  H12R 2476   2.028   3.738   9.404 -1.3799  0.7159  0.5519
   19SAPC  C213 2477   1.893   3.773   9.578 -0.0581 -1.3187  0.9014
   19SAPC  H13R 2478   1.821   3.825   9.511  1.8009  0.5687  0.2739
   19SAPC  H13S 2479   1.903   3.843   9.663  0.6968  0.1696 -0.3729
   19SAPC  C214 2480   1.823   3.658   9.631  0.3128 -0.1940 -0.4774
   19SAPC  H14R 2481   1.871   3.612   9.719  1.1754  0.2764 -0.6853
   19SAPC  C215 2482   1.702   3.601   9.589 -0.4407 -0.5224  0.4036
   19SAPC  H15R 2483   1.669   3.502   9.624 -0.4276 -0.8835 -0.5960
   19SAPC  C216 2484   1.614   3.635   9.469  0.6782 -0.5233 -0.1982
   19SAPC  H16R 2485   1.618   3.742   9.437 -0.4432 -0.3302  0.2580
   19SAPC  H16S 2486   1.508   3.643   9.501  0.7068  0.2309 -0.2691
   19SAPC  C217 2487   1.632   3.543   9.346  0.0232  0.7136  0.5155
   19SAPC  H17R 2488   1.611   3.440   9.383  1.6410  0.4292  0.7226
   19SAPC  H17S 2489   1.738   3.534   9.317  0.7634 -0.3882  3.2796
   19SAPC  C218 2490   1.537   3.562   9.223  0.5184 -0.4466  0.4650
   19SAPC  H18R 2491   1.541   3.667   9.189 -2.3291  0.3124  2.0682
   19SAPC  H18S 2492   1.433   3.540   9.258 -0.1007 -0.9505 -1.5765
   19SAPC  C219 2493   1.571   3.475   9.107 -0.1532  1.1263 -0.1820
   19SAPC  H19R 2494   1.577   3.373   9.150  2.3433  1.1742 -0.2948
   19SAPC  H19S 2495   1.677   3.491   9.080 -0.0110  0.1852 -0.2084
   19SAPC  C220 2496   1.490   3.493   8.981  0.5729  0.4799 -0.8802
   19SAPC  H20R 2497   1.523   3.414   8.910  1.0195  0.2702 -0.4497
   19SAPC  H20S 2498   1.510   3.588   8.928 -0.0812  1.4449  0.5457
   19SAPC  H20T 2499   1.381   3.480   8.996  0.8586  0.7118  2.0787
   19SAPC   C33 2500   1.977   4.671   9.883 -0.3299  0.2355 -0.0924
   19SAPC   H3X 2501   2.062   4.601   9.868  1.0948  1.8191  0.2971
   19SAPC   H3Y 2502   2.011   4.764   9.933 -0.3170  1.0355 -1.5647
   19SAPC   C34 2503   1.935   4.708   9.740 -0.3652  0.3035  0.5996
   19SAPC   H4X 2504   1.880   4.804   9.749  1.0050  1.1138  0.6648
   19SAPC   H4Y 2505   1.870   4.634   9.688 -1.4993  0.6217  1.5097
   19SAPC   C35 2506   2.053   4.725   9.643  0.4641  0.1348  0.6331
   19SAPC   H5X 2507   2.116   4.634   9.643  1.1767  0.5561 -2.0533
   19SAPC   H5Y 2508   2.102   4.814   9.689 -0.0670  1.2958 -0.9859
   19SAPC   C36 2509   2.005   4.766   9.506 -0.1280 -0.8341  0.8217
   19SAPC   H6X 2510   1.933   4.849   9.518 -3.2927 -3.1656 -0.5205
   19SAPC   H6Y 2511   1.952   4.676   9.468  0.1780 -0.3968 -0.6663
   19SAPC   C37 2512   2.121   4.792   9.409  0.0345  0.0547  0.6655
   19SAPC   H7X 2513   2.155   4.692   9.376 -1.3525 -0.2796  0.2019
   19SAPC   H7Y 2514   2.198   4.842   9.471  0.3299  0.0222  0.3278
   19SAPC   C38 2515   2.080   4.875   9.284  0.5274 -0.0278  0.4191
   19SAPC   H8X 2516   2.020   4.967   9.301 -0.9405 -0.2633 -2.7832
   19SAPC   H8Y 2517   2.023   4.802   9.222 -0.6019  0.2721  1.0746
   19SAPC   C39 2518   2.193   4.915   9.195  0.4275 -1.3579  0.1434
   19SAPC   H9X 2519   2.258   4.987   9.249  0.3357 -1.8402  0.9028
   19SAPC   H9Y 2520   2.157   4.961   9.100 -1.3052 -0.3340  1.2423
   19SAPC  C310 2521   2.293   4.810   9.150 -0.5861 -0.2019  0.1547
   19SAPC  H10X 2522   2.236   4.730   9.099 -1.4956  0.2748  0.3908
   19SAPC  H10Y 2523   2.332   4.777   9.249  0.2019  3.0652  1.0623
   19SAPC  C311 2524   2.406   4.860   9.062  0.0678 -0.0643  0.2683
   19SAPC  H11X 2525   2.506   4.819   9.089 -0.0851 -1.5627 -1.2323
   19SAPC  H11Y 2526   2.408   4.971   9.054  3.6410 -0.0463 -0.3078
   19SAPC  C312 2527   2.373   4.810   8.919 -0.2532 -0.0823  0.0100
   19SAPC  H12X 2528   2.266   4.834   8.902  0.3326  0.8362 -2.7442
   19SAPC  H12Y 2529   2.397   4.702   8.930 -0.1281 -0.0559 -0.0053
   19SAPC  C313 2530   2.469   4.870   8.809  0.5109  0.1689  0.4909
   19SAPC  H13X 2531   2.438   4.977   8.804 -1.3884 -0.4250 -2.1773
   19SAPC  H13Y 2532   2.449   4.823   8.711  0.7772  1.1885 -0.0699
   19SAPC  C314 2533   2.617   4.866   8.849  0.1554 -0.7852 -0.1972
   19SAPC  H14X 2534   2.661   4.765   8.859  3.4658  0.4194 -1.2453
   19SAPC  H14Y 2535   2.625   4.920   8.946  0.5529 -1.4200  0.1289
   19SAPC  C315 2536   2.730   4.933   8.760  0.2676  0.1948  0.1948
   19SAPC  H15X 2537   2.828   4.900   8.801  0.1552  1.9397  2.0152
   19SAPC  H15Y 2538   2.734   5.044   8.768  1.0441  0.1749  0.1508
   19SAPC  C316 2539   2.725   4.895   8.609 -0.4190 -0.2292 -1.1901
   19SAPC  H16X 2540   2.647   4.957   8.561 -1.1726  1.3912  1.8659
   19SAPC  H16Y 2541   2.695   4.789   8.597 -3.0653  0.1491  1.1166
   19SAPC  C317 2542   2.853   4.914   8.530 -0.4251 -0.3387 -0.5944
   19SAPC  H17X 2543   2.903   4.815   8.525  0.6999 -0.0323  2.5556
   19SAPC  H17Y 2544   2.922   4.982   8.584  0.1894 -1.8555  0.5906
   19SAPC  C318 2545   2.837   4.960   8.384 -0.2891 -0.1699  0.1335
   19SAPC  H18X 2546   2.932   4.949   8.329 -0.2760 -1.4348  0.3643
   19SAPC  H18Y 2547   2.813   5.068   8.388 -0.3178 -0.2135  1.8581
   19SAPC  H18Z 2548   2.769   4.903   8.316  1.1930  0.3855 -1.9156
   20SAPC     N 2549   0.438   2.674  11.137 -0.3577  0.6171  0.1953
   20SAPC   C12 2550   0.576   2.620  11.110 -0.5743  0.5260 -0.6847
   20SAPC  H12A 2551   0.585   2.529  11.168  1.3180  0.2225 -1.3970
   20SAPC  H12B 2552   0.655   2.689  11.137  0.9894 -1.0690 -0.9848
   20SAPC   C13 2553   0.434   2.722  11.279  0.0088 -0.0975  0.3444
   20SAPC  H13A 2554   0.496   2.810  11.288  1.3249 -0.8411 -0.9377
   20SAPC  H13B 2555   0.333   2.758  11.295  0.1857  1.0489 -0.9039
   20SAPC  H13C 2556   0.462   2.644  11.348  1.7656  1.5670  1.6167
   20SAPC   C14 2557   0.413   2.796  11.049 -0.0565 -0.1981 -0.2856
   20SAPC  H14A 2558   0.400   2.763  10.947  2.0816  1.8696 -1.3120
   20SAPC  H14B 2559   0.321   2.849  11.065 -0.2554  0.2972 -2.7845
   20SAPC  H14C 2560   0.496   2.866  11.050  0.4353 -0.6855 -2.2064
   20SAPC   C15 2561   0.334   2.568  11.122 -0.1056 -0.0892 -0.4782
   20SAPC  H15A 2562   0.244   2.607  11.168  0.0309 -0.1601 -0.1481
   20SAPC  H15B 2563   0.318   2.553  11.016  1.4088  0.5683 -0.8273
   20SAPC  H15C 2564   0.363   2.474  11.167  0.1281  0.8251  1.3368
   20SAPC   C11 2565   0.617   2.571  10.967 -0.3543 -0.5398  0.1982
   20SAPC  H11A 2566   0.726   2.571  10.947 -0.2742  0.5751  0.5983
   20SAPC  H11B 2567   0.586   2.653  10.898  0.3823 -1.0740 -0.7987
   20SAPC     P 2568   0.619   2.321  10.980  0.1644  0.2467 -0.2856
   20SAPC   O13 2569   0.693   2.353  11.104 -0.6219  0.7323  0.4025
   20SAPC   O14 2570   0.517   2.214  10.984  0.2505 -0.1610  0.3896
   20SAPC   O12 2571   0.551   2.450  10.925 -0.0214 -0.6016 -0.7520
   20SAPC   O11 2572   0.721   2.287  10.860 -0.3744 -0.2875  0.1056
   20SAPC    C1 2573   0.856   2.332  10.845 -0.3284 -0.3313 -0.3734
   20SAPC    HA 2574   0.886   2.420  10.906 -0.9560 -0.3785  0.0128
   20SAPC    HB 2575   0.928   2.253  10.875 -0.8414 -0.4567  0.5656
   20SAPC    C2 2576   0.884   2.373  10.702 -0.5533 -0.1128  0.4627
   20SAPC    HS 2577   0.851   2.479  10.692  1.9412  0.7064  0.2075
   20SAPC   O21 2578   0.815   2.277  10.619 -0.8864 -0.3436  0.3247
   20SAPC   C21 2579   0.770   2.324  10.506  0.2248  0.8681 -0.1103
   20SAPC   O22 2580   0.777   2.439  10.463 -0.0817  0.3974  0.0838
   20SAPC   C22 2581   0.700   2.210  10.428 -0.7427 -0.8866 -0.8633
   20SAPC   H2R 2582   0.751   2.115  10.456 -0.3449 -0.5076 -0.2911
   20SAPC   H2S 2583   0.595   2.220  10.462 -0.3444  2.5688 -0.3480
   20SAPC    C3 2584   1.039   2.382  10.673 -0.2143 -0.0459 -0.4695
   20SAPC    HX 2585   1.071   2.288  10.721 -0.8408 -0.2842 -0.5075
   20SAPC    HY 2586   1.098   2.455  10.731 -0.1836  1.1812 -1.9777
   20SAPC   O31 2587   1.075   2.364  10.533  0.5997  0.6203 -0.5163
   20SAPC   C31 2588   1.103   2.474  10.465  0.1761  0.3572 -0.1764
   20SAPC   O32 2589   1.103   2.586  10.506 -0.1144  0.0480 -0.7252
   20SAPC   C32 2590   1.142   2.430  10.325  0.5792 -0.6928 -0.1178
   20SAPC   H2X 2591   1.063   2.364  10.283  0.8771 -2.5632  2.0168
   20SAPC   H2Y 2592   1.241   2.380  10.323  0.0153 -1.8799  0.4268
   20SAPC   C23 2593   0.709   2.226  10.272  0.6451 -0.1862  0.4876
   20SAPC   H3R 2594   0.811   2.226  10.228 -0.3800 -0.3157 -2.0556
   20SAPC   H3S 2595   0.662   2.322  10.245  1.3867  0.0362 -0.0512
   20SAPC   C24 2596   0.639   2.110  10.198 -0.5389 -0.1247 -0.3536
   20SAPC   H4R 2597   0.640   2.145  10.092 -1.4789 -1.0194 -0.6841
   20SAPC   H4S 2598   0.532   2.118  10.229 -0.0067  1.3995  1.2429
   20SAPC   C25 2599   0.678   1.962  10.224 -0.6449 -0.6676 -0.1828
   20SAPC   H5R 2600   0.636   1.923  10.318 -0.8544  3.3879  1.6374
   20SAPC   C26 2601   0.760   1.886  10.147 -0.5712 -0.6480  0.7126
   20SAPC   H6R 2602   0.770   1.778  10.165 -3.6015 -0.7184  2.8584
   20SAPC   C27 2603   0.845   1.946  10.032 -0.2407  0.0865  0.0384
   20SAPC   H7R 2604   0.903   2.031  10.076 -3.2113  0.6306  3.3520
   20SAPC   H7S 2605   0.773   1.989   9.959  0.3530  1.7003  0.3552
   20SAPC   C28 2606   0.935   1.839   9.969  0.2577  0.2823 -0.1880
   20SAPC   H8R 2607   0.985   1.777  10.044  0.1078 -0.7832 -0.9540
   20SAPC   C29 2608   0.945   1.817   9.833 -0.0225 -0.6225 -0.1380
   20SAPC   H9R 2609   1.017   1.741   9.801  0.1668 -0.7218  0.4970
   20SAPC  C210 2610   0.879   1.896   9.721 -0.1707 -0.5208 -0.2978
   20SAPC  H10R 2611   0.819   1.984   9.756  0.6597 -0.1119  0.1266
   20SAPC  H10S 2612   0.811   1.828   9.667 -0.2183 -1.1681  0.5567
   20SAPC  C211 2613   0.991   1.951   9.639 -0.4085  0.3744 -0.1010
   20SAPC  H11R 2614   1.051   2.021   9.699 -0.3454  1.3759 -1.3072
   20SAPC  C212 2615   1.006   1.938   9.507 -0.6119 -0.4870  0.0732
   20SAPC  H12R 2616   1.086   1.996   9.457 -0.0521 -0.6000  0.8115
   20SAPC  C213 2617   0.924   1.852   9.418 -0.2579  0.4852  0.3140
   20SAPC  H13R 2618   0.866   1.774   9.473 -1.4977  1.0799 -0.1124
   20SAPC  H13S 2619   0.989   1.794   9.350  0.3662 -0.9104  2.0136
   20SAPC  C214 2620   0.810   1.933   9.354 -0.1181 -0.4797 -1.2044
   20SAPC  H14R 2621   0.745   1.992   9.421 -0.1878 -1.0632 -0.7479
   20SAPC  C215 2622   0.784   1.938   9.225 -0.1663 -0.5369 -0.3620
   20SAPC  H15R 2623   0.690   1.987   9.196  0.2304  1.6346  1.7472
   20SAPC  C216 2624   0.852   1.875   9.105 -0.0180 -0.2841  0.1975
   20SAPC  H16R 2625   0.909   1.783   9.129  1.5234  1.1428  2.4115
   20SAPC  H16S 2626   0.931   1.937   9.057  1.1536 -1.9176 -0.0742
   20SAPC  C217 2627   0.760   1.838   8.985  0.2206  0.7000  0.8179
   20SAPC  H17R 2628   0.690   1.756   9.012 -0.7392  1.6594  1.3283
   20SAPC  H17S 2629   0.830   1.799   8.909 -0.0605  0.1507  0.8362
   20SAPC  C218 2630   0.678   1.956   8.924 -0.2338  0.1061 -0.3007
   20SAPC  H18R 2631   0.748   2.041   8.912  1.1586 -0.8535  0.6961
   20SAPC  H18S 2632   0.601   1.982   9.000 -0.4677 -1.6805  0.1069
   20SAPC  C219 2633   0.620   1.928   8.784 -0.4048 -0.3749  0.0827
   20SAPC  H19R 2634   0.538   2.001   8.768 -0.5623 -0.9737 -2.2259
   20SAPC  H19S 2635   0.581   1.824   8.786 -2.6224  0.4259  0.9775
   20SAPC  C220 2636   0.723   1.956   8.677 -0.1770 -0.3468 -0.4524
   20SAPC  H20R 2637   0.690   1.932   8.574  0.2951 -1.3480 -0.3828
   20SAPC  H20S 2638   0.820   1.909   8.706  0.2994 -0.1024 -1.5950
   20SAPC  H20T 2639   0.749   2.063   8.686 -1.4765 -0.0465 -0.0851
   20SAPC   C33 2640   1.152   2.554  10.237 -0.2274  0.0723  0.3141
   20SAPC   H3X 2641   1.241   2.615  10.263  0.1530 -0.0492 -0.6595
   20SAPC   H3Y 2642   1.062   2.618  10.232  0.2421  0.7719  0.6481
   20SAPC   C34 2643   1.172   2.527  10.081  0.8399  0.4488  0.1868
   20SAPC   H4X 2644   1.079   2.482  10.041 -0.0273  1.6940  0.7191
   20SAPC   H4Y 2645   1.251   2.451  10.066  0.5173  0.3199 -0.9436
   20SAPC   C35 2646   1.206   2.652   9.994 -0.2245  0.0513 -0.3692
   20SAPC   H5X 2647   1.238   2.621   9.893  0.5043  1.5518 -0.6207
   20SAPC   H5Y 2648   1.287   2.706  10.047 -0.9183 -0.3444  1.1557
   20SAPC   C36 2649   1.090   2.743   9.987  0.0550 -0.8821 -1.0456
   20SAPC   H6X 2650   1.058   2.788  10.084 -0.2526  0.8864 -1.9258
   20SAPC   H6Y 2651   0.996   2.694   9.954  0.2329 -1.8210 -0.2234
   20SAPC   C37 2652   1.119   2.872   9.900  0.3283  0.5033  0.3618
   20SAPC   H7X 2653   1.221   2.900   9.933  0.5496 -1.1731  1.1984
   20SAPC   H7Y 2654   1.037   2.946   9.916 -1.0049 -0.1194 -2.7399
   20SAPC   C38 2655   1.126   2.836   9.747  0.2431 -0.0658 -0.0168
   20SAPC   H8X 2656   1.031   2.786   9.720  0.3443 -0.6482  0.6864
   20SAPC   H8Y 2657   1.202   2.756   9.734 -0.6234 -0.9016 -0.0062
   20SAPC   C39 2658   1.154   2.962   9.659 -0.1519 -0.4945  0.0049
   20SAPC   H9X 2659   1.258   3.001   9.669 -0.6527  0.8865  0.0551
   20SAPC   H9Y 2660   1.083   3.034   9.705 -0.6390 -2.1727  2.0060
   20SAPC  C310 2661   1.121   2.940   9.509  0.2913  0.8014 -0.0690
   20SAPC  H10X 2662   1.012   2.928   9.491  0.2780  0.8353 -0.0121
   20SAPC  H10Y 2663   1.184   2.860   9.465  1.7801  0.1514  3.0023
   20SAPC  C311 2664   1.150   3.070   9.423 -0.0671 -1.1017 -0.0291
   20SAPC  H11X 2665   1.143   3.154   9.495 -0.3171 -1.3668  0.2627
   20SAPC  H11Y 2666   1.074   3.095   9.346  0.0817 -0.6452 -0.0324
   20SAPC  C312 2667   1.289   3.065   9.358 -0.2549  0.1369  0.3164
   20SAPC  H12X 2668   1.284   2.997   9.270  0.0164  0.3581  0.1287
   20SAPC  H12Y 2669   1.376   3.022   9.411  0.0473 -2.5495 -2.1377
   20SAPC  C313 2670   1.337   3.203   9.315  0.4814 -0.0882  0.0458
   20SAPC  H13X 2671   1.436   3.196   9.264  2.7847  0.0053  4.0587
   20SAPC  H13Y 2672   1.347   3.252   9.414  0.3737  1.6685 -0.7854
   20SAPC  C314 2673   1.241   3.292   9.239  0.4509 -0.1823 -0.3541
   20SAPC  H14X 2674   1.280   3.396   9.237  0.1029 -0.0499 -2.3044
   20SAPC  H14Y 2675   1.145   3.296   9.295 -0.0740 -1.1773 -1.1491
   20SAPC  C315 2676   1.199   3.243   9.099 -0.4738 -0.6622 -0.2833
   20SAPC  H15X 2677   1.136   3.152   9.108  0.5031 -1.2346  1.1150
   20SAPC  H15Y 2678   1.297   3.233   9.047  0.0446  1.6930  0.1525
   20SAPC  C316 2679   1.116   3.358   9.034 -0.2714  0.2164 -0.3387
   20SAPC  H16X 2680   1.148   3.457   9.075  1.3376 -1.2563  2.2274
   20SAPC  H16Y 2681   1.010   3.345   9.063 -0.3324  0.8398 -0.2516
   20SAPC  C317 2682   1.128   3.372   8.882 -0.0198  0.1500 -0.1113
   20SAPC  H17X 2683   1.235   3.390   8.855  0.5462  0.3186  2.0567
   20SAPC  H17Y 2684   1.077   3.468   8.858  3.7128  1.8241 -2.2727
   20SAPC  C318 2685   1.051   3.263   8.798  0.8590 -0.3555  0.3010
   20SAPC  H18X 2686   0.942   3.277   8.816  1.0721  1.4560  0.3102
   20SAPC  H18Y 2687   1.088   3.159   8.813  2.4274  0.0647 -0.5093
   20SAPC  H18Z 2688   1.066   3.297   8.694  0.0624  2.6236  1.0444
   21SAPC     N 2689   1.864   6.162  10.598  0.4701 -0.2673  0.4781
   21SAPC   C12 2690   1.996   6.142  10.540  0.5815 -0.0455  0.2435
   21SAPC  H12A 2691   1.983   6.095  10.444  1.4200 -0.1518  0.1718
   21SAPC  H12B 2692   2.062   6.074  10.592  0.1723 -1.5096 -1.0711
   21SAPC   C13 2693   1.866   6.240  10.734  0.5900 -0.0046 -0.1416
   21SAPC  H13A 2694   1.767   6.257  10.772  0.6325  1.4188 -0.6007
   21SAPC  H13B 2695   1.917   6.189  10.814 -0.9759  0.0732  0.9525
   21SAPC  H13C 2696   1.916   6.334  10.712  1.4102 -0.7227 -1.4819
   21SAPC   C14 2697   1.783   6.239  10.501  0.1196  0.9954  0.1561
   21SAPC  H14A 2698   1.850   6.303  10.444 -0.9702  1.6327 -0.4406
   21SAPC  H14B 2699   1.751   6.179  10.417  0.1168  1.2995 -0.0617
   21SAPC  H14C 2700   1.708   6.302  10.546  1.0710  1.2668  1.4322
   21SAPC   C15 2701   1.792   6.031  10.638 -0.2607  0.3479  0.2677
   21SAPC  H15A 2702   1.779   5.963  10.556 -1.8930 -0.7332  1.3413
   21SAPC  H15B 2703   1.846   5.996  10.725 -0.7026  2.0183  1.2569
   21SAPC  H15C 2704   1.692   6.055  10.673 -0.3888  1.0136 -0.5160
   21SAPC   C11 2705   2.081   6.274  10.523  0.4313  0.2715  0.1929
   21SAPC  H11A 2706   2.033   6.354  10.462 -1.3497 -0.3851  0.6671
   21SAPC  H11B 2707   2.170   6.253  10.460  0.3717 -0.1873  0.2606
   21SAPC     P 2708   2.252   6.374  10.696  0.0882 -0.1683  0.1242
   21SAPC   O13 2709   2.231   6.481  10.792 -0.2469 -0.2709  0.4317
   21SAPC   O14 2710   2.340   6.257  10.738  0.1741 -0.5420  0.0384
   21SAPC   O12 2711   2.115   6.324  10.657 -0.2409  0.2153 -0.0285
   21SAPC   O11 2712   2.305   6.429  10.556  0.2031  0.0115  0.1806
   21SAPC    C1 2713   2.304   6.569  10.539  0.2016 -0.1804  0.1808
   21SAPC    HA 2714   2.222   6.616  10.598  0.8833 -0.1998  1.1559
   21SAPC    HB 2715   2.405   6.611  10.558 -0.3129  1.0277  0.3527
   21SAPC    C2 2716   2.287   6.607  10.391  0.5899  0.1539 -0.1030
   21SAPC    HS 2717   2.282   6.717  10.400  1.4908  0.3344 -1.5077
   21SAPC   O21 2718   2.157   6.548  10.350  0.0516  1.0293  0.3917
   21SAPC   C21 2719   2.096   6.606  10.249 -0.6605 -0.2139 -0.2169
   21SAPC   O22 2720   2.125   6.710  10.195 -0.5573 -0.7672 -0.1242
   21SAPC   C22 2721   1.962   6.530  10.211  0.8260  0.0152  0.2327
   21SAPC   H2R 2722   1.989   6.422  10.212  0.4619 -0.1470  3.5796
   21SAPC   H2S 2723   1.906   6.546  10.306  1.9193  0.3698  0.8397
   21SAPC    C3 2724   2.396   6.560  10.293 -0.6770 -0.3339  0.3239
   21SAPC    HX 2725   2.382   6.449  10.292 -1.6698 -0.2438  1.4970
   21SAPC    HY 2726   2.499   6.573  10.332 -0.3806 -1.8001  0.0892
   21SAPC   O31 2727   2.373   6.602  10.160 -0.5429 -0.0555  0.7491
   21SAPC   C31 2728   2.434   6.710  10.119  0.2071 -0.6131 -0.5766
   21SAPC   O32 2729   2.509   6.779  10.185 -0.1948 -0.3637 -0.0507
   21SAPC   C32 2730   2.414   6.728   9.971 -0.6485 -0.2244 -0.2754
   21SAPC   H2X 2731   2.314   6.774   9.956  0.6942  2.3088 -2.4223
   21SAPC   H2Y 2732   2.400   6.627   9.927  0.0158 -0.8732  0.9595
   21SAPC   C23 2733   1.896   6.591  10.083 -0.9503 -0.1417 -0.5015
   21SAPC   H3R 2734   1.909   6.702  10.082  0.3444 -0.2657  0.2659
   21SAPC   H3S 2735   1.786   6.585  10.089 -0.8912  0.1200  1.2834
   21SAPC   C24 2736   1.948   6.529   9.947 -0.9375 -0.0184  1.0011
   21SAPC   H4R 2737   1.856   6.544   9.887 -0.9106 -0.9247  0.7109
   21SAPC   H4S 2738   1.956   6.419   9.964 -0.0407 -0.1523 -0.1710
   21SAPC   C25 2739   2.080   6.587   9.893 -0.0276 -0.7291  0.4008
   21SAPC   H5R 2740   2.140   6.637   9.971  0.1960  0.1611 -0.3186
   21SAPC   C26 2741   2.118   6.592   9.759  0.0600 -0.3752  0.4399
   21SAPC   H6R 2742   2.211   6.644   9.732 -0.6441  0.2864 -0.7899
   21SAPC   C27 2743   2.044   6.534   9.644 -0.2496  0.1841  0.1845
   21SAPC   H7R 2744   1.996   6.442   9.682 -0.4970  1.4307  3.1868
   21SAPC   H7S 2745   2.102   6.496   9.557  0.2442 -0.1000  0.6277
   21SAPC   C28 2746   1.932   6.620   9.589  0.4314 -0.0990 -0.2379
   21SAPC   H8R 2747   1.910   6.699   9.663  0.6116 -0.7954  0.5775
   21SAPC   C29 2748   1.878   6.619   9.466 -0.3584  0.7307 -0.5721
   21SAPC   H9R 2749   1.803   6.699   9.457  0.0819  1.2540  0.2475
   21SAPC  C210 2750   1.910   6.530   9.352 -0.4229 -0.0471  0.5362
   21SAPC  H10R 2751   1.814   6.485   9.316  0.7669 -1.8140 -0.6162
   21SAPC  H10S 2752   1.971   6.443   9.384  1.1304  0.0706 -1.8604
   21SAPC  C211 2753   1.992   6.599   9.241 -0.4801 -0.0952  0.1182
   21SAPC  H11R 2754   2.086   6.638   9.284  1.9512 -4.5025 -0.5640
   21SAPC  C212 2755   1.962   6.603   9.107 -0.5769 -0.2416  0.1747
   21SAPC  H12R 2756   2.016   6.674   9.043 -1.7196  0.1594 -0.3717
   21SAPC  C213 2757   1.847   6.534   9.042 -0.1673 -0.6116  0.3737
   21SAPC  H13R 2758   1.831   6.439   9.098  1.0638 -1.4283 -0.6121
   21SAPC  H13S 2759   1.865   6.500   8.938 -1.2840 -1.1733  0.3434
   21SAPC  C214 2760   1.717   6.610   9.044 -0.4524  0.3228  0.9738
   21SAPC  H14R 2761   1.649   6.588   9.128  0.3799 -0.6543  1.4261
   21SAPC  C215 2762   1.675   6.700   8.952 -0.3823 -0.5197  1.0297
   21SAPC  H15R 2763   1.587   6.763   8.971 -0.4359 -0.7630  1.6192
   21SAPC  C216 2764   1.746   6.750   8.830 -0.1230 -0.3966 -0.9185
   21SAPC  H16R 2765   1.854   6.721   8.830 -0.4107 -1.4915 -1.6651
   21SAPC  H16S 2766   1.751   6.861   8.838 -0.3183 -0.4836  0.9389
   21SAPC  C217 2767   1.665   6.706   8.704 -0.5940 -0.9469  0.3745
   21SAPC  H17R 2768   1.564   6.753   8.706 -1.9209 -3.6634  1.3518
   21SAPC  H17S 2769   1.643   6.598   8.710 -2.0080 -0.7183 -0.3246
   21SAPC  C218 2770   1.732   6.750   8.575  0.0027  0.3560 -0.1946
   21SAPC  H18R 2771   1.836   6.714   8.558 -0.9572 -1.7951 -2.0058
   21SAPC  H18S 2772   1.734   6.861   8.563 -0.1478  0.6888  2.3392
   21SAPC  C219 2773   1.662   6.670   8.466 -0.6984  0.1596 -0.2575
   21SAPC  H19R 2774   1.555   6.695   8.449 -0.6565 -0.1430 -0.9972
   21SAPC  H19S 2775   1.661   6.563   8.495  1.3426  0.1962  0.1277
   21SAPC  C220 2776   1.752   6.669   8.340 -0.8292  0.7339  0.0808
   21SAPC  H20R 2777   1.765   6.765   8.285  2.8979  0.5692  0.3854
   21SAPC  H20S 2778   1.717   6.591   8.269 -1.6880 -1.1868  2.4756
   21SAPC  H20T 2779   1.855   6.637   8.368 -1.4628 -1.1528  0.4030
   21SAPC   C33 2780   2.523   6.820   9.899  0.3360 -0.3630 -0.0855
   21SAPC   H3X 2781   2.614   6.756   9.893  0.7092 -0.2462  2.7471
   21SAPC   H3Y 2782   2.547   6.900   9.973 -0.2101 -2.1340  2.1182
   21SAPC   C34 2783   2.478   6.878   9.765  0.8641 -0.1908 -0.2343
   21SAPC   H4X 2784   2.549   6.955   9.729 -0.7548  1.9992  0.9914
   21SAPC   H4Y 2785   2.383   6.935   9.772  0.5099 -0.9022  0.9724
   21SAPC   C35 2786   2.465   6.759   9.664  0.2125  1.4077 -0.4457
   21SAPC   H5X 2787   2.415   6.665   9.694  0.7487  0.4585 -2.3468
   21SAPC   H5Y 2788   2.569   6.724   9.648 -0.5615 -1.3753  0.1267
   21SAPC   C36 2789   2.412   6.813   9.528  0.2563  0.1501 -0.4542
   21SAPC   H6X 2790   2.489   6.883   9.488 -0.2037  1.5549  0.9854
   21SAPC   H6Y 2791   2.318   6.872   9.535 -0.5577 -1.0732 -0.9392
   21SAPC   C37 2792   2.409   6.703   9.423  0.1499 -0.2146 -0.7196
   21SAPC   H7X 2793   2.323   6.645   9.461 -1.2070  2.5862  0.8420
   21SAPC   H7Y 2794   2.498   6.638   9.437 -0.3106 -1.0334 -1.5020
   21SAPC   C38 2795   2.383   6.759   9.284  0.0140 -0.7195 -0.5288
   21SAPC   H8X 2796   2.461   6.825   9.240  1.2746 -2.3134 -0.8035
   21SAPC   H8Y 2797   2.292   6.818   9.306  0.6447 -0.2081  0.8500
   21SAPC   C39 2798   2.363   6.652   9.183 -0.3184 -0.6064 -0.0573
   21SAPC   H9X 2799   2.300   6.573   9.229 -1.2844  0.7991  1.1514
   21SAPC   H9Y 2800   2.461   6.606   9.160 -0.1687  0.2332 -1.1741
   21SAPC  C310 2801   2.305   6.713   9.058 -0.5449  0.1317 -0.5871
   21SAPC  H10X 2802   2.374   6.787   9.014 -0.5678 -0.1756 -1.1516
   21SAPC  H10Y 2803   2.204   6.757   9.075  0.2696  0.9811  2.5929
   21SAPC  C311 2804   2.290   6.614   8.953  0.1528  0.6020  0.3132
   21SAPC  H11X 2805   2.225   6.534   8.995  1.2405 -0.3536  0.2263
   21SAPC  H11Y 2806   2.384   6.557   8.941 -0.2363 -0.2632  1.2172
   21SAPC  C312 2807   2.233   6.662   8.822  0.1988  0.5895 -0.0780
   21SAPC  H12X 2808   2.317   6.716   8.772 -0.4278  0.7257 -1.0004
   21SAPC  H12Y 2809   2.145   6.726   8.846 -1.3032 -1.1701 -0.6642
   21SAPC  C313 2810   2.160   6.555   8.739  0.2773  0.7370 -0.0328
   21SAPC  H13X 2811   2.098   6.499   8.811  0.2791  1.6052  0.6590
   21SAPC  H13Y 2812   2.236   6.491   8.688  0.2111  0.0003  0.7772
   21SAPC  C314 2813   2.074   6.608   8.624 -0.4924  0.2758  0.2667
   21SAPC  H14X 2814   2.008   6.690   8.659 -0.4093  0.6443 -0.4340
   21SAPC  H14Y 2815   2.009   6.525   8.590  1.9500 -0.8734 -1.9226
   21SAPC  C315 2816   2.163   6.652   8.504  0.3663 -0.8365  0.1901
   21SAPC  H15X 2817   2.156   6.579   8.421  1.9376 -2.1830  1.1740
   21SAPC  H15Y 2818   2.269   6.648   8.537  0.1749 -1.1596  0.7846
   21SAPC  C316 2819   2.136   6.794   8.454  0.4866 -0.1602 -0.1693
   21SAPC  H16X 2820   2.172   6.868   8.529  2.4273 -0.3750 -0.8525
   21SAPC  H16Y 2821   2.030   6.826   8.443  0.4909  0.9678  2.3295
   21SAPC  C317 2822   2.218   6.830   8.330 -0.2366  0.0691  0.3569
   21SAPC  H17X 2823   2.169   6.787   8.240 -0.7094 -2.6802  1.8198
   21SAPC  H17Y 2824   2.316   6.779   8.332 -1.3146 -2.1075  0.3454
   21SAPC  C318 2825   2.242   6.982   8.317 -0.3434  0.0636  0.0898
   21SAPC  H18X 2826   2.297   6.992   8.221  0.6727 -1.2092  0.5064
   21SAPC  H18Y 2827   2.290   7.025   8.408  0.0378 -0.8754  0.3402
   21SAPC  H18Z 2828   2.147   7.040   8.318 -0.0752  0.6806  3.2472
   22SAPC     N 2829   1.304   4.307  10.501  0.2142  0.8639  0.0919
   22SAPC   C12 2830   1.207   4.198  10.551 -0.0277 -0.2803 -0.6801
   22SAPC  H12A 2831   1.162   4.148  10.466  2.4980 -0.1390 -2.2164
   22SAPC  H12B 2832   1.134   4.248  10.613  0.4404  2.3047 -2.0804
   22SAPC   C13 2833   1.402   4.241  10.410  0.3849  0.5398 -0.1031
   22SAPC  H13A 2834   1.444   4.156  10.461 -1.7463  0.1891  1.2167
   22SAPC  H13B 2835   1.363   4.204  10.316  4.4189  1.4110 -2.3498
   22SAPC  H13C 2836   1.482   4.309  10.386  1.7569 -0.7910  0.5439
   22SAPC   C14 2837   1.232   4.416  10.437 -0.0673  0.0147  1.4569
   22SAPC  H14A 2838   1.304   4.476  10.382 -0.0800  0.1493  1.5861
   22SAPC  H14B 2839   1.162   4.383  10.362  2.2661  0.2311 -0.9532
   22SAPC  H14C 2840   1.186   4.477  10.513  1.2225  1.0114  1.4800
   22SAPC   C15 2841   1.385   4.362  10.620 -0.6648  0.2734  0.2935
   22SAPC  H15A 2842   1.459   4.430  10.579  0.3346  0.8716  2.9312
   22SAPC  H15B 2843   1.337   4.412  10.702  0.8522  0.2656  1.2149
   22SAPC  H15C 2844   1.448   4.282  10.656  0.0787  0.2114 -1.0684
   22SAPC   C11 2845   1.269   4.086  10.627  0.4444 -0.4663 -0.0462
   22SAPC  H11A 2846   1.189   4.027  10.676 -0.3124 -0.8404 -1.6588
   22SAPC  H11B 2847   1.323   4.133  10.712 -0.1939  2.6358 -1.2311
   22SAPC     P 2848   1.378   3.856  10.577  0.3587  0.2147 -0.2080
   22SAPC   O13 2849   1.522   3.825  10.550  0.2207  0.1786  0.0814
   22SAPC   O14 2850   1.332   3.839  10.719  0.4826 -0.1678  0.6346
   22SAPC   O12 2851   1.360   4.008  10.551  0.4295 -0.5488  0.7131
   22SAPC   O11 2852   1.275   3.779  10.483  0.1909 -0.1244 -0.6020
   22SAPC    C1 2853   1.249   3.821  10.350 -0.1660  0.2128  0.3583
   22SAPC    HA 2854   1.165   3.758  10.312 -1.0786  0.8391  1.2706
   22SAPC    HB 2855   1.208   3.925  10.347 -2.5883 -0.6841 -0.1992
   22SAPC    C2 2856   1.367   3.808  10.251  0.3977 -0.0046  0.2557
   22SAPC    HS 2857   1.458   3.855  10.293 -0.3511  0.7590  1.0616
   22SAPC   O21 2858   1.335   3.853  10.127  0.2745  0.0583  0.1392
   22SAPC   C21 2859   1.364   3.978  10.087 -0.6966  0.0743 -0.1066
   22SAPC   O22 2860   1.381   4.071  10.166 -0.0839 -0.0029  0.0470
   22SAPC   C22 2861   1.383   3.991   9.931 -0.0446 -0.0941 -0.3727
   22SAPC   H2R 2862   1.341   3.897   9.889 -0.9215 -0.2985  0.8983
   22SAPC   H2S 2863   1.326   4.082   9.903 -0.2569  0.9571  3.0224
   22SAPC    C3 2864   1.404   3.665  10.232 -0.2603  0.4457  0.1567
   22SAPC    HX 2865   1.320   3.604  10.191 -0.5144 -0.3268  1.7489
   22SAPC    HY 2866   1.445   3.629  10.329  0.2215  0.2756 -0.1099
   22SAPC   O31 2867   1.517   3.660  10.138  0.6629 -0.1764  1.0522
   22SAPC   C31 2868   1.577   3.537  10.124  0.3982 -0.0492  0.4349
   22SAPC   O32 2869   1.568   3.452  10.211 -0.4887 -0.0857 -0.0941
   22SAPC   C32 2870   1.674   3.531  10.007 -0.2612  0.3849  0.9429
   22SAPC   H2X 2871   1.763   3.475  10.043 -1.1955 -1.5099  0.4481
   22SAPC   H2Y 2872   1.691   3.631   9.961 -3.8473  0.3179 -0.8644
   22SAPC   C23 2873   1.536   4.004   9.890  0.3493  0.0627  0.5444
   22SAPC   H3R 2874   1.587   3.912   9.926 -0.5056 -0.3478  0.7470
   22SAPC   H3S 2875   1.587   4.090   9.938 -2.0305  2.1284 -0.3926
   22SAPC   C24 2876   1.559   4.003   9.736  0.7519 -0.8854 -0.1673
   22SAPC   H4R 2877   1.501   3.918   9.694  0.8519 -0.5488 -1.0015
   22SAPC   H4S 2878   1.667   3.993   9.712  0.8754 -4.5501  1.1924
   22SAPC   C25 2879   1.497   4.128   9.680 -0.4944  0.8416  0.5988
   22SAPC   H5R 2880   1.512   4.220   9.739  0.5247 -0.3353  2.2808
   22SAPC   C26 2881   1.422   4.135   9.572  0.9462 -0.2138 -0.1548
   22SAPC   H6R 2882   1.384   4.230   9.534 -1.6481 -0.3411  1.8448
   22SAPC   C27 2883   1.367   4.019   9.491  0.5086  0.5140  0.5597
   22SAPC   H7R 2884   1.448   3.946   9.472  1.6218  2.5804 -3.6891
   22SAPC   H7S 2885   1.343   4.058   9.390  1.4896 -0.1907  0.0389
   22SAPC   C28 2886   1.246   3.952   9.544  0.9712  0.9538 -0.0938
   22SAPC   H8R 2887   1.220   3.980   9.647  1.8072  0.6729  0.2076
   22SAPC   C29 2888   1.169   3.862   9.476 -0.2983  0.2745  0.2477
   22SAPC   H9R 2889   1.089   3.815   9.534 -1.6203  1.8037 -0.2409
   22SAPC  C210 2890   1.192   3.817   9.332  0.8225  0.2224 -0.0601
   22SAPC  H10R 2891   1.242   3.719   9.339  1.3209  0.4398 -0.4788
   22SAPC  H10S 2892   1.260   3.883   9.274  0.9017 -0.6924 -1.0342
   22SAPC  C211 2893   1.058   3.803   9.257  0.5003 -0.5484  0.2880
   22SAPC  H11R 2894   0.980   3.783   9.333 -0.7274 -0.9452 -1.0207
   22SAPC  C212 2895   1.014   3.825   9.127  0.1779  0.0126 -0.7586
   22SAPC  H12R 2896   0.907   3.805   9.107 -0.1227 -1.1991  1.7089
   22SAPC  C213 2897   1.109   3.871   9.013 -1.0406  0.2937  0.6113
   22SAPC  H13R 2898   1.186   3.943   9.049  1.7639 -0.1718 -3.7180
   22SAPC  H13S 2899   1.047   3.916   8.933 -0.5712 -0.8779 -0.4515
   22SAPC  C214 2900   1.191   3.756   8.953  0.5449 -0.7111  0.7672
   22SAPC  H14R 2901   1.213   3.675   9.024  2.3574  1.5315  2.9620
   22SAPC  C215 2902   1.246   3.754   8.825 -0.8901  0.7639 -0.5575
   22SAPC  H15R 2903   1.311   3.670   8.796 -0.0602  1.1392  0.1354
   22SAPC  C216 2904   1.226   3.856   8.715  0.5813  0.2100  0.6471
   22SAPC  H16R 2905   1.155   3.936   8.746  1.7820  1.5369  0.0550
   22SAPC  H16S 2906   1.170   3.808   8.632 -0.0077  1.6844  0.1615
   22SAPC  C217 2907   1.356   3.929   8.672 -0.1889 -0.7238  0.2307
   22SAPC  H17R 2908   1.426   3.848   8.644 -0.3234 -0.4520 -0.9422
   22SAPC  H17S 2909   1.408   3.981   8.756 -0.3692 -2.0648  1.2048
   22SAPC  C218 2910   1.332   4.032   8.557  0.5431  0.3571  0.8785
   22SAPC  H18R 2911   1.251   4.098   8.595  0.8373  1.4542 -0.2938
   22SAPC  H18S 2912   1.294   3.988   8.463  2.3587  1.2551 -0.3296
   22SAPC  C219 2913   1.456   4.108   8.519 -0.6293  0.0022 -0.2091
   22SAPC  H19R 2914   1.519   4.147   8.601  0.6674  0.3247 -1.3219
   22SAPC  H19S 2915   1.430   4.204   8.470  0.8179  0.4638 -0.1039
   22SAPC  C220 2916   1.548   4.020   8.431 -0.1799 -0.2767 -0.5892
   22SAPC  H20R 2917   1.498   3.990   8.337 -0.5673  0.9509 -0.8001
   22SAPC  H20S 2918   1.567   3.927   8.490  2.3256 -0.4406 -1.5299
   22SAPC  H20T 2919   1.642   4.079   8.421  0.9263 -1.6749  1.0593
   22SAPC   C33 2920   1.611   3.420   9.918  0.2454 -0.1957  0.4275
   22SAPC   H3X 2921   1.673   3.423   9.826  0.3383 -1.1150  0.4430
   22SAPC   H3Y 2922   1.505   3.442   9.891 -0.1230 -1.7740  0.4648
   22SAPC   C34 2923   1.617   3.272   9.967 -0.9857  0.3565 -0.4233
   22SAPC   H4X 2924   1.571   3.259  10.067  2.8655  0.6028  1.5921
   22SAPC   H4Y 2925   1.726   3.250   9.970 -1.0986 -0.1033  0.6054
   22SAPC   C35 2926   1.543   3.169   9.877 -0.7434 -0.1278 -0.2324
   22SAPC   H5X 2927   1.439   3.206   9.861 -0.9262 -0.6426 -0.2565
   22SAPC   H5Y 2928   1.538   3.075   9.935 -1.6294 -0.0205 -0.1220
   22SAPC   C36 2929   1.610   3.158   9.744 -0.3610 -0.1824 -0.1721
   22SAPC   H6X 2930   1.713   3.120   9.761 -1.0369 -1.6066  0.8713
   22SAPC   H6Y 2931   1.639   3.256   9.699 -0.6347 -0.8712 -1.9146
   22SAPC   C37 2932   1.536   3.066   9.655  0.1624  0.7855  0.5828
   22SAPC   H7X 2933   1.443   3.121   9.627 -0.9445 -1.5902 -0.7994
   22SAPC   H7Y 2934   1.513   2.973   9.711  0.4135  1.7095  2.2567
   22SAPC   C38 2935   1.629   3.010   9.540 -0.3731  0.4741 -0.1075
   22SAPC   H8X 2936   1.572   2.932   9.484  1.0806 -0.9554  0.3397
   22SAPC   H8Y 2937   1.721   2.953   9.564 -0.5964 -0.2782 -0.9792
   22SAPC   C39 2938   1.672   3.114   9.435  0.3490 -0.0488  0.3550
   22SAPC   H9X 2939   1.717   3.209   9.471  2.5040 -0.5911 -0.7338
   22SAPC   H9Y 2940   1.585   3.159   9.384  2.5355 -0.2140 -3.9865
   22SAPC  C310 2941   1.763   3.059   9.318  0.6062 -0.0251 -0.1974
   22SAPC  H10X 2942   1.859   3.030   9.367  0.8756 -0.7112 -1.1057
   22SAPC  H10Y 2943   1.787   3.134   9.239  2.2552  0.3490  0.6078
   22SAPC  C311 2944   1.723   2.932   9.245 -0.3164  0.0440  0.4842
   22SAPC  H11X 2945   1.721   2.852   9.321 -2.2445  0.2590  0.7096
   22SAPC  H11Y 2946   1.805   2.918   9.171 -1.0450  0.2502 -0.3861
   22SAPC  C312 2947   1.588   2.947   9.169 -0.2035  0.1734  0.0778
   22SAPC  H12X 2948   1.563   3.053   9.149  1.7218  0.9657  1.5684
   22SAPC  H12Y 2949   1.521   2.916   9.252  0.6052 -1.4207  0.1843
   22SAPC  C313 2950   1.583   2.850   9.055  0.1103 -0.0200 -0.3196
   22SAPC  H13X 2951   1.608   2.758   9.113  2.2038  1.0955  0.6555
   22SAPC  H13Y 2952   1.667   2.875   8.987  0.0426  0.0241 -0.3872
   22SAPC  C314 2953   1.448   2.840   8.982 -0.1454  0.5933  0.0222
   22SAPC  H14X 2954   1.426   2.945   8.954  1.2250  1.4584  1.9581
   22SAPC  H14Y 2955   1.381   2.810   9.066  1.4863  0.8217  1.4530
   22SAPC  C315 2956   1.448   2.745   8.862  0.2369 -0.5748 -0.2473
   22SAPC  H15X 2957   1.545   2.753   8.810  0.3024 -1.3487 -0.2586
   22SAPC  H15Y 2958   1.368   2.769   8.789 -0.2025 -0.4574  0.2616
   22SAPC  C316 2959   1.444   2.602   8.911 -0.3251 -0.2674 -0.0744
   22SAPC  H16X 2960   1.343   2.596   8.956  0.2825 -0.2778  1.3225
   22SAPC  H16Y 2961   1.530   2.585   8.979  0.2279  0.2448 -0.6316
   22SAPC  C317 2962   1.450   2.509   8.787 -0.4179  0.4047 -0.6060
   22SAPC  H17X 2963   1.535   2.536   8.720 -0.2381 -1.3675 -1.1576
   22SAPC  H17Y 2964   1.359   2.528   8.727 -2.1361 -1.8548  1.1132
   22SAPC  C318 2965   1.456   2.360   8.816 -0.6741  0.0997  0.0689
   22SAPC  H18X 2966   1.481   2.303   8.725  0.5645  1.7398 -0.6606
   22SAPC  H18Y 2967   1.363   2.319   8.860 -1.8235  3.0176  0.5764
   22SAPC  H18Z 2968   1.544   2.340   8.881 -0.0217  0.3291 -0.7373
   23SAPC     N 2969   3.845   0.518  11.010 -0.6432 -0.1062 -0.2505
   23SAPC   C12 2970   3.975   0.600  11.012 -0.6529  0.2451  0.6585
   23SAPC  H12A 2971   4.061   0.541  10.983 -1.0076  1.0858 -2.3787
   23SAPC  H12B 2972   3.994   0.638  11.112  0.6086  3.1928 -0.5971
   23SAPC   C13 2973   3.813   0.463  10.877  0.3696  0.4654  0.2290
   23SAPC  H13A 2974   3.899   0.415  10.832 -0.2113 -1.5471  1.1302
   23SAPC  H13B 2975   3.731   0.394  10.863  0.7756  0.4470 -2.6927
   23SAPC  H13C 2976   3.795   0.544  10.808  2.8639 -0.5985 -1.8517
   23SAPC   C14 2977   3.867   0.404  11.102 -0.7167  0.0669  0.8761
   23SAPC  H14A 2978   3.803   0.319  11.082  2.4512 -1.9194 -1.9020
   23SAPC  H14B 2979   3.962   0.355  11.088 -1.6275 -1.9040  1.2409
   23SAPC  H14C 2980   3.855   0.431  11.206 -0.5554 -1.8558  1.4275
   23SAPC   C15 2981   3.732   0.606  11.053 -0.2101  0.3233 -0.3862
   23SAPC  H15A 2982   3.639   0.557  11.028 -0.7955  0.2946  1.6562
   23SAPC  H15B 2983   3.744   0.627  11.158  2.0644  1.3554 -0.7938
   23SAPC  H15C 2984   3.737   0.700  11.000  0.5216 -1.1517 -3.1402
   23SAPC   C11 2985   3.991   0.725  10.925 -0.0200  0.5500  0.3452
   23SAPC  H11A 2986   4.086   0.775  10.953 -0.7037  1.5564  0.9363
   23SAPC  H11B 2987   3.919   0.807  10.946  0.6179  0.4792  3.1691
   23SAPC     P 2988   4.094   0.615  10.712 -0.1236  0.1071 -0.4978
   23SAPC   O13 2989   4.165   0.710  10.622 -0.1990 -0.2233  0.2877
   23SAPC   O14 2990   4.181   0.531  10.796  0.1294  0.3207 -0.3066
   23SAPC   O12 2991   3.983   0.690  10.787  0.3429  0.7394 -0.3494
   23SAPC   O11 2992   3.997   0.514  10.639 -0.2919 -0.2435  0.2976
   23SAPC    C1 2993   4.036   0.454  10.517 -0.6162  0.6557 -0.0136
   23SAPC    HA 2994   4.001   0.525  10.438 -0.9480  1.2425  0.6530
   23SAPC    HB 2995   4.145   0.446  10.501 -0.2045  2.9246  1.2567
   23SAPC    C2 2996   3.966   0.311  10.504 -0.8535 -0.2688  0.1810
   23SAPC    HS 2997   4.005   0.241  10.581  0.9423  1.9649  1.4299
   23SAPC   O21 2998   3.999   0.265  10.374 -0.2797 -0.2867 -0.4639
   23SAPC   C21 2999   3.987   0.140  10.348 -0.8288 -0.5951 -0.4562
   23SAPC   O22 3000   3.941   0.053  10.418 -0.2288  0.3006 -0.1725
   23SAPC   C22 3001   4.026   0.128  10.204 -0.5960 -0.2775  0.5068
   23SAPC   H2R 3002   3.944   0.182  10.153 -3.0685 -1.5779  2.8239
   23SAPC   H2S 3003   4.120   0.187  10.197 -1.1451  0.9071  2.2723
   23SAPC    C3 3004   3.809   0.317  10.521 -0.8434 -0.7245  0.5052
   23SAPC    HX 3005   3.785   0.366  10.618  0.5697  2.3960 -0.5600
   23SAPC    HY 3006   3.760   0.219  10.538  0.7270 -1.2557  2.3396
   23SAPC   O31 3007   3.744   0.394  10.409  0.4121 -0.1729 -0.6106
   23SAPC   C31 3008   3.682   0.316  10.323 -0.5178  0.1788  0.0662
   23SAPC   O32 3009   3.691   0.197  10.323 -0.0451 -0.0589  0.5716
   23SAPC   C32 3010   3.586   0.401  10.244 -0.0326 -0.3794  0.6731
   23SAPC   H2X 3011   3.597   0.507  10.273 -3.1915 -0.2030  1.5609
   23SAPC   H2Y 3012   3.483   0.365  10.262 -0.6373 -0.0606 -1.8480
   23SAPC   C23 3013   4.025  -0.019  10.143  0.0378  0.1109 -0.6411
   23SAPC   H3R 3014   3.920  -0.057  10.138  0.2388 -0.4524 -0.6146
   23SAPC   H3S 3015   4.083  -0.081  10.214 -0.6788 -0.5004 -0.5729
   23SAPC   C24 3016   4.078  -0.008   9.997  0.9415 -0.0444 -0.0399
   23SAPC   H4R 3017   4.063  -0.111   9.957  1.0267 -0.3133  0.6209
   23SAPC   H4S 3018   4.183   0.024  10.011  0.7326  0.3326  0.7022
   23SAPC   C25 3019   4.008   0.093   9.909  0.3827 -0.3706  0.6640
   23SAPC   H5R 3020   4.066   0.182   9.881 -0.6045 -0.2847 -1.2759
   23SAPC   C26 3021   3.885   0.085   9.849  0.8150  0.4537 -0.6223
   23SAPC   H6R 3022   3.854   0.161   9.775  0.3148  1.2654  0.3945
   23SAPC   C27 3023   3.783  -0.036   9.861 -1.2508  0.0980 -0.8749
   23SAPC   H7R 3024   3.818  -0.107   9.939 -0.3738  1.0934 -0.3274
   23SAPC   H7S 3025   3.783  -0.091   9.764 -0.6319 -2.3714  0.4349
   23SAPC   C28 3026   3.642   0.007   9.889  0.6900  0.2518 -0.1032
   23SAPC   H8R 3027   3.607  -0.009   9.992  1.0223  0.7903  0.0989
   23SAPC   C29 3028   3.552   0.058   9.800 -0.1916 -0.6070  0.1335
   23SAPC   H9R 3029   3.447   0.078   9.824 -0.0849 -0.3457  0.3835
   23SAPC  C210 3030   3.582   0.087   9.651  0.7391  0.3209  0.4529
   23SAPC  H10R 3031   3.617  -0.009   9.608 -0.4858 -0.9539  2.1001
   23SAPC  H10S 3032   3.677   0.143   9.639  2.0074 -1.7487  0.3320
   23SAPC  C211 3033   3.474   0.158   9.581  0.2419 -0.6881  0.2595
   23SAPC  H11R 3034   3.392   0.202   9.638  1.5136  0.4078  1.3020
   23SAPC  C212 3035   3.464   0.182   9.453  0.9887 -0.3823  0.1987
   23SAPC  H12R 3036   3.390   0.256   9.417 -1.5633 -3.6182 -1.7955
   23SAPC  C213 3037   3.562   0.133   9.347  0.0568 -0.4335 -0.3258
   23SAPC  H13R 3038   3.625   0.058   9.400 -1.2512  0.7847  3.2184
   23SAPC  H13S 3039   3.643   0.205   9.323 -1.5316  0.8565 -2.1339
   23SAPC  C214 3040   3.507   0.078   9.218  0.6670  0.3459  0.8121
   23SAPC  H14R 3041   3.398   0.082   9.210  0.7161 -0.0078 -0.2200
   23SAPC  C215 3042   3.580   0.016   9.120 -0.8584  0.5297  0.6039
   23SAPC  H15R 3043   3.529  -0.023   9.031 -1.6871  2.3696  0.2223
   23SAPC  C216 3044   3.731  -0.018   9.112  0.7120  0.6005 -0.2205
   23SAPC  H16R 3045   3.784   0.025   9.200  1.4787 -1.3048  0.2795
   23SAPC  H16S 3046   3.792   0.016   9.026  3.0113 -0.3073  0.9502
   23SAPC  C217 3047   3.757  -0.175   9.124  0.4821  0.5148  1.0161
   23SAPC  H17R 3048   3.704  -0.217   9.036  0.3636 -2.3120  2.3514
   23SAPC  H17S 3049   3.703  -0.220   9.210 -1.1772  1.2017  0.3870
   23SAPC  C218 3050   3.911  -0.219   9.123 -0.0146  0.2240 -0.0815
   23SAPC  H18R 3051   3.905  -0.330   9.125  0.5111  0.2015  0.6069
   23SAPC  H18S 3052   3.968  -0.193   9.215  0.1377 -2.2334  0.5877
   23SAPC  C219 3053   3.979  -0.182   8.993 -0.2450  0.2953  0.3298
   23SAPC  H19R 3054   4.007  -0.075   8.990  1.4386 -0.1329 -0.8162
   23SAPC  H19S 3055   3.923  -0.215   8.903 -1.1756 -1.2910  1.4494
   23SAPC  C220 3056   4.118  -0.255   8.988  0.3134  0.3684  0.3870
   23SAPC  H20R 3057   4.163  -0.238   8.888 -1.9422  1.1058 -0.5657
   23SAPC  H20S 3058   4.097  -0.361   9.011 -2.1717  0.4259 -1.2107
   23SAPC  H20T 3059   4.179  -0.205   9.067  1.0603 -0.8472  0.5996
   23SAPC   C33 3060   3.618   0.388  10.094  0.2986  0.0953 -0.1821
   23SAPC   H3X 3061   3.608   0.281  10.065  0.1629 -0.0490  0.3794
   23SAPC   H3Y 3062   3.727   0.407  10.087  0.4489 -1.0952 -1.6781
   23SAPC   C34 3063   3.544   0.494  10.009  0.1945 -0.1087 -0.7879
   23SAPC   H4X 3064   3.566   0.593  10.053 -0.7898 -0.2431  0.0409
   23SAPC   H4Y 3065   3.433   0.485  10.016  0.2674 -0.7862 -0.3525
   23SAPC   C35 3066   3.572   0.487   9.865  0.5121  0.1689  0.3857
   23SAPC   H5X 3067   3.536   0.387   9.833 -2.2049  1.3054 -0.4089
   23SAPC   H5Y 3068   3.679   0.506   9.843 -0.0528  1.3696 -1.6036
   23SAPC   C36 3069   3.498   0.582   9.774  0.5750  0.0778 -0.0620
   23SAPC   H6X 3070   3.552   0.679   9.775 -1.0605  1.1293 -3.1558
   23SAPC   H6Y 3071   3.397   0.605   9.815  1.1624  0.8756  0.9974
   23SAPC   C37 3072   3.489   0.548   9.624 -0.4115 -0.0382 -0.0397
   23SAPC   H7X 3073   3.460   0.441   9.616  2.3168 -0.8183 -0.3616
   23SAPC   H7Y 3074   3.585   0.561   9.569  0.0784 -1.0651  0.5666
   23SAPC   C38 3075   3.375   0.634   9.568  0.5653 -0.1090  0.9541
   23SAPC   H8X 3076   3.392   0.738   9.601  4.0913  0.3803 -1.8564
   23SAPC   H8Y 3077   3.288   0.592   9.623 -0.7141 -0.2258 -1.0474
   23SAPC   C39 3078   3.348   0.625   9.421  0.4365  0.5803  0.4464
   23SAPC   H9X 3079   3.432   0.680   9.374 -0.1603  1.0709 -0.0671
   23SAPC   H9Y 3080   3.256   0.684   9.401  0.5883  0.0740 -2.2113
   23SAPC  C310 3081   3.338   0.489   9.355 -0.1894 -0.9223 -0.4708
   23SAPC  H10X 3082   3.256   0.426   9.398  0.1121 -0.6138  0.5934
   23SAPC  H10Y 3083   3.439   0.444   9.365 -0.1832 -1.2038 -1.7179
   23SAPC  C311 3084   3.309   0.495   9.205  0.0396 -0.1471  0.8235
   23SAPC  H11X 3085   3.383   0.557   9.150  0.2611 -0.8078  0.3658
   23SAPC  H11Y 3086   3.209   0.538   9.186  0.9776  0.5515 -3.4549
   23SAPC  C312 3087   3.299   0.360   9.141 -0.7569 -0.4505  0.1978
   23SAPC  H12X 3088   3.248   0.284   9.205  1.1587 -1.6489  0.3967
   23SAPC  H12Y 3089   3.407   0.336   9.144 -0.4598  0.8806  1.4653
   23SAPC  C313 3090   3.253   0.343   8.991  0.4504 -0.2813  0.8310
   23SAPC  H13X 3091   3.290   0.427   8.929  0.5945 -1.5571 -0.8769
   23SAPC  H13Y 3092   3.143   0.359   8.984  0.8676  2.4174 -1.9071
   23SAPC  C314 3093   3.306   0.208   8.935 -0.7834 -0.0628  0.5742
   23SAPC  H14X 3094   3.282   0.123   9.002 -0.3807  0.9396  2.0538
   23SAPC  H14Y 3095   3.416   0.215   8.923 -0.8483 -0.3027 -0.2390
   23SAPC  C315 3096   3.245   0.171   8.792 -0.1726  0.0118  0.3118
   23SAPC  H15X 3097   3.285   0.238   8.713  1.4035 -1.5073 -0.2439
   23SAPC  H15Y 3098   3.134   0.170   8.795 -0.5038 -0.3190 -4.5151
   23SAPC  C316 3099   3.294   0.030   8.747 -0.2238  0.0981  0.3630
   23SAPC  H16X 3100   3.257  -0.056   8.808  1.3290 -2.3677 -1.9629
   23SAPC  H16Y 3101   3.403   0.020   8.768  0.4585 -1.0102 -3.1004
   23SAPC  C317 3102   3.270  -0.013   8.603 -0.2535  0.3380  1.0188
   23SAPC  H17X 3103   3.302  -0.120   8.605  0.9917  0.6996  0.8013
   23SAPC  H17Y 3104   3.333   0.041   8.530  1.0984 -0.4237  1.5792
   23SAPC  C318 3105   3.126   0.009   8.558 -0.0268  0.8819  0.1506
   23SAPC  H18X 3106   3.106  -0.021   8.453 -1.6586 -2.0636  1.1914
   23SAPC  H18Y 3107   3.108   0.119   8.556  1.1735  1.2683  3.5884
   23SAPC  H18Z 3108   3.052  -0.032   8.630 -1.7196  0.7265 -1.6173
   24SAPC     N 3109   0.167   5.259  11.336  0.3565 -0.4911 -0.1202
   24SAPC   C12 3110   0.228   5.208  11.209  0.1313  0.2901 -0.8075
   24SAPC  H12A 3111   0.216   5.101  11.203  4.1800 -0.4333  0.7342
   24SAPC  H12B 3112   0.335   5.225  11.211 -0.0733  1.7265 -0.9009
   24SAPC   C13 3113   0.190   5.401  11.357 -0.0272 -0.1709 -0.0476
   24SAPC  H13A 3114   0.293   5.432  11.369 -0.0742 -0.5702  1.6331
   24SAPC  H13B 3115   0.150   5.466  11.281  1.8602  2.1998  0.8537
   24SAPC  H13C 3116   0.131   5.428  11.443 -1.4088 -0.4287 -0.8869
   24SAPC   C14 3117   0.023   5.224  11.341  0.6563 -0.4554  0.1938
   24SAPC  H14A 3118  -0.028   5.263  11.254  1.0222 -0.2731  0.0614
   24SAPC  H14B 3119   0.010   5.117  11.338  2.4836 -0.7184  0.4205
   24SAPC  H14C 3120  -0.029   5.256  11.430  0.6325 -1.8154  0.6935
   24SAPC   C15 3121   0.239   5.183  11.443 -0.0678  0.2953 -0.0451
   24SAPC  H15A 3122   0.168   5.161  11.522  0.9659 -1.9102  0.3299
   24SAPC  H15B 3123   0.269   5.084  11.415 -0.1236  0.2568  0.0325
   24SAPC  H15C 3124   0.327   5.231  11.483  0.8466 -0.8535 -0.6451
   24SAPC   C11 3125   0.173   5.275  11.075  0.3574  0.1635 -0.1325
   24SAPC  H11A 3126   0.064   5.256  11.067  0.6759 -1.1177 -2.2992
   24SAPC  H11B 3127   0.213   5.211  10.993  1.0053  2.9193 -2.1134
   24SAPC     P 3128   0.347   5.455  11.004  0.2138 -0.1459  0.4860
   24SAPC   O13 3129   0.373   5.599  11.024  0.4401 -0.0176 -0.6992
   24SAPC   O14 3130   0.447   5.358  11.054 -0.0838 -0.1158 -0.3602
   24SAPC   O12 3131   0.212   5.414  11.060  0.5543  0.2298 -0.6697
   24SAPC   O11 3132   0.333   5.434  10.845 -0.6851  0.2017 -0.2735
   24SAPC    C1 3133   0.213   5.477  10.790 -0.3969  0.4297  0.3234
   24SAPC    HA 3134   0.167   5.398  10.727 -0.0904  0.4323  0.0955
   24SAPC    HB 3135   0.138   5.516  10.862 -0.1527  1.8849 -0.1689
   24SAPC    C2 3136   0.251   5.577  10.670  1.0840 -0.3328 -0.0235
   24SAPC    HS 3137   0.155   5.630  10.651  0.1652 -1.5508  1.0605
   24SAPC   O21 3138   0.284   5.500  10.560  0.5690 -0.5457  0.5296
   24SAPC   C21 3139   0.243   5.524  10.438  0.4841 -0.2746 -0.8639
   24SAPC   O22 3140   0.141   5.585  10.406  0.2725  0.4746  0.0819
   24SAPC   C22 3141   0.353   5.477  10.339 -0.6632 -0.0912 -0.0971
   24SAPC   H2R 3142   0.410   5.569  10.313 -3.0920  1.2706 -0.8877
   24SAPC   H2S 3143   0.427   5.416  10.396 -0.5264  0.3223  0.1743
   24SAPC    C3 3144   0.354   5.674  10.709  0.6058 -0.5314  0.2046
   24SAPC    HX 3145   0.451   5.620  10.710  0.6452 -0.4548  0.7317
   24SAPC    HY 3146   0.323   5.715  10.807  2.6274 -0.0502  0.6983
   24SAPC   O31 3147   0.375   5.777  10.611  0.4483 -0.0844 -0.4858
   24SAPC   C31 3148   0.309   5.897  10.618 -0.3497  0.2804 -0.2157
   24SAPC   O32 3149   0.241   5.935  10.709 -0.2726  0.0911  0.1598
   24SAPC   C32 3150   0.354   5.977  10.492  0.2829 -0.1799  0.0624
   24SAPC   H2X 3151   0.462   5.953  10.480 -0.2694 -2.3113 -1.1711
   24SAPC   H2Y 3152   0.331   6.083  10.513 -1.0283 -0.0899 -1.6074
   24SAPC   C23 3153   0.304   5.404  10.207 -0.3095 -0.5725 -0.2226
   24SAPC   H3R 3154   0.393   5.383  10.144 -1.8730 -0.0374 -2.7382
   24SAPC   H3S 3155   0.229   5.470  10.159 -0.8701 -1.1779 -0.1998
   24SAPC   C24 3156   0.236   5.263  10.241  0.2250 -0.1634 -0.4541
   24SAPC   H4R 3157   0.175   5.265  10.333  1.1265 -1.3536  0.1886
   24SAPC   H4S 3158   0.319   5.191  10.254  0.3974  0.2315  0.7860
   24SAPC   C25 3159   0.147   5.222  10.126  0.1453  0.0464  0.1195
   24SAPC   H5R 3160   0.063   5.289  10.101 -2.4971 -3.6184 -1.9281
   24SAPC   C26 3161   0.169   5.129  10.034 -0.2738 -0.5513  0.1524
   24SAPC   H6R 3162   0.121   5.145   9.937  0.7096  1.4144 -0.0584
   24SAPC   C27 3163   0.287   5.030  10.021 -0.2139  0.3699 -0.6241
   24SAPC   H7R 3164   0.369   5.082  10.074 -0.4305  0.8832 -0.7875
   24SAPC   H7S 3165   0.336   5.010   9.923  1.6651  1.6567  0.0194
   24SAPC   C28 3166   0.261   4.896  10.084 -0.8025  0.2661 -0.9006
   24SAPC   H8R 3167   0.269   4.890  10.193  0.6903  0.0874 -0.9970
   24SAPC   C29 3168   0.236   4.786  10.010  0.5101  0.0842 -0.1982
   24SAPC   H9R 3169   0.201   4.695  10.062  0.8452 -0.2392 -0.5271
   24SAPC  C210 3170   0.215   4.774   9.858  0.5853  0.2923  0.4173
   24SAPC  H10R 3171   0.285   4.842   9.806 -0.4814  2.3077  1.4960
   24SAPC  H10S 3172   0.113   4.814   9.842  0.4041 -0.4846 -0.4805
   24SAPC  C211 3173   0.241   4.634   9.814 -1.1846 -0.9412 -0.6739
   24SAPC  H11R 3174   0.305   4.571   9.877  0.6728 -1.1014 -2.6087
   24SAPC  C212 3175   0.181   4.566   9.720 -0.5340  0.3873  0.5610
   24SAPC  H12R 3176   0.207   4.461   9.700  2.5015  1.3098 -0.7691
   24SAPC  C213 3177   0.077   4.615   9.623  0.6023  0.4820 -0.2366
   24SAPC  H13R 3178   0.115   4.660   9.529  0.0256  0.6022 -0.4155
   24SAPC  H13S 3179   0.020   4.701   9.664 -0.7601 -1.0720  1.2947
   24SAPC  C214 3180  -0.011   4.496   9.592  0.0491 -0.8766 -0.0255
   24SAPC  H14R 3181  -0.057   4.444   9.677  1.9582 -0.2265  1.4869
   24SAPC  C215 3182  -0.010   4.441   9.462  0.6380  0.3144 -0.7487
   24SAPC  H15R 3183  -0.068   4.350   9.444 -1.3906  1.3758  0.1793
   24SAPC  C216 3184   0.072   4.492   9.344  0.8069  1.0413  0.3646
   24SAPC  H16R 3185   0.100   4.403   9.283 -0.0914  1.8023 -1.2166
   24SAPC  H16S 3186   0.168   4.542   9.370  2.1287  0.1852 -2.3944
   24SAPC  C217 3187   0.001   4.582   9.238  0.3459 -0.6836  0.5993
   24SAPC  H17R 3188   0.074   4.618   9.162 -0.4603  0.7270  0.4710
   24SAPC  H17S 3189  -0.028   4.674   9.293  4.6204 -0.0457  2.1590
   24SAPC  C218 3190  -0.117   4.518   9.164 -0.2836 -0.0449 -1.0924
   24SAPC  H18R 3191  -0.182   4.488   9.250  3.4454  2.4910  3.0446
   24SAPC  H18S 3192  -0.072   4.431   9.113 -0.0162  0.3626 -1.5518
   24SAPC  C219 3193  -0.181   4.604   9.064  0.1111  0.1696 -0.5202
   24SAPC  H19R 3194  -0.108   4.620   8.982 -0.7335  0.1455 -1.2951
   24SAPC  H19S 3195  -0.194   4.700   9.118  0.0584  0.0555 -0.3292
   24SAPC  C220 3196  -0.302   4.545   8.993  0.0278  0.1877 -0.2308
   24SAPC  H20R 3197  -0.342   4.602   8.906  1.2873  0.2083 -0.8195
   24SAPC  H20S 3198  -0.386   4.524   9.063  1.5630 -1.4531  1.1786
   24SAPC  H20T 3199  -0.267   4.451   8.946 -2.4072 -0.7742 -0.2792
   24SAPC   C33 3200   0.282   5.932  10.364  0.1969  0.2624  0.2026
   24SAPC   H3X 3201   0.301   5.822  10.364 -1.0289 -0.0523  3.3894
   24SAPC   H3Y 3202   0.333   5.990  10.284  0.2731  2.0095  1.4733
   24SAPC   C34 3203   0.128   5.951  10.353  0.8893  0.9429  0.9421
   24SAPC   H4X 3204   0.100   6.058  10.342  2.3563  1.1971 -0.9476
   24SAPC   H4Y 3205   0.083   5.899  10.440  1.7795 -0.1755  0.7590
   24SAPC   C35 3206   0.070   5.881  10.230 -0.6312 -0.5797  0.1847
   24SAPC   H5X 3207  -0.015   5.936  10.183  0.2704  0.6556 -0.0513
   24SAPC   H5Y 3208   0.032   5.779  10.253  0.8660 -0.8712  1.4923
   24SAPC   C36 3209   0.172   5.870  10.119  0.2936  1.1835  0.0885
   24SAPC   H6X 3210   0.255   5.801  10.146  1.0147  2.6596  1.8826
   24SAPC   H6Y 3211   0.212   5.971  10.097  1.6053  1.0085  1.4753
   24SAPC   C37 3212   0.114   5.814   9.989 -0.1977  0.1068  0.0198
   24SAPC   H7X 3213   0.158   5.877   9.908 -2.2125 -0.5473 -1.6772
   24SAPC   H7Y 3214   0.006   5.836   9.974 -0.4553 -2.5978 -3.4445
   24SAPC   C38 3215   0.152   5.664   9.967  0.5905  0.2127  0.6366
   24SAPC   H8X 3216   0.125   5.602  10.055 -1.2623 -0.8358 -0.5839
   24SAPC   H8Y 3217   0.262   5.665   9.958  0.8019 -3.2808  1.4019
   24SAPC   C39 3218   0.107   5.593   9.837 -0.1426  0.0300  0.7519
   24SAPC   H9X 3219   0.134   5.649   9.745 -0.6859 -2.6677 -1.2037
   24SAPC   H9Y 3220  -0.003   5.578   9.837  0.0152 -1.4227 -0.2976
   24SAPC  C310 3221   0.171   5.454   9.833 -0.5368 -0.1400 -0.1981
   24SAPC  H10X 3222   0.119   5.384   9.900  0.5732  0.7801  1.7230
   24SAPC  H10Y 3223   0.276   5.461   9.869 -0.8083  0.3269  0.5318
   24SAPC  C311 3224   0.156   5.384   9.692 -0.1019  0.0274  0.5186
   24SAPC  H11X 3225   0.200   5.457   9.620  0.2530  0.2531  0.9563
   24SAPC  H11Y 3226   0.050   5.366   9.664  0.2545 -2.2601  0.4449
   24SAPC  C312 3227   0.224   5.250   9.674 -0.0937  0.0182 -0.3296
   24SAPC  H12X 3228   0.181   5.179   9.747  1.3789 -1.4276 -0.7986
   24SAPC  H12Y 3229   0.330   5.261   9.707 -0.7960  0.7318  1.7993
   24SAPC  C313 3230   0.216   5.187   9.534  0.0732  0.9669  0.3689
   24SAPC  H13X 3231   0.244   5.252   9.448  1.3038 -0.7354 -0.5790
   24SAPC  H13Y 3232   0.107   5.167   9.518  0.0952  0.9274  0.2676
   24SAPC  C314 3233   0.294   5.051   9.532 -0.1693  0.0700  0.7867
   24SAPC  H14X 3234   0.300   5.011   9.635 -1.7596  0.3021  1.0000
   24SAPC  H14Y 3235   0.399   5.076   9.507 -0.4626 -0.0080 -0.6529
   24SAPC  C315 3236   0.239   4.955   9.427  0.2718 -0.0309  0.0058
   24SAPC  H15X 3237   0.128   4.959   9.437  0.2978 -0.5927  0.5666
   24SAPC  H15Y 3238   0.285   4.858   9.453  0.8622  0.2193 -0.0991
   24SAPC  C316 3239   0.266   4.997   9.279  0.4147 -0.1274  0.2909
   24SAPC  H16X 3240   0.374   5.016   9.261  0.1180  0.9301 -0.5155
   24SAPC  H16Y 3241   0.219   5.098   9.273  0.0219 -0.2644  0.9609
   24SAPC  C317 3242   0.218   4.895   9.173 -0.5702 -0.4546 -0.5578
   24SAPC  H17X 3243   0.132   4.837   9.211 -1.0397 -0.5135 -1.6783
   24SAPC  H17Y 3244   0.301   4.822   9.177  1.3020  1.4911 -1.5378
   24SAPC  C318 3245   0.208   4.954   9.033  0.4412 -0.5294  0.0806
   24SAPC  H18X 3246   0.309   4.973   8.991  0.9557  0.4920  1.6924
   24SAPC  H18Y 3247   0.155   5.051   9.039  0.3876 -0.4379 -1.5676
   24SAPC  H18Z 3248   0.156   4.879   8.970  2.6507 -0.3709 -2.0917
   25SAPC     N 3249   5.338   3.936   6.121  0.3920 -0.6772 -0.9814
   25SAPC   C12 3250   5.377   4.025   6.237 -0.5297  0.6339  0.0720
   25SAPC  H12A 3251   5.287   4.040   6.294 -2.0397 -3.5688 -0.7966
   25SAPC  H12B 3252   5.402   4.124   6.203 -1.3157  1.0070  0.5730
   25SAPC   C13 3253   5.445   3.933   6.024 -0.2297 -0.2103 -0.7103
   25SAPC  H13A 3254   5.420   3.870   5.940  0.1150  0.6198 -1.4379
   25SAPC  H13B 3255   5.475   4.032   5.996  1.0600  0.5502  2.8640
   25SAPC  H13C 3256   5.530   3.889   6.074 -0.4919  0.1046  0.0356
   25SAPC   C14 3257   5.309   3.792   6.164  0.4646  0.5311  0.0692
   25SAPC  H14A 3258   5.238   3.777   6.243  0.1420 -0.4735 -0.3894
   25SAPC  H14B 3259   5.297   3.726   6.079  1.4593  0.2817  0.1088
   25SAPC  H14C 3260   5.403   3.757   6.204  0.4161 -0.3057 -0.5126
   25SAPC   C15 3261   5.223   3.997   6.046 -1.1101 -0.7518  0.4057
   25SAPC  H15A 3262   5.232   4.100   6.015 -0.6522 -1.1823 -0.9920
   25SAPC  H15B 3263   5.210   3.939   5.956 -1.2345 -0.1236  0.0132
   25SAPC  H15C 3264   5.136   4.004   6.109 -0.0466  1.0367  1.7743
   25SAPC   C11 3265   5.485   3.961   6.333  1.3878 -0.1131  0.3948
   25SAPC  H11A 3266   5.453   3.864   6.377  1.6949 -1.3801 -2.0126
   25SAPC  H11B 3267   5.492   4.033   6.417  0.0461  1.1501 -0.5408
   25SAPC     P 3268   5.729   4.041   6.297 -0.0157 -0.1681  0.5801
   25SAPC   O13 3269   5.850   3.985   6.228 -0.1693 -0.6589  0.1161
   25SAPC   O14 3270   5.694   4.187   6.277  0.2759  0.1976  0.2882
   25SAPC   O12 3271   5.607   3.942   6.271  0.2941  0.0103  0.9620
   25SAPC   O11 3272   5.757   4.011   6.448  0.3592 -0.2391  0.6532
   25SAPC    C1 3273   5.766   3.885   6.515 -0.4976  0.2794 -0.2928
   25SAPC    HA 3274   5.665   3.844   6.537 -0.5815  0.9185  0.6023
   25SAPC    HB 3275   5.814   3.804   6.458 -0.8791  0.6843 -1.2089
   25SAPC    C2 3276   5.849   3.894   6.654  0.1218 -0.0298  0.3470
   25SAPC    HS 3277   5.879   3.792   6.686  1.8627  0.7192  1.2636
   25SAPC   O21 3278   5.774   3.958   6.763  0.2218 -0.0739 -0.7161
   25SAPC   C21 3279   5.659   3.920   6.807  0.5096 -0.7636  0.6672
   25SAPC   O22 3280   5.584   3.830   6.765 -1.1978  0.0051  0.0240
   25SAPC   C22 3281   5.622   4.007   6.925 -0.1296  0.2022 -0.0985
   25SAPC   H2R 3282   5.682   4.100   6.913  0.6536 -0.2111  0.5149
   25SAPC   H2S 3283   5.513   4.026   6.919 -0.4624 -1.9278 -2.5889
   25SAPC    C3 3284   5.991   3.968   6.634  0.0737  0.1765  0.2249
   25SAPC    HX 3285   5.967   4.076   6.631  1.1258  0.5794  2.9283
   25SAPC    HY 3286   6.044   3.954   6.538 -0.9267 -2.2255 -0.0600
   25SAPC   O31 3287   6.074   3.965   6.755 -0.8327  0.1755  0.2106
   25SAPC   C31 3288   6.151   3.856   6.757 -0.0714 -0.1338 -0.1391
   25SAPC   O32 3289   6.151   3.765   6.677 -0.4418  0.2343  0.2980
   25SAPC   C32 3290   6.239   3.859   6.886  0.1355 -0.2825 -0.5463
   25SAPC   H2X 3291   6.168   3.848   6.970  1.1634  0.1029  0.3892
   25SAPC   H2Y 3292   6.278   3.962   6.897  0.6870 -0.4914 -0.4971
   25SAPC   C23 3293   5.645   3.928   7.053  0.0937 -0.6095 -0.4492
   25SAPC   H3R 3294   5.743   3.876   7.048  0.6486  0.3043  0.5499
   25SAPC   H3S 3295   5.574   3.844   7.066 -0.1557 -1.0671 -3.8832
   25SAPC   C24 3296   5.625   4.022   7.168 -0.5632  0.0499  0.4743
   25SAPC   H4R 3297   5.531   4.073   7.138 -0.4902 -1.2095 -2.1814
   25SAPC   H4S 3298   5.700   4.104   7.161 -0.4602 -0.1428 -0.9700
   25SAPC   C25 3299   5.633   3.957   7.308  0.0827 -0.3865  0.0559
   25SAPC   H5R 3300   5.565   3.871   7.322  0.8358 -0.5828  3.3034
   25SAPC   C26 3301   5.696   3.990   7.414 -0.1663  0.1704 -0.6712
   25SAPC   H6R 3302   5.683   3.925   7.502  0.6589  1.6335  0.5851
   25SAPC   C27 3303   5.786   4.104   7.443 -0.2692  0.0944  0.5716
   25SAPC   H7R 3304   5.729   4.152   7.525 -0.9412  0.8749 -0.3277
   25SAPC   H7S 3305   5.787   4.169   7.353  1.3477 -0.5453  0.0833
   25SAPC   C28 3306   5.929   4.059   7.479  0.1923 -0.4267  0.3114
   25SAPC   H8R 3307   5.979   3.993   7.408 -1.7970 -2.6166  0.8310
   25SAPC   C29 3308   5.998   4.103   7.590 -0.0495 -0.0030 -0.1412
   25SAPC   H9R 3309   6.092   4.051   7.612 -0.5980 -0.2482  1.9077
   25SAPC  C210 3310   5.951   4.210   7.688 -0.1104 -0.5594  0.1270
   25SAPC  H10R 3311   5.851   4.250   7.661  0.5991  1.1330 -0.1237
   25SAPC  H10S 3312   6.023   4.293   7.671 -0.6471 -0.3304 -1.1679
   25SAPC  C211 3313   5.949   4.164   7.824  0.0035 -0.0206 -0.7032
   25SAPC  H11R 3314   5.957   4.054   7.826 -1.6077 -0.2107 -2.3413
   25SAPC  C212 3315   5.932   4.231   7.940 -0.6017  0.4027 -0.2991
   25SAPC  H12R 3316   5.920   4.181   8.037  1.3416  3.2884  1.5720
   25SAPC  C213 3317   5.915   4.381   7.963 -0.3162  0.2962  0.2907
   25SAPC  H13R 3318   5.927   4.432   7.865 -0.3037  0.2121  0.2495
   25SAPC  H13S 3319   5.997   4.427   8.022 -1.0770  3.2157 -0.7438
   25SAPC  C214 3320   5.780   4.417   8.022 -0.4327  0.0388  0.4721
   25SAPC  H14R 3321   5.703   4.445   7.948  0.2273  2.7019  0.6864
   25SAPC  C215 3322   5.761   4.453   8.149  0.6017 -0.0101 -0.5739
   25SAPC  H15R 3323   5.665   4.496   8.182  1.0183  3.2605 -3.1095
   25SAPC  C216 3324   5.866   4.460   8.257  0.1196  0.1248 -0.7107
   25SAPC  H16R 3325   5.957   4.404   8.227 -0.2094 -2.1238  2.1328
   25SAPC  H16S 3326   5.832   4.422   8.355  1.8634 -0.7331 -0.4057
   25SAPC  C217 3327   5.900   4.609   8.279  0.0382  0.4444 -0.0416
   25SAPC  H17R 3328   5.810   4.670   8.300  1.4551  1.6762  2.8961
   25SAPC  H17S 3329   5.943   4.665   8.193  0.7908  1.0144  0.6978
   25SAPC  C218 3330   6.002   4.650   8.385  0.0206  0.4185 -0.0756
   25SAPC  H18R 3331   5.981   4.758   8.398 -1.2306  0.1517  0.1846
   25SAPC  H18S 3332   6.104   4.637   8.341 -0.6369  0.4244 -1.6853
   25SAPC  C219 3333   5.993   4.583   8.519 -0.5818  0.3373  0.6851
   25SAPC  H19R 3334   6.000   4.473   8.509  3.0478  0.5452 -0.3236
   25SAPC  H19S 3335   5.894   4.614   8.559 -0.8764  1.3651 -0.7431
   25SAPC  C220 3336   6.105   4.627   8.607  0.2555  0.1715  0.5733
   25SAPC  H20R 3337   6.108   4.572   8.703  0.1036 -0.8191  0.0276
   25SAPC  H20S 3338   6.091   4.737   8.614 -0.5278  0.4742 -3.1890
   25SAPC  H20T 3339   6.201   4.609   8.554 -0.6521 -0.6030 -0.9053
   25SAPC   C33 3340   6.352   3.749   6.886 -0.5815  0.3677  0.1937
   25SAPC   H3X 3341   6.403   3.755   6.787  0.5961  0.2976  0.7882
   25SAPC   H3Y 3342   6.308   3.648   6.897  1.2337 -1.0184 -3.4634
   25SAPC   C34 3343   6.454   3.773   7.002  0.9646  0.2763 -0.2385
   25SAPC   H4X 3344   6.512   3.866   6.984  0.0427  0.8692 -0.2033
   25SAPC   H4Y 3345   6.538   3.699   7.002  1.1196  0.4345  1.4086
   25SAPC   C35 3346   6.384   3.771   7.142 -0.2251  0.2280  0.3201
   25SAPC   H5X 3347   6.328   3.675   7.143 -0.1704  0.1773  1.7311
   25SAPC   H5Y 3348   6.309   3.852   7.150 -1.8384 -1.2210  0.3671
   25SAPC   C36 3349   6.489   3.776   7.258  0.6216 -0.2410  0.1039
   25SAPC   H6X 3350   6.555   3.866   7.263  0.1141  0.1948 -0.8954
   25SAPC   H6Y 3351   6.554   3.687   7.242  2.2077  0.5949  1.5170
   25SAPC   C37 3352   6.414   3.762   7.387 -0.8928  0.8945 -0.0351
   25SAPC   H7X 3353   6.332   3.686   7.382  0.6329 -0.9585  1.7528
   25SAPC   H7Y 3354   6.362   3.857   7.413 -0.0428  0.8689  1.9326
   25SAPC   C38 3355   6.507   3.717   7.503  0.5731 -0.3903 -0.8615
   25SAPC   H8X 3356   6.599   3.779   7.507 -0.1919  0.7315  0.5630
   25SAPC   H8Y 3357   6.531   3.612   7.476 -1.1753 -0.1747 -3.7077
   25SAPC   C39 3358   6.444   3.708   7.646 -0.1360  0.4215 -0.5194
   25SAPC   H9X 3359   6.357   3.638   7.644  0.9408 -1.0409  0.9409
   25SAPC   H9Y 3360   6.404   3.807   7.676 -2.1565  0.1545 -2.1140
   25SAPC  C310 3361   6.537   3.658   7.750 -0.1345 -0.4056 -0.1508
   25SAPC  H10X 3362   6.618   3.733   7.760 -2.0452  1.6703  0.4793
   25SAPC  H10Y 3363   6.581   3.562   7.715 -1.2717 -0.6835 -0.9025
   25SAPC  C311 3364   6.486   3.630   7.891  0.1191  0.9665 -0.1075
   25SAPC  H11X 3365   6.401   3.560   7.877  0.4740  0.3791  0.6128
   25SAPC  H11Y 3366   6.453   3.723   7.943  0.6647  1.4079 -0.5312
   25SAPC  C312 3367   6.594   3.558   7.982  0.4114  0.0560 -0.4898
   25SAPC  H12X 3368   6.674   3.633   8.000  0.7518 -0.7080  1.4123
   25SAPC  H12Y 3369   6.647   3.480   7.924  2.7377  1.1398  0.0706
   25SAPC  C313 3370   6.541   3.494   8.113 -1.4285  1.0317  0.6711
   25SAPC  H13X 3371   6.625   3.434   8.152  0.1217  2.1748 -0.7399
   25SAPC  H13Y 3372   6.464   3.416   8.095 -1.3232  1.1691 -0.4975
   25SAPC  C314 3373   6.485   3.593   8.213  0.0649 -0.0743  0.8500
   25SAPC  H14X 3374   6.382   3.621   8.183  0.6550  2.2140  0.7803
   25SAPC  H14Y 3375   6.540   3.690   8.207 -0.0113 -0.0070  1.2186
   25SAPC  C315 3376   6.490   3.535   8.357 -0.2070 -1.2889 -0.8127
   25SAPC  H15X 3377   6.592   3.509   8.393 -0.4102  0.5935  1.3676
   25SAPC  H15Y 3378   6.419   3.450   8.365  0.4905 -1.9120 -1.1096
   25SAPC  C316 3379   6.437   3.639   8.458 -0.1611 -0.1277 -0.1573
   25SAPC  H16X 3380   6.462   3.744   8.432 -1.2995 -0.1574 -1.4977
   25SAPC  H16Y 3381   6.472   3.623   8.562 -1.6552  0.0520  0.4017
   25SAPC  C317 3382   6.287   3.644   8.458  0.6099  0.1005 -0.3192
   25SAPC  H17X 3383   6.239   3.544   8.461 -1.2849  0.9284 -1.3273
   25SAPC  H17Y 3384   6.257   3.686   8.359  1.0644 -2.4844 -1.6415
   25SAPC  C318 3385   6.240   3.715   8.583  0.5743  0.1147  0.1845
   25SAPC  H18X 3386   6.282   3.818   8.583 -1.6582  1.1511 -2.4449
   25SAPC  H18Y 3387   6.275   3.661   8.674  0.2676  0.0539  0.2665
   25SAPC  H18Z 3388   6.129   3.707   8.590  0.5572 -0.1676 -0.4050
   26SAPC     N 3389   0.563   5.367   6.250  0.1896  0.3771 -0.2650
   26SAPC   C12 3390   0.470   5.303   6.363 -0.2709  0.0676  0.1822
   26SAPC  H12A 3391   0.532   5.252   6.435  0.5150 -0.0008 -0.5349
   26SAPC  H12B 3392   0.427   5.211   6.327  0.0382  0.0953 -0.2693
   26SAPC   C13 3393   0.644   5.258   6.184  0.4103 -0.0723 -0.0761
   26SAPC  H13A 3394   0.706   5.210   6.258 -0.4534 -0.4204  0.4465
   26SAPC  H13B 3395   0.574   5.186   6.142  1.9529 -2.4479  1.2414
   26SAPC  H13C 3396   0.708   5.296   6.107  1.2276 -0.5337  0.3644
   26SAPC   C14 3397   0.470   5.429   6.157  0.6048  0.1336 -0.0307
   26SAPC  H14A 3398   0.394   5.358   6.127 -0.5902  0.9728  0.9182
   26SAPC  H14B 3399   0.408   5.503   6.205 -0.0158  0.3629 -1.1447
   26SAPC  H14C 3400   0.513   5.477   6.070 -1.4557 -0.9836 -1.7502
   26SAPC   C15 3401   0.651   5.472   6.312 -0.0091 -0.2524 -0.0768
   26SAPC  H15A 3402   0.706   5.527   6.236 -0.2955  0.0998 -0.0312
   26SAPC  H15B 3403   0.591   5.541   6.369 -2.0948 -2.5261  0.6569
   26SAPC  H15C 3404   0.732   5.443   6.377  2.2454  1.2182 -2.0673
   26SAPC   C11 3405   0.363   5.392   6.439  0.0881 -0.4541 -0.0425
   26SAPC  H11A 3406   0.406   5.457   6.518 -1.9742  0.2389  0.5898
   26SAPC  H11B 3407   0.298   5.325   6.500 -0.0216 -2.0683 -1.8106
   26SAPC     P 3408   0.146   5.524   6.405  0.1274  0.1123 -0.0603
   26SAPC   O13 3409   0.076   5.568   6.281  0.3799  0.1417  1.3578
   26SAPC   O14 3410   0.089   5.412   6.479  0.2264  0.4098  0.4816
   26SAPC   O12 3411   0.289   5.482   6.359  0.4466  0.4274 -0.4434
   26SAPC   O11 3412   0.175   5.650   6.501 -0.2174 -0.0091 -0.0452
   26SAPC    C1 3413   0.089   5.758   6.526 -0.2477  0.1774 -0.3728
   26SAPC    HA 3414   0.084   5.832   6.444  0.5698 -1.3804 -1.9008
   26SAPC    HB 3415  -0.016   5.723   6.525 -0.4558  0.7142 -2.6855
   26SAPC    C2 3416   0.118   5.810   6.672 -0.0145 -0.4038 -0.3066
   26SAPC    HS 3417   0.034   5.873   6.709 -0.0989 -0.6944 -0.0004
   26SAPC   O21 3418   0.236   5.890   6.682 -0.9653 -0.3269 -0.4827
   26SAPC   C21 3419   0.232   6.004   6.613 -0.4384 -0.6889 -0.4507
   26SAPC   O22 3420   0.132   6.057   6.568  0.9719  0.3633 -0.2468
   26SAPC   C22 3421   0.363   6.077   6.620  0.0533 -0.9147 -0.0913
   26SAPC   H2R 3422   0.408   6.043   6.716 -0.3838  0.2389  0.5409
   26SAPC   H2S 3423   0.431   6.036   6.543  1.9239 -0.0398  1.0111
   26SAPC    C3 3424   0.137   5.689   6.768 -0.4126 -0.1327 -0.0981
   26SAPC    HX 3425   0.237   5.644   6.751  0.3811  1.3277  0.5880
   26SAPC    HY 3426   0.066   5.612   6.731  0.3048 -1.7811  1.7711
   26SAPC   O31 3427   0.127   5.709   6.909 -0.0025  0.5472  0.0795
   26SAPC   C31 3428  -0.002   5.720   6.955  0.8529 -0.9879  0.2216
   26SAPC   O32 3429  -0.103   5.724   6.888  0.6712 -0.3805 -0.3887
   26SAPC   C32 3430  -0.009   5.742   7.106  0.0883  0.3520  0.3572
   26SAPC   H2X 3431   0.047   5.835   7.129  1.0334  0.3956 -1.8569
   26SAPC   H2Y 3432   0.048   5.661   7.157  1.6480  1.7365  0.9028
   26SAPC   C23 3433   0.348   6.230   6.605 -0.2199  0.5681  0.7876
   26SAPC   H3R 3434   0.291   6.253   6.512 -0.4368  0.0494  0.7882
   26SAPC   H3S 3435   0.448   6.265   6.572  0.0758  1.4564  2.5575
   26SAPC   C24 3436   0.303   6.307   6.727  0.0350 -0.2867  0.1041
   26SAPC   H4R 3437   0.195   6.287   6.746  0.6009 -3.8487  0.1336
   26SAPC   H4S 3438   0.314   6.416   6.706 -3.4870  0.2056  0.1016
   26SAPC   C25 3439   0.404   6.278   6.841 -0.3670  0.2996  0.2316
   26SAPC   H5R 3440   0.505   6.320   6.828  0.3855 -0.1486  3.6986
   26SAPC   C26 3441   0.384   6.215   6.956 -0.2088  0.6965  0.3334
   26SAPC   H6R 3442   0.466   6.206   7.029 -0.8844  1.7077  1.2605
   26SAPC   C27 3443   0.253   6.153   7.001 -0.3225 -0.6565  0.2383
   26SAPC   H7R 3444   0.172   6.163   6.926  0.7407 -0.0206 -0.8749
   26SAPC   H7S 3445   0.223   6.197   7.098  0.3728 -0.5605  0.4133
   26SAPC   C28 3446   0.275   6.014   7.030  0.2712  0.8715 -0.2821
   26SAPC   H8R 3447   0.270   5.938   6.951 -1.9342 -1.6796  2.1019
   26SAPC   C29 3448   0.304   5.956   7.148  0.5539 -0.1202 -0.6926
   26SAPC   H9R 3449   0.314   5.846   7.150  0.8954 -0.0766  0.2367
   26SAPC  C210 3450   0.328   6.026   7.277  0.8748 -0.3544  0.2239
   26SAPC  H10R 3451   0.398   6.107   7.249  0.8705 -0.2233  0.5939
   26SAPC  H10S 3452   0.389   5.964   7.346 -0.9563 -1.3490  1.0014
   26SAPC  C211 3453   0.196   6.065   7.341  0.5954  0.1555 -0.9307
   26SAPC  H11R 3454   0.119   6.125   7.289 -0.9355 -1.0117 -0.1054
   26SAPC  C212 3455   0.166   6.042   7.474 -0.0261 -0.6192  0.3855
   26SAPC  H12R 3456   0.065   6.071   7.505 -0.1711 -0.7146  0.0153
   26SAPC  C213 3457   0.242   5.973   7.588 -0.0686  0.4210 -0.8509
   26SAPC  H13R 3458   0.316   5.902   7.545 -1.7106 -2.2207  0.3996
   26SAPC  H13S 3459   0.163   5.922   7.646 -1.5740  3.7900  0.3235
   26SAPC  C214 3460   0.323   6.077   7.663  0.1275  0.5489  0.1872
   26SAPC  H14R 3461   0.397   6.135   7.606  1.7493 -0.7506  0.8693
   26SAPC  C215 3462   0.321   6.107   7.793 -0.2972  0.1906  0.0210
   26SAPC  H15R 3463   0.371   6.198   7.829 -1.2618  0.3943  0.8911
   26SAPC  C216 3464   0.230   6.045   7.896  0.1258 -0.2476  0.2404
   26SAPC  H16R 3465   0.291   5.976   7.957  1.5589 -0.3743 -1.2684
   26SAPC  H16S 3466   0.147   5.983   7.856  1.8438 -2.4377 -0.0928
   26SAPC  C217 3467   0.179   6.145   7.995  0.5124 -0.6659 -0.2935
   26SAPC  H17R 3468   0.097   6.212   7.961  0.8581 -1.6950 -3.4807
   26SAPC  H17S 3469   0.258   6.215   8.031  0.9669 -1.1039 -0.4351
   26SAPC  C218 3470   0.116   6.064   8.116 -0.8097 -0.2404  0.6510
   26SAPC  H18R 3471   0.172   5.970   8.137 -3.2914 -2.4681 -1.9941
   26SAPC  H18S 3472   0.017   6.038   8.073 -1.4714 -0.1249  2.0526
   26SAPC  C219 3473   0.091   6.135   8.250  0.3180  0.6768 -0.4259
   26SAPC  H19R 3474   0.031   6.225   8.222  1.7414  1.3404 -1.4605
   26SAPC  H19S 3475   0.190   6.174   8.284  0.3299  1.2063 -1.0411
   26SAPC  C220 3476   0.002   6.055   8.356 -0.3346  0.6402 -0.1409
   26SAPC  H20R 3477   0.049   5.959   8.389  0.1387 -0.3079 -3.2410
   26SAPC  H20S 3478  -0.099   6.026   8.319 -0.2927 -1.3778  1.1695
   26SAPC  H20T 3479  -0.004   6.108   8.453 -0.7536  0.7723 -0.2348
   26SAPC   C33 3480  -0.150   5.748   7.151 -0.0070  0.4497 -0.9835
   26SAPC   H3X 3481  -0.199   5.650   7.134  1.1031 -0.5298  1.0160
   26SAPC   H3Y 3482  -0.204   5.830   7.098  1.2253  2.0127  0.0942
   26SAPC   C34 3483  -0.157   5.775   7.307 -1.2459  0.1710  0.5869
   26SAPC   H4X 3484  -0.258   5.809   7.337 -1.3382 -0.1869  0.6833
   26SAPC   H4Y 3485  -0.085   5.859   7.320 -1.5614  0.3377  1.2959
   26SAPC   C35 3486  -0.106   5.660   7.383 -0.6010 -0.5413 -0.2138
   26SAPC   H5X 3487   0.002   5.637   7.382 -0.5159 -0.1601 -1.0024
   26SAPC   H5Y 3488  -0.172   5.572   7.366  0.2375 -1.1540 -0.3651
   26SAPC   C36 3489  -0.116   5.711   7.537  0.4728  0.2328  0.8873
   26SAPC   H6X 3490  -0.221   5.725   7.568 -0.4279 -1.6572 -1.0485
   26SAPC   H6Y 3491  -0.056   5.803   7.554  1.2150 -0.1639  0.4484
   26SAPC   C37 3492  -0.062   5.596   7.628  0.0350 -0.1622 -0.6134
   26SAPC   H7X 3493   0.041   5.564   7.600 -0.6973 -0.4285 -3.2952
   26SAPC   H7Y 3494  -0.120   5.503   7.610  1.2698 -0.8950 -0.9236
   26SAPC   C38 3495  -0.067   5.659   7.771 -0.1044 -0.1870 -0.4987
   26SAPC   H8X 3496  -0.166   5.704   7.791  0.0463 -0.3785  0.7810
   26SAPC   H8Y 3497   0.013   5.737   7.775  0.7844 -1.0587 -0.8226
   26SAPC   C39 3498  -0.039   5.557   7.882 -0.3426 -0.0738  0.1247
   26SAPC   H9X 3499   0.068   5.527   7.879  0.8174  2.8876  3.7799
   26SAPC   H9Y 3500  -0.104   5.467   7.878 -1.1699  0.5483 -0.7365
   26SAPC  C310 3501  -0.044   5.628   8.016 -0.3723  0.6618 -0.4114
   26SAPC  H10X 3502  -0.149   5.653   8.042 -0.9021 -1.5467 -0.1722
   26SAPC  H10Y 3503  -0.004   5.731   8.019 -2.5753  1.5521  0.0234
   26SAPC  C311 3504  -0.004   5.539   8.135 -0.2825  0.0278 -0.0780
   26SAPC  H11X 3505  -0.076   5.458   8.159 -0.5512  0.1138 -0.5834
   26SAPC  H11Y 3506  -0.004   5.603   8.226 -2.1650 -1.8366  1.3385
   26SAPC  C312 3507   0.137   5.484   8.134  1.2410  0.7667  0.2208
   26SAPC  H12X 3508   0.201   5.564   8.092  0.1995  1.3054 -0.3850
   26SAPC  H12Y 3509   0.141   5.397   8.065  1.0967  1.1601 -0.2838
   26SAPC  C313 3510   0.171   5.415   8.270 -0.4593  0.2495  0.6185
   26SAPC  H13X 3511   0.081   5.353   8.287  0.5555 -1.3232  0.3861
   26SAPC  H13Y 3512   0.177   5.489   8.353 -1.5819 -0.4967  1.3839
   26SAPC  C314 3513   0.296   5.325   8.264 -0.3033 -0.1407 -0.8492
   26SAPC  H14X 3514   0.377   5.399   8.249  0.1946 -0.5176 -0.0875
   26SAPC  H14Y 3515   0.281   5.251   8.182  1.4638 -1.2062 -0.2828
   26SAPC  C315 3516   0.347   5.244   8.383  0.3258  0.1604  0.4727
   26SAPC  H15X 3517   0.363   5.320   8.462 -0.4868  1.6750 -0.7691
   26SAPC  H15Y 3518   0.446   5.194   8.370 -0.5259 -1.6661  0.7822
   26SAPC  C316 3519   0.240   5.145   8.428  0.4550 -0.7536  0.1706
   26SAPC  H16X 3520   0.213   5.073   8.348  2.2691 -0.3913 -0.8281
   26SAPC  H16Y 3521   0.148   5.203   8.449 -0.3995 -2.1643  0.5156
   26SAPC  C317 3522   0.285   5.060   8.555  0.2056  0.4086 -0.5782
   26SAPC  H17X 3523   0.336   5.129   8.626  2.0059 -0.6030 -0.8205
   26SAPC  H17Y 3524   0.359   4.990   8.512 -1.5259 -1.8734 -0.0096
   26SAPC  C318 3525   0.181   4.981   8.632  0.2663  0.5277  0.6508
   26SAPC  H18X 3526   0.140   4.905   8.562 -2.4553  2.0540  0.4611
   26SAPC  H18Y 3527   0.108   5.055   8.671  0.4988  1.3462 -0.4083
   26SAPC  H18Z 3528   0.218   4.921   8.717 -1.2229  0.2263  1.1134
   27SAPC     N 3529   3.704   0.939   6.603  0.1840 -0.3048  0.3946
   27SAPC   C12 3530   3.643   0.867   6.729 -0.6711 -0.2977 -0.4649
   27SAPC  H12A 3531   3.720   0.853   6.804  1.9547  1.2119 -2.6797
   27SAPC  H12B 3532   3.616   0.768   6.698  2.7021 -1.6504  0.4749
   27SAPC   C13 3533   3.754   1.068   6.638  0.8429 -0.3052 -0.8068
   27SAPC  H13A 3534   3.829   1.081   6.562  0.2741 -1.0844 -1.5099
   27SAPC  H13B 3535   3.680   1.146   6.645 -1.6870 -2.6562  0.1062
   27SAPC  H13C 3536   3.802   1.065   6.736  0.6571  1.2801 -0.6439
   27SAPC   C14 3537   3.824   0.857   6.549  0.1237  0.2117 -0.0738
   27SAPC  H14A 3538   3.822   0.752   6.524  1.3895 -0.1995  1.3636
   27SAPC  H14B 3539   3.849   0.910   6.458 -4.0641  0.7250 -1.0984
   27SAPC  H14C 3540   3.909   0.878   6.613  1.4405 -1.8189 -1.0450
   27SAPC   C15 3541   3.607   0.949   6.493 -0.3031 -0.2096 -0.5166
   27SAPC  H15A 3542   3.649   1.017   6.420  0.4442 -2.0439 -1.8947
   27SAPC  H15B 3543   3.577   0.856   6.448 -0.6096 -0.0049 -0.7321
   27SAPC  H15C 3544   3.512   0.987   6.525  0.3423  1.6063 -0.6402
   27SAPC   C11 3545   3.517   0.930   6.788  0.0162 -0.2945 -0.4187
   27SAPC  H11A 3546   3.531   1.040   6.795  1.0343 -0.5087  1.4542
   27SAPC  H11B 3547   3.505   0.904   6.895  0.6253  0.4821 -0.1490
   27SAPC     P 3548   3.333   0.767   6.705 -0.0245  0.0774 -0.2625
   27SAPC   O13 3549   3.210   0.786   6.629 -0.3078 -0.3049  0.0102
   27SAPC   O14 3550   3.431   0.663   6.658 -0.7609  0.2608  0.0369
   27SAPC   O12 3551   3.408   0.901   6.706  0.0187  0.2656  0.0149
   27SAPC   O11 3552   3.295   0.746   6.859  0.3979  0.2063  0.1851
   27SAPC    C1 3553   3.171   0.789   6.906  0.4310  0.5252 -0.0806
   27SAPC    HA 3554   3.085   0.737   6.859  2.1302 -0.2506 -2.5282
   27SAPC    HB 3555   3.167   0.761   7.013  1.4736 -2.0325 -0.6381
   27SAPC    C2 3556   3.148   0.945   6.896  0.3468 -0.9234  0.7400
   27SAPC    HS 3557   3.162   0.987   6.794 -1.6173  2.5753  1.7639
   27SAPC   O21 3558   3.245   1.013   6.980 -0.1177 -0.3064 -0.2572
   27SAPC   C21 3559   3.271   1.133   6.960  0.0115 -0.0562 -0.9627
   27SAPC   O22 3560   3.210   1.208   6.879  0.3757 -0.0306 -0.1254
   27SAPC   C22 3561   3.369   1.194   7.068 -0.2237 -0.4201  0.6440
   27SAPC   H2R 3562   3.466   1.222   7.022 -0.7171  1.7091  0.8123
   27SAPC   H2S 3563   3.325   1.291   7.100 -0.0793 -0.9401  2.5651
   27SAPC    C3 3564   3.002   0.988   6.940  0.7443 -0.0309  0.2984
   27SAPC    HX 3565   2.929   0.920   6.890 -1.3720  2.9145 -0.9392
   27SAPC    HY 3566   2.988   1.084   6.885  0.5475 -0.0176  0.3710
   27SAPC   O31 3567   2.982   1.000   7.080 -0.0542 -0.5862  0.2633
   27SAPC   C31 3568   2.930   0.896   7.146 -0.0810 -1.2817 -0.4456
   27SAPC   O32 3569   2.889   0.798   7.089 -0.8859 -0.2790 -0.1124
   27SAPC   C32 3570   2.932   0.935   7.293 -0.2050 -0.0175  0.3543
   27SAPC   H2X 3571   3.000   1.022   7.300  0.6374 -0.6538  0.2433
   27SAPC   H2Y 3572   2.979   0.849   7.345  0.3021  0.4991  0.7568
   27SAPC   C23 3573   3.406   1.111   7.192 -0.2220  0.7490  0.7298
   27SAPC   H3R 3574   3.496   1.152   7.242  0.6718 -1.4890  1.0776
   27SAPC   H3S 3575   3.453   1.018   7.155  1.6993  2.5598 -1.6744
   27SAPC   C24 3576   3.282   1.088   7.286 -0.0746 -0.2503  0.8343
   27SAPC   H4R 3577   3.196   1.067   7.220  0.8630 -2.9474  0.3410
   27SAPC   H4S 3578   3.259   1.183   7.339 -2.3827 -0.5815  0.5082
   27SAPC   C25 3579   3.305   0.978   7.388 -0.6179  0.1248 -0.5615
   27SAPC   H5R 3580   3.356   0.892   7.343  2.0841  1.2067  0.2700
   27SAPC   C26 3581   3.282   0.988   7.520 -0.4374  0.5641 -0.4439
   27SAPC   H6R 3582   3.301   0.902   7.585 -0.5703  0.0948 -1.0227
   27SAPC   C27 3583   3.231   1.111   7.593 -0.6600  0.5100  0.8264
   27SAPC   H7R 3584   3.288   1.202   7.564 -1.8021  1.2090  0.6776
   27SAPC   H7S 3585   3.259   1.103   7.700  2.5868  0.2955  0.0589
   27SAPC   C28 3586   3.089   1.130   7.577  0.1433 -0.2211  0.0374
   27SAPC   H8R 3587   3.056   1.148   7.473 -0.6193 -0.6708  0.1913
   27SAPC   C29 3588   2.995   1.113   7.674 -0.1070  0.4775  0.4457
   27SAPC   H9R 3589   2.891   1.143   7.654 -0.5037  0.7551  2.6691
   27SAPC  C210 3590   3.017   1.069   7.817 -0.8639  0.1176 -0.9056
   27SAPC  H10R 3591   3.121   1.046   7.846 -0.3448  0.0236 -2.7595
   27SAPC  H10S 3592   2.953   0.980   7.838 -1.7462  0.9015 -0.1834
   27SAPC  C211 3593   2.965   1.169   7.919  0.2249  0.0261  0.0537
   27SAPC  H11R 3594   2.945   1.273   7.889 -0.5284 -0.2935 -0.5972
   27SAPC  C212 3595   2.923   1.140   8.044  0.1333  0.1793 -0.0892
   27SAPC  H12R 3596   2.873   1.219   8.103 -4.0713 -2.0495 -0.2624
   27SAPC  C213 3597   2.921   1.003   8.110 -0.7358  0.3938 -0.4081
   27SAPC  H13R 3598   2.881   0.921   8.047 -0.8995  1.2047 -1.3916
   27SAPC  H13S 3599   2.844   1.027   8.188  1.1318  0.2545  1.5715
   27SAPC  C214 3600   3.049   0.951   8.180  1.2087  0.7877 -0.6056
   27SAPC  H14R 3601   3.090   0.862   8.130  0.6827 -1.4054  2.6093
   27SAPC  C215 3602   3.099   1.000   8.295 -0.4804  0.0262  0.7275
   27SAPC  H15R 3603   3.202   0.970   8.318  0.4057  1.1092 -1.5147
   27SAPC  C216 3604   3.042   1.112   8.376 -0.2859 -0.1842  0.5041
   27SAPC  H16R 3605   3.077   1.094   8.480  1.3540  0.1739  0.0315
   27SAPC  H16S 3606   2.931   1.117   8.375 -0.2447  1.4438 -0.7830
   27SAPC  C217 3607   3.092   1.252   8.343 -0.1259 -0.1219  0.2843
   27SAPC  H17R 3608   3.066   1.259   8.234 -0.6947 -1.3236  0.3302
   27SAPC  H17S 3609   3.203   1.250   8.341 -0.1140  0.4059  0.1557
   27SAPC  C218 3610   3.038   1.361   8.419  0.2285 -0.4918 -0.2466
   27SAPC  H18R 3611   3.054   1.340   8.527  0.0202 -1.2641 -0.3574
   27SAPC  H18S 3612   2.929   1.369   8.396 -0.0616  2.3913  1.6040
   27SAPC  C219 3613   3.090   1.500   8.378 -0.1757 -0.3694 -0.7633
   27SAPC  H19R 3614   3.064   1.522   8.272 -1.0190  1.5081 -0.2012
   27SAPC  H19S 3615   3.200   1.486   8.377  0.4274  3.3916 -0.1308
   27SAPC  C220 3616   3.053   1.617   8.474  0.2776 -1.1598  0.3118
   27SAPC  H20R 3617   2.948   1.612   8.511 -0.5523 -1.8390 -1.9459
   27SAPC  H20S 3618   3.060   1.712   8.417 -0.1601 -2.2401 -1.6573
   27SAPC  H20T 3619   3.127   1.617   8.557  2.6294 -1.4656 -1.6782
   27SAPC   C33 3620   2.795   0.978   7.350 -0.1888 -0.5139  0.3975
   27SAPC   H3X 3621   2.736   1.021   7.266  4.1701  1.5459 -1.9680
   27SAPC   H3Y 3622   2.799   1.067   7.417 -2.6996 -0.4516  0.5576
   27SAPC   C34 3623   2.725   0.859   7.424 -0.1631 -0.7556 -0.1368
   27SAPC   H4X 3624   2.763   0.836   7.526 -1.0412  0.8764  0.5850
   27SAPC   H4Y 3625   2.742   0.772   7.357 -0.6545  0.0239 -1.3032
   27SAPC   C35 3626   2.574   0.875   7.431 -0.1127  0.2015  0.3470
   27SAPC   H5X 3627   2.531   0.795   7.496  0.3023 -0.6016 -0.3466
   27SAPC   H5Y 3628   2.520   0.867   7.334 -0.2227 -2.0807  0.5415
   27SAPC   C36 3629   2.523   1.012   7.478  0.3278 -0.2089 -0.0723
   27SAPC   H6X 3630   2.547   1.092   7.405 -0.8514 -0.2146 -0.4734
   27SAPC   H6Y 3631   2.591   1.035   7.564  3.3215 -0.4452 -2.2025
   27SAPC   C37 3632   2.377   1.022   7.521 -0.5601 -0.1081 -0.1551
   27SAPC   H7X 3633   2.364   0.933   7.585  0.6306 -0.6407 -0.6316
   27SAPC   H7Y 3634   2.311   1.017   7.431  1.9218 -0.1784 -2.0908
   27SAPC   C38 3635   2.350   1.152   7.607 -0.0324  0.0282 -0.1009
   27SAPC   H8X 3636   2.346   1.239   7.538 -0.2539 -0.0136 -0.1388
   27SAPC   H8Y 3637   2.434   1.170   7.677  1.4200 -0.4715 -1.6469
   27SAPC   C39 3638   2.208   1.144   7.668 -0.4994  0.0237 -0.0860
   27SAPC   H9X 3639   2.193   1.046   7.718  1.3953 -0.8603 -1.1188
   27SAPC   H9Y 3640   2.136   1.150   7.584 -2.6952 -3.3257  1.3409
   27SAPC  C310 3641   2.182   1.252   7.770  0.0059 -0.5035  0.1413
   27SAPC  H10X 3642   2.198   1.347   7.716  1.8140 -0.5460  0.5392
   27SAPC  H10Y 3643   2.257   1.248   7.853 -1.1910 -0.2217  1.2791
   27SAPC  C311 3644   2.043   1.254   7.844 -0.3036 -0.4288  0.7855
   27SAPC  H11X 3645   1.957   1.288   7.783 -0.3926 -0.0526  1.1113
   27SAPC  H11Y 3646   2.035   1.333   7.922  1.9205  0.3307  0.3411
   27SAPC  C312 3647   2.001   1.129   7.919  0.1115 -0.0406 -0.0846
   27SAPC  H12X 3648   2.000   1.051   7.839  1.3809 -1.8212  1.5360
   27SAPC  H12Y 3649   1.902   1.146   7.965  0.5599  0.5784  0.6665
   27SAPC  C313 3650   2.098   1.080   8.025  0.1039  0.3768  0.3251
   27SAPC  H13X 3651   2.122   1.144   8.112  0.6020  0.6265  0.0113
   27SAPC  H13Y 3652   2.187   1.049   7.966  0.0062  0.6811  0.0110
   27SAPC  C314 3653   2.057   0.950   8.092  0.2090  0.0485  0.5916
   27SAPC  H14X 3654   2.013   0.884   8.013  0.6538 -3.0396  2.7313
   27SAPC  H14Y 3655   1.973   0.964   8.164  0.7852 -0.0768  1.2911
   27SAPC  C315 3656   2.171   0.873   8.158  0.0632  0.2022 -0.1541
   27SAPC  H15X 3657   2.240   0.843   8.077 -0.7978  0.3106 -0.9439
   27SAPC  H15Y 3658   2.137   0.775   8.198 -0.4850  0.1894 -0.6489
   27SAPC  C316 3659   2.245   0.955   8.266 -0.4133  0.1237 -0.2475
   27SAPC  H16X 3660   2.176   0.981   8.348 -0.8670 -1.1377 -0.2165
   27SAPC  H16Y 3661   2.301   1.045   8.231 -1.4937  0.0165 -2.4399
   27SAPC  C317 3662   2.359   0.875   8.319 -0.4258 -0.0116 -0.0025
   27SAPC  H17X 3663   2.416   0.831   8.235  3.0412  1.0088  1.6229
   27SAPC  H17Y 3664   2.317   0.790   8.377  1.0758 -0.6140  0.2368
   27SAPC  C318 3665   2.448   0.948   8.426  0.6843 -0.7388 -0.1818
   27SAPC  H18X 3666   2.533   0.885   8.459  0.8581 -0.0371  0.7527
   27SAPC  H18Y 3667   2.379   0.979   8.507  1.6477 -0.3273  0.4960
   27SAPC  H18Z 3668   2.484   1.038   8.371  0.6610  0.7588  2.1140
   28SAPC     N 3669   1.873   4.238   6.036 -0.4058 -0.2491  0.8667
   28SAPC   C12 3670   1.939   4.304   6.148  0.1928  0.0168 -1.2705
   28SAPC  H12A 3671   1.941   4.411   6.134  2.2531  0.1588 -0.3239
   28SAPC  H12B 3672   2.039   4.265   6.163 -0.0852 -0.4846 -0.7128
   28SAPC   C13 3673   1.887   4.088   6.041  0.5170  0.7039 -0.2871
   28SAPC  H13A 3674   1.847   4.060   6.137 -0.4505 -1.6891 -1.3000
   28SAPC  H13B 3675   1.830   4.039   5.963 -1.5854 -0.8927  2.0975
   28SAPC  H13C 3676   1.988   4.050   6.028  0.5615  0.4175  0.8296
   28SAPC   C14 3677   1.733   4.283   6.026  0.4244  0.3943  0.0721
   28SAPC  H14A 3678   1.684   4.264   6.120 -0.0313 -1.2352 -0.4540
   28SAPC  H14B 3679   1.730   4.390   6.012  0.6126  0.7163  2.1877
   28SAPC  H14C 3680   1.683   4.231   5.946  0.3601 -0.8585  0.9032
   28SAPC   C15 3681   1.935   4.270   5.900  0.0665  0.0619  0.2421
   28SAPC  H15A 3682   1.933   4.378   5.893  0.4135  0.4754  4.2948
   28SAPC  H15B 3683   2.039   4.239   5.896 -0.0615 -0.6336  1.7195
   28SAPC  H15C 3684   1.873   4.216   5.829 -1.9898  0.1623  1.8807
   28SAPC   C11 3685   1.873   4.293   6.291  0.2870  0.2676 -0.8750
   28SAPC  H11A 3686   1.948   4.326   6.366 -0.4816 -2.0657  1.0474
   28SAPC  H11B 3687   1.858   4.186   6.318  0.3739  0.7261  1.1205
   28SAPC     P 3688   1.719   4.502   6.343  0.0025 -0.2677  0.3542
   28SAPC   O13 3689   1.816   4.592   6.275 -0.1176  0.2986  0.6812
   28SAPC   O14 3690   1.574   4.535   6.328 -0.0502 -0.5227  0.5589
   28SAPC   O12 3691   1.743   4.351   6.304 -0.4140  0.1464 -0.2855
   28SAPC   O11 3692   1.763   4.500   6.495 -0.3014 -0.2945  0.2559
   28SAPC    C1 3693   1.746   4.383   6.574 -0.7320 -0.9100 -0.0591
   28SAPC    HA 3694   1.816   4.301   6.548  0.7319  0.8760 -2.1040
   28SAPC    HB 3695   1.768   4.415   6.678  0.5196  0.6022 -0.7511
   28SAPC    C2 3696   1.599   4.334   6.589 -0.3884  0.1675 -0.0653
   28SAPC    HS 3697   1.570   4.304   6.486 -1.0608 -0.1557  0.2066
   28SAPC   O21 3698   1.506   4.432   6.647  0.2417 -0.2825 -0.5483
   28SAPC   C21 3699   1.380   4.393   6.627 -0.4515 -0.1659 -0.0520
   28SAPC   O22 3700   1.346   4.306   6.553 -0.2867 -1.0520 -0.3697
   28SAPC   C22 3701   1.296   4.482   6.722  0.7243  0.5107  0.1922
   28SAPC   H2R 3702   1.340   4.464   6.823  2.5051 -0.0692 -0.6460
   28SAPC   H2S 3703   1.310   4.588   6.692 -1.4000  0.7464 -0.0766
   28SAPC    C3 3704   1.604   4.196   6.668  0.2696  0.7842  0.5092
   28SAPC    HX 3705   1.681   4.120   6.644 -0.7497 -1.0068  2.4592
   28SAPC    HY 3706   1.514   4.132   6.650  0.8335  0.6873 -2.3924
   28SAPC   O31 3707   1.633   4.224   6.811  0.0207 -0.1695 -0.5106
   28SAPC   C31 3708   1.530   4.218   6.896  0.4317  0.1103  0.1074
   28SAPC   O32 3709   1.414   4.197   6.871 -0.2673 -0.1483  0.1260
   28SAPC   C32 3710   1.577   4.215   7.041 -0.2181 -0.3146  0.0705
   28SAPC   H2X 3711   1.646   4.128   7.051  1.0897  0.8238  1.4126
   28SAPC   H2Y 3712   1.486   4.204   7.105 -0.2319 -0.0140  0.1031
   28SAPC   C23 3713   1.141   4.456   6.717 -0.0678 -0.1906  0.3579
   28SAPC   H3R 3714   1.122   4.347   6.725 -0.9672 -0.1613 -0.9975
   28SAPC   H3S 3715   1.110   4.486   6.615 -0.3262 -0.4917  0.3457
   28SAPC   C24 3716   1.054   4.535   6.822 -0.4214  0.5229  0.2998
   28SAPC   H4R 3717   1.085   4.509   6.926 -1.7620 -2.3826  0.0926
   28SAPC   H4S 3718   1.090   4.639   6.813  0.4808  0.4381  2.2888
   28SAPC   C25 3719   0.907   4.531   6.796 -0.0799  0.0197 -0.1909
   28SAPC   H5R 3720   0.864   4.450   6.735  0.3747  0.4285 -1.0743
   28SAPC   C26 3721   0.823   4.638   6.827 -0.1359  0.0360  0.8101
   28SAPC   H6R 3722   0.714   4.638   6.814 -0.2782  0.4930  1.9500
   28SAPC   C27 3723   0.872   4.764   6.897 -0.4789 -0.4842 -1.5875
   28SAPC   H7R 3724   0.835   4.857   6.850 -0.9295 -0.0238 -0.3535
   28SAPC   H7S 3725   0.983   4.777   6.893 -0.6409  1.9916 -0.0296
   28SAPC   C28 3726   0.821   4.748   7.041  0.4365  0.1769 -0.3495
   28SAPC   H8R 3727   0.763   4.660   7.073 -2.2608  2.1535  0.5602
   28SAPC   C29 3728   0.838   4.848   7.135  0.4323  0.3027  0.2268
   28SAPC   H9R 3729   0.777   4.834   7.225  2.1784  0.0146  1.4066
   28SAPC  C210 3730   0.910   4.976   7.110  0.3793  0.0784  0.3299
   28SAPC  H10R 3731   0.982   4.962   7.026 -0.1340 -2.9576  0.2785
   28SAPC  H10S 3732   0.976   4.989   7.198 -1.0624  0.4943  1.3813
   28SAPC  C211 3733   0.831   5.104   7.086 -0.9985 -0.0213  0.1426
   28SAPC  H11R 3734   0.831   5.126   6.978 -2.6983 -1.8006 -0.2947
   28SAPC  C212 3735   0.758   5.184   7.162 -0.4290 -0.5902 -0.3168
   28SAPC  H12R 3736   0.701   5.270   7.125 -1.9586 -1.0851  0.7839
   28SAPC  C213 3737   0.743   5.164   7.311  0.1735  0.6224  0.2376
   28SAPC  H13R 3738   0.764   5.259   7.364  0.3131  0.7828 -0.1014
   28SAPC  H13S 3739   0.822   5.091   7.337  1.1078  1.6767  0.4548
   28SAPC  C214 3740   0.608   5.109   7.340  0.6389  0.3382  0.1338
   28SAPC  H14R 3741   0.572   5.043   7.260  3.1008 -1.8704  0.7107
   28SAPC  C215 3742   0.530   5.125   7.446 -0.3619  0.3937  0.3328
   28SAPC  H15R 3743   0.434   5.071   7.450  0.3512 -0.8566  1.2917
   28SAPC  C216 3744   0.556   5.211   7.569 -0.4708 -0.1185  0.1871
   28SAPC  H16R 3745   0.481   5.289   7.594  0.1052  0.0144  1.5935
   28SAPC  H16S 3746   0.647   5.268   7.542 -0.0745 -0.7558  0.1547
   28SAPC  C217 3747   0.578   5.135   7.700 -0.3134 -0.2927  1.1031
   28SAPC  H17R 3748   0.505   5.051   7.692  0.1963 -0.5372 -2.4156
   28SAPC  H17S 3749   0.560   5.206   7.784  1.1279  0.7474  0.5587
   28SAPC  C218 3750   0.721   5.076   7.711  0.6235 -0.3112  0.1159
   28SAPC  H18R 3751   0.791   5.141   7.655 -1.2459  1.0785 -0.7050
   28SAPC  H18S 3752   0.715   4.977   7.660 -0.2143 -0.0496 -0.3098
   28SAPC  C219 3753   0.784   5.059   7.847  0.0721 -0.3423 -0.2053
   28SAPC  H19R 3754   0.885   5.015   7.830 -0.1207 -0.6841 -0.4836
   28SAPC  H19S 3755   0.730   4.987   7.913  0.1023 -1.0618 -0.9530
   28SAPC  C220 3756   0.812   5.192   7.932 -0.7984  0.1093 -0.1012
   28SAPC  H20R 3757   0.872   5.263   7.871  1.6793 -2.9584 -1.5119
   28SAPC  H20S 3758   0.865   5.175   8.028  0.0489  2.2450 -0.1479
   28SAPC  H20T 3759   0.716   5.238   7.963 -0.6745  1.3104 -1.4068
   28SAPC   C33 3760   1.647   4.345   7.103  0.1234 -0.6854  0.1070
   28SAPC   H3X 3761   1.579   4.424   7.066 -0.8478 -1.8445 -0.6921
   28SAPC   H3Y 3762   1.743   4.370   7.054  0.3579  1.1315  1.4132
   28SAPC   C34 3763   1.664   4.338   7.249  0.0502  1.1419 -0.4458
   28SAPC   H4X 3764   1.703   4.435   7.285 -1.7867  1.5319  0.6147
   28SAPC   H4Y 3765   1.731   4.253   7.277 -1.2494 -0.2439 -1.3458
   28SAPC   C35 3766   1.531   4.327   7.335 -0.3572  0.2627 -0.1099
   28SAPC   H5X 3767   1.495   4.223   7.351  0.8642  0.0997  1.9067
   28SAPC   H5Y 3768   1.456   4.383   7.274  1.1601  1.5269 -0.8939
   28SAPC   C36 3769   1.534   4.398   7.464 -0.6941  0.3907 -0.4186
   28SAPC   H6X 3770   1.433   4.370   7.501  0.0912 -0.0420  1.4931
   28SAPC   H6Y 3771   1.545   4.509   7.460 -0.8228  0.4552  0.7527
   28SAPC   C37 3772   1.634   4.326   7.559 -0.2329 -0.3253 -0.1260
   28SAPC   H7X 3773   1.737   4.363   7.536  0.2967 -1.9105 -0.4400
   28SAPC   H7Y 3774   1.644   4.215   7.554 -2.5369 -0.5618 -0.2392
   28SAPC   C38 3775   1.575   4.353   7.703 -0.4717  0.1902 -0.1646
   28SAPC   H8X 3776   1.612   4.279   7.778 -1.3040  2.3653  2.5513
   28SAPC   H8Y 3777   1.464   4.340   7.701 -0.2987 -1.4970 -1.0146
   28SAPC   C39 3778   1.611   4.492   7.757  0.5348  0.8398 -0.1764
   28SAPC   H9X 3779   1.606   4.565   7.673 -0.4258  1.1020  0.0955
   28SAPC   H9Y 3780   1.720   4.490   7.781  0.0884  0.6826  2.0381
   28SAPC  C310 3781   1.532   4.539   7.879  0.3312 -0.7563 -0.0519
   28SAPC  H10X 3782   1.528   4.459   7.956 -1.0656 -0.0413  0.6494
   28SAPC  H10Y 3783   1.434   4.584   7.854  0.5313  0.7652  1.6993
   28SAPC  C311 3784   1.607   4.660   7.952  0.2757 -0.2871  0.5961
   28SAPC  H11X 3785   1.637   4.735   7.875  0.1487 -1.5607 -0.7296
   28SAPC  H11Y 3786   1.701   4.634   8.005  0.7778 -0.4249 -0.3355
   28SAPC  C312 3787   1.502   4.715   8.050 -0.1024 -0.6645 -0.2874
   28SAPC  H12X 3788   1.476   4.637   8.125  1.2292 -1.9164 -1.0821
   28SAPC  H12Y 3789   1.414   4.753   7.993  0.0487 -0.1299 -0.1718
   28SAPC  C313 3790   1.555   4.841   8.128  0.4843  0.9732 -0.3240
   28SAPC  H13X 3791   1.593   4.916   8.055  2.0625  0.6756  0.1536
   28SAPC  H13Y 3792   1.644   4.814   8.189  0.0541 -1.8956 -0.7935
   28SAPC  C314 3793   1.435   4.903   8.200 -0.1780 -0.3155 -0.1160
   28SAPC  H14X 3794   1.353   4.915   8.125 -1.3582 -2.9565  0.6473
   28SAPC  H14Y 3795   1.464   5.004   8.234 -0.3247 -0.1934 -0.3512
   28SAPC  C315 3796   1.365   4.826   8.316  0.0492  0.2864  0.0134
   28SAPC  H15X 3797   1.339   4.727   8.273 -1.0146  0.8250 -0.6393
   28SAPC  H15Y 3798   1.271   4.877   8.345 -0.3815 -1.9231  2.9083
   28SAPC  C316 3799   1.453   4.810   8.447  0.3893  0.2049  0.2090
   28SAPC  H16X 3800   1.384   4.793   8.533  0.0766  1.0471  0.1417
   28SAPC  H16Y 3801   1.499   4.908   8.475  2.5269 -1.2586  2.1882
   28SAPC  C317 3802   1.554   4.693   8.451  0.3071  0.6891  0.0614
   28SAPC  H17X 3803   1.613   4.705   8.358  0.1970  1.5116  0.0985
   28SAPC  H17Y 3804   1.508   4.592   8.442 -1.2336  1.2096  1.5612
   28SAPC  C318 3805   1.651   4.700   8.575 -0.4015  0.3453  0.1571
   28SAPC  H18X 3806   1.718   4.788   8.564  0.2050  0.1466  1.8681
   28SAPC  H18Y 3807   1.721   4.614   8.577 -0.0367  0.6392  0.2401
   28SAPC  H18Z 3808   1.613   4.705   8.680  0.4684  0.9411  0.4618
   29SAPC     N 3809   5.731   6.800   5.917  1.0311  0.0321 -0.0327
   29SAPC   C12 3810   5.746   6.780   6.066  0.8762  0.5522 -0.1358
   29SAPC  H12A 3811   5.783   6.680   6.081 -0.7869  0.4731  6.2673
   29SAPC  H12B 3812   5.650   6.778   6.115 -0.4814 -0.7002 -2.6350
   29SAPC   C13 3813   5.655   6.677   5.862 -0.5635 -0.1213  0.4255
   29SAPC  H13A 3814   5.567   6.670   5.924 -2.0876  0.2995 -1.5921
   29SAPC  H13B 3815   5.627   6.687   5.758  0.6294  1.2187  0.2016
   29SAPC  H13C 3816   5.719   6.590   5.861 -0.2966  0.0774 -0.2533
   29SAPC   C14 3817   5.658   6.921   5.889  0.0621 -0.2029 -0.3320
   29SAPC  H14A 3818   5.689   7.005   5.949  2.8665  0.9628 -3.1361
   29SAPC  H14B 3819   5.675   6.949   5.786  1.5330  0.3652  0.0439
   29SAPC  H14C 3820   5.552   6.910   5.908  0.2793 -4.0511 -0.5868
   29SAPC   C15 3821   5.873   6.801   5.862  0.1236 -0.1019 -0.2298
   29SAPC  H15A 3822   5.920   6.706   5.882  0.2641  0.4162  2.2076
   29SAPC  H15B 3823   5.873   6.796   5.754  0.2031 -3.7601 -0.1877
   29SAPC  H15C 3824   5.932   6.887   5.889 -1.4092  0.8987  0.1063
   29SAPC   C11 3825   5.854   6.858   6.137 -0.0684  0.2126 -0.1717
   29SAPC  H11A 3826   5.952   6.822   6.099 -0.3417 -1.7268  0.8355
   29SAPC  H11B 3827   5.861   6.826   6.243 -0.0870  0.4506 -0.0988
   29SAPC     P 3828   5.940   7.101   6.164 -0.4028 -0.0157 -0.2221
   29SAPC   O13 3829   6.064   7.086   6.084 -0.0788  0.4768  0.8682
   29SAPC   O14 3830   5.875   7.231   6.156 -0.4088 -0.1119 -0.1761
   29SAPC   O12 3831   5.834   6.994   6.120  0.3948 -0.6417 -0.4046
   29SAPC   O11 3832   5.982   7.067   6.323  0.1775 -1.1185 -0.0520
   29SAPC    C1 3833   5.891   7.120   6.421  0.1107 -0.0464 -0.2340
   29SAPC    HA 3834   5.914   7.226   6.447  2.2824 -0.2853 -0.9353
   29SAPC    HB 3835   5.788   7.131   6.383 -0.3313 -1.2273  0.5807
   29SAPC    C2 3836   5.891   7.043   6.560 -0.3324 -0.1104 -0.4097
   29SAPC    HS 3837   5.796   7.064   6.613  0.6174  1.2083  0.8421
   29SAPC   O21 3838   6.003   7.085   6.640 -0.6804 -0.4296  0.9344
   29SAPC   C21 3839   5.978   7.201   6.695  0.6227  0.2930  0.2083
   29SAPC   O22 3840   5.869   7.252   6.712  0.3561 -0.3735  0.2625
   29SAPC   C22 3841   6.112   7.264   6.737 -0.4088 -0.0126 -0.0284
   29SAPC   H2R 3842   6.189   7.183   6.737  0.8211  1.0293  2.3407
   29SAPC   H2S 3843   6.139   7.341   6.662 -1.0141  0.4516  0.2233
   29SAPC    C3 3844   5.909   6.893   6.537  0.0457 -0.1486 -0.2300
   29SAPC    HX 3845   5.999   6.860   6.481 -0.0594 -0.7436 -0.0490
   29SAPC    HY 3846   5.826   6.862   6.470 -0.3947 -0.9653  0.6747
   29SAPC   O31 3847   5.894   6.822   6.664 -0.1720  0.9111  0.1258
   29SAPC   C31 3848   6.010   6.787   6.715 -0.6409 -0.0609  0.2682
   29SAPC   O32 3849   6.125   6.804   6.661 -0.3575  0.7312  0.3123
   29SAPC   C32 3850   5.980   6.719   6.850 -0.0195  0.2566  0.3841
   29SAPC   H2X 3851   5.925   6.625   6.829  0.8200 -0.1643  0.0149
   29SAPC   H2Y 3852   5.912   6.789   6.902 -2.7546 -1.6407 -0.4415
   29SAPC   C23 3853   6.105   7.324   6.881  0.8411  0.1096 -0.1736
   29SAPC   H3R 3854   6.036   7.412   6.877  0.5585 -0.0742  0.5404
   29SAPC   H3S 3855   6.206   7.369   6.892  0.4438  1.6079 -2.0714
   29SAPC   C24 3856   6.073   7.223   6.989  0.6738 -0.2717 -0.6158
   29SAPC   H4R 3857   5.969   7.188   6.969 -0.1689  2.2320 -0.9518
   29SAPC   H4S 3858   6.059   7.275   7.085  0.0713  0.4530 -1.0859
   29SAPC   C25 3859   6.175   7.112   7.006  0.5720  0.4087  1.1300
   29SAPC   H5R 3860   6.203   7.080   6.904 -1.3524  2.1961 -0.0523
   29SAPC   C26 3861   6.231   7.061   7.119 -0.2833  0.2991 -0.5700
   29SAPC   H6R 3862   6.310   6.988   7.096 -1.2405 -0.2027 -2.5119
   29SAPC   C27 3863   6.215   7.099   7.260  0.5576 -0.4211  0.4858
   29SAPC   H7R 3864   6.168   7.199   7.271 -0.2774 -0.8071  0.4865
   29SAPC   H7S 3865   6.319   7.104   7.300  1.0922 -1.3755 -0.7292
   29SAPC   C28 3866   6.131   6.991   7.335  0.4155 -0.1795 -0.2312
   29SAPC   H8R 3867   6.057   6.942   7.270 -0.7413  0.6757  0.4156
   29SAPC   C29 3868   6.139   6.965   7.471 -0.4633 -0.1543 -0.6909
   29SAPC   H9R 3869   6.069   6.900   7.526  0.5254  0.7620  1.7951
   29SAPC  C210 3870   6.236   7.028   7.574  0.1597 -0.7318  0.0755
   29SAPC  H10R 3871   6.332   7.060   7.529  0.1469 -1.0977 -0.2133
   29SAPC  H10S 3872   6.268   6.955   7.652  0.1802 -0.4776  0.3074
   29SAPC  C211 3873   6.169   7.150   7.633 -0.4586  0.1954 -0.3842
   29SAPC  H11R 3874   6.143   7.235   7.568  2.2255  1.8812  0.5428
   29SAPC  C212 3875   6.143   7.165   7.762 -0.2900 -0.4553  0.4822
   29SAPC  H12R 3876   6.087   7.253   7.799  0.9237  0.1769  0.8604
   29SAPC  C213 3877   6.173   7.066   7.867  0.3259 -0.3956 -0.0746
   29SAPC  H13R 3878   6.183   7.125   7.961  0.2506  0.2508 -0.4729
   29SAPC  H13S 3879   6.273   7.020   7.856  0.1874 -0.3355 -1.6933
   29SAPC  C214 3880   6.070   6.949   7.881 -0.3441 -0.2220 -0.2702
   29SAPC  H14R 3881   6.033   6.914   7.784  0.2072 -0.6359 -0.3359
   29SAPC  C215 3882   6.045   6.877   7.990 -0.6139  0.2261 -0.1279
   29SAPC  H15R 3883   5.974   6.794   7.980  1.8168 -2.0898  0.4440
   29SAPC  C216 3884   6.099   6.909   8.125  0.5145 -0.1728  0.1968
   29SAPC  H16R 3885   6.196   6.963   8.125 -0.2373  1.2305  0.0931
   29SAPC  H16S 3886   6.124   6.819   8.184  1.1964  1.1049  1.9718
   29SAPC  C217 3887   6.000   6.991   8.213 -0.3204 -0.1107 -0.3936
   29SAPC  H17R 3888   5.913   6.924   8.233  0.7445 -1.9880 -1.8068
   29SAPC  H17S 3889   5.969   7.087   8.166 -1.0534  1.2822  2.6275
   29SAPC  C218 3890   6.067   7.023   8.347  0.0076 -0.3225  0.2753
   29SAPC  H18R 3891   6.159   7.086   8.345 -0.1172 -0.1511 -1.2125
   29SAPC  H18S 3892   6.097   6.933   8.406  0.2741 -0.9943 -0.8605
   29SAPC  C219 3893   5.967   7.092   8.441 -0.0658  0.1562  0.1813
   29SAPC  H19R 3894   5.879   7.024   8.440 -0.8948  1.1657  1.5269
   29SAPC  H19S 3895   5.935   7.197   8.422 -1.9609 -0.3624  0.2476
   29SAPC  C220 3896   6.012   7.092   8.585 -0.2479 -0.4772 -0.1378
   29SAPC  H20R 3897   6.020   6.990   8.627 -2.0007 -0.3099  0.6924
   29SAPC  H20S 3898   5.943   7.145   8.655  0.8287  0.9208 -0.0753
   29SAPC  H20T 3899   6.112   7.139   8.595 -0.7562  1.2277 -2.3266
   29SAPC   C33 3900   6.112   6.684   6.914 -0.0761 -0.2285  0.6154
   29SAPC   H3X 3901   6.198   6.747   6.882 -1.0901  1.3624  0.9008
   29SAPC   H3Y 3902   6.146   6.585   6.877  0.7805  0.9525 -1.9971
   29SAPC   C34 3903   6.103   6.672   7.069  0.2379  0.1161 -0.3618
   29SAPC   H4X 3904   6.035   6.752   7.105 -1.3227 -2.1494  2.1292
   29SAPC   H4Y 3905   6.204   6.683   7.115  0.2558 -0.6716 -0.2047
   29SAPC   C35 3906   6.044   6.534   7.108  0.0554 -0.8441 -0.4494
   29SAPC   H5X 3907   6.110   6.447   7.087  1.0821 -0.3437  0.5794
   29SAPC   H5Y 3908   5.949   6.517   7.053 -0.5091  1.4404 -0.2673
   29SAPC   C36 3909   6.008   6.531   7.263 -0.3296 -0.0920 -0.2607
   29SAPC   H6X 3910   5.972   6.431   7.294  0.2284 -0.8776 -2.0089
   29SAPC   H6Y 3911   5.931   6.605   7.293 -0.9443 -0.8689  0.1240
   29SAPC   C37 3912   6.135   6.553   7.348 -0.8575  0.2040  1.3712
   29SAPC   H7X 3913   6.185   6.648   7.323  0.2598 -0.1441  2.1982
   29SAPC   H7Y 3914   6.208   6.471   7.330 -2.8180 -1.5193  0.7684
   29SAPC   C38 3915   6.104   6.546   7.502  0.2668  0.1847  0.2843
   29SAPC   H8X 3916   6.053   6.453   7.534  1.2773  0.4653  2.9511
   29SAPC   H8Y 3917   6.027   6.626   7.502 -1.6877 -1.6247 -0.5430
   29SAPC   C39 3918   6.218   6.580   7.591 -0.4068  0.5337  0.0089
   29SAPC   H9X 3919   6.262   6.678   7.562 -1.0347  1.4220  1.9260
   29SAPC   H9Y 3920   6.295   6.500   7.589  1.0388  1.8046  1.3056
   29SAPC  C310 3921   6.176   6.583   7.734 -0.3643  0.1131  0.2079
   29SAPC  H10X 3922   6.124   6.490   7.764 -0.4395  0.0388 -0.1460
   29SAPC  H10Y 3923   6.102   6.665   7.742  0.8713  1.1258  1.8536
   29SAPC  C311 3924   6.293   6.588   7.834 -1.2795 -0.2852 -0.5391
   29SAPC  H11X 3925   6.368   6.664   7.805  0.7175 -1.3537  1.5220
   29SAPC  H11Y 3926   6.340   6.488   7.849 -2.2314 -0.3298  2.8764
   29SAPC  C312 3927   6.262   6.605   7.981 -0.4840  0.5725 -0.0382
   29SAPC  H12X 3928   6.167   6.554   8.009  1.7868 -1.9327  4.0179
   29SAPC  H12Y 3929   6.252   6.715   7.994  1.3554  0.7248  0.3814
   29SAPC  C313 3930   6.370   6.548   8.076 -0.1197  0.1340 -0.0211
   29SAPC  H13X 3931   6.471   6.581   8.045  0.4025 -2.2081 -1.0873
   29SAPC  H13Y 3932   6.359   6.440   8.051  0.1116  0.1821 -0.3294
   29SAPC  C314 3933   6.349   6.553   8.229  0.7575 -0.2230 -1.3597
   29SAPC  H14X 3934   6.294   6.646   8.254 -0.9512 -2.2263  3.6128
   29SAPC  H14Y 3935   6.448   6.559   8.279 -0.1500  1.2626  0.3751
   29SAPC  C315 3936   6.263   6.443   8.292  0.1421  0.1280 -0.2159
   29SAPC  H15X 3937   6.327   6.354   8.277 -3.8086 -2.7928 -1.3887
   29SAPC  H15Y 3938   6.176   6.435   8.223 -0.9415  3.1016  0.6445
   29SAPC  C316 3939   6.226   6.454   8.440  0.6018  0.0193  0.4724
   29SAPC  H16X 3940   6.167   6.362   8.459  1.3674 -1.0429 -1.9217
   29SAPC  H16Y 3941   6.165   6.544   8.463  1.7972  0.2912  2.8583
   29SAPC  C317 3942   6.345   6.450   8.529 -0.2013 -0.4027 -0.2368
   29SAPC  H17X 3943   6.413   6.529   8.491 -0.9164  0.2520 -0.1680
   29SAPC  H17Y 3944   6.388   6.347   8.529 -0.0697 -0.4084 -2.5145
   29SAPC  C318 3945   6.325   6.493   8.676 -1.4788 -0.0405  0.0535
   29SAPC  H18X 3946   6.419   6.492   8.735 -1.6942  3.9304  0.7483
   29SAPC  H18Y 3947   6.259   6.420   8.727 -1.8029  1.1328  1.3873
   29SAPC  H18Z 3948   6.281   6.595   8.680  0.6628  0.9788 -0.8395
   30SAPC     N 3949   6.513   5.729   6.243 -0.0177 -1.1873  0.2759
   30SAPC   C12 3950   6.558   5.819   6.134  0.0596 -0.3274 -0.5061
   30SAPC  H12A 3951   6.557   5.757   6.045  1.3243 -0.3525 -0.5164
   30SAPC  H12B 3952   6.659   5.849   6.158  0.7046 -0.1739 -3.0823
   30SAPC   C13 3953   6.501   5.798   6.372  0.4748 -0.0867 -1.0142
   30SAPC  H13A 3954   6.449   5.890   6.354 -1.5046 -0.8932  0.2726
   30SAPC  H13B 3955   6.454   5.732   6.443 -0.2554 -0.3677 -1.7366
   30SAPC  H13C 3956   6.600   5.817   6.410 -0.9764  3.0674  1.5995
   30SAPC   C14 3957   6.384   5.677   6.216  0.2400 -0.3793 -0.5078
   30SAPC  H14A 3958   6.306   5.752   6.208  1.5829  1.2880  1.1006
   30SAPC  H14B 3959   6.381   5.604   6.136  0.2624  0.4265 -1.2576
   30SAPC  H14C 3960   6.350   5.618   6.300  0.1045  0.7187  0.2339
   30SAPC   C15 3961   6.593   5.607   6.258 -0.0293 -0.5556  0.1574
   30SAPC  H15A 3962   6.694   5.630   6.290 -0.0490 -1.1531  0.6701
   30SAPC  H15B 3963   6.547   5.549   6.337  3.1262 -0.2115  2.4479
   30SAPC  H15C 3964   6.591   5.544   6.171 -0.4243 -1.0741  0.5301
   30SAPC   C11 3965   6.482   5.955   6.109  0.4980  0.6113 -0.3616
   30SAPC  H11A 3966   6.376   5.929   6.089  1.1477 -1.9146 -0.8234
   30SAPC  H11B 3967   6.511   6.000   6.012  1.9862  0.1665 -0.1477
   30SAPC     P 3968   6.627   6.127   6.240  0.0737  0.3623  0.0019
   30SAPC   O13 3969   6.752   6.044   6.237  0.0342  0.3463  0.0565
   30SAPC   O14 3970   6.624   6.241   6.150 -0.1730 -0.5212  0.2484
   30SAPC   O12 3971   6.497   6.037   6.221  0.6129  0.3206 -0.0526
   30SAPC   O11 3972   6.611   6.178   6.388 -0.4400 -0.0077  0.5080
   30SAPC    C1 3973   6.508   6.263   6.429  0.3973 -0.5189  0.1254
   30SAPC    HA 3974   6.473   6.329   6.347  0.4978  0.3162  0.7333
   30SAPC    HB 3975   6.421   6.204   6.464  1.3763 -1.8855  0.2930
   30SAPC    C2 3976   6.562   6.353   6.546  0.2867  1.0479  0.4523
   30SAPC    HS 3977   6.656   6.393   6.504  0.6668  0.2471  0.5244
   30SAPC   O21 3978   6.578   6.260   6.653 -0.2410  0.4332  0.1521
   30SAPC   C21 3979   6.684   6.280   6.726 -0.4863 -0.3701  0.2264
   30SAPC   O22 3980   6.760   6.380   6.708 -0.0632  0.5785  0.1977
   30SAPC   C22 3981   6.716   6.172   6.837  0.0377  0.0539  0.5371
   30SAPC   H2R 3982   6.625   6.107   6.832  0.4346 -0.4174 -0.8849
   30SAPC   H2S 3983   6.811   6.121   6.810  0.8002  1.0677  1.2680
   30SAPC    C3 3984   6.461   6.462   6.578  0.4025  0.7181 -0.1620
   30SAPC    HX 3985   6.372   6.403   6.610  0.5206  0.7475  0.2210
   30SAPC    HY 3986   6.454   6.520   6.483  0.9187  0.2174 -0.5060
   30SAPC   O31 3987   6.491   6.539   6.687  0.2786  0.6902  0.1325
   30SAPC   C31 3988   6.570   6.637   6.656 -0.2583  0.9817 -0.8536
   30SAPC   O32 3989   6.606   6.681   6.546  0.2085  0.6729  0.2941
   30SAPC   C32 3990   6.608   6.695   6.789 -0.0267  0.3168 -0.2135
   30SAPC   H2X 3991   6.707   6.744   6.772 -0.7913  1.7529 -0.7456
   30SAPC   H2Y 3992   6.600   6.622   6.872 -2.2998  0.7248 -0.0091
   30SAPC   C23 3993   6.735   6.220   6.977 -0.2310 -0.3141 -0.5320
   30SAPC   H3R 3994   6.798   6.312   6.978 -0.4562 -0.1573 -0.5540
   30SAPC   H3S 3995   6.799   6.157   7.041  1.8138  0.9910 -1.1825
   30SAPC   C24 3996   6.602   6.265   7.053 -0.2584 -0.0255  0.0794
   30SAPC   H4R 3997   6.534   6.315   6.981 -2.8332  0.4834  2.6673
   30SAPC   H4S 3998   6.623   6.325   7.144 -0.6423  0.0260  0.1353
   30SAPC   C25 3999   6.521   6.143   7.093  1.1558 -0.0771 -0.1838
   30SAPC   H5R 4000   6.466   6.095   7.011 -1.7899 -0.5690  1.9458
   30SAPC   C26 4001   6.496   6.095   7.215 -0.5516  0.7582  0.0373
   30SAPC   H6R 4002   6.424   6.012   7.227 -0.3936  0.1800 -2.4346
   30SAPC   C27 4003   6.545   6.145   7.344 -0.2659 -0.5646  0.5145
   30SAPC   H7R 4004   6.570   6.252   7.327 -0.2860 -0.2735  2.2126
   30SAPC   H7S 4005   6.636   6.100   7.389 -0.1895 -0.3592  0.5607
   30SAPC   C28 4006   6.430   6.151   7.443 -0.4051 -0.1322  0.1173
   30SAPC   H8R 4007   6.358   6.228   7.413  0.5993  0.4676 -0.8885
   30SAPC   C29 4008   6.419   6.103   7.570  0.5297  0.4315 -0.7054
   30SAPC   H9R 4009   6.318   6.110   7.614 -0.3824  0.1225 -2.6725
   30SAPC  C210 4010   6.504   6.018   7.652 -0.0840  0.3754  0.3777
   30SAPC  H10R 4011   6.556   5.951   7.580 -1.3256  0.6171 -0.7775
   30SAPC  H10S 4012   6.447   5.941   7.708 -1.2234  0.1464 -1.0361
   30SAPC  C211 4013   6.596   6.097   7.739 -0.1264 -0.4017  0.1468
   30SAPC  H11R 4014   6.685   6.131   7.684 -0.5796 -0.4099 -0.6017
   30SAPC  C212 4015   6.589   6.115   7.875  0.1369 -0.1923  0.4287
   30SAPC  H12R 4016   6.632   6.206   7.919 -3.0069  0.8576  1.6669
   30SAPC  C213 4017   6.484   6.046   7.958  0.2912  0.1006  0.9021
   30SAPC  H13R 4018   6.527   6.021   8.057  2.4139 -3.2247 -0.6467
   30SAPC  H13S 4019   6.478   5.940   7.924  2.3326 -0.2430  1.4983
   30SAPC  C214 4020   6.351   6.118   7.971  0.1524 -1.1218  0.3703
   30SAPC  H14R 4021   6.362   6.215   8.021 -0.4512 -0.7947 -0.1239
   30SAPC  C215 4022   6.228   6.071   7.948 -0.2949  0.5005  0.3020
   30SAPC  H15R 4023   6.150   6.145   7.972  0.8911  2.3381 -1.1862
   30SAPC  C216 4024   6.185   5.938   7.903 -0.1301 -0.0209  0.3271
   30SAPC  H16R 4025   6.250   5.861   7.950  1.0430  0.7475  0.0033
   30SAPC  H16S 4026   6.203   5.928   7.794  0.7322 -5.3926  0.7220
   30SAPC  C217 4027   6.037   5.917   7.936  0.5090  0.0458 -0.7072
   30SAPC  H17R 4028   5.997   5.827   7.885 -2.7457  0.0088  1.5646
   30SAPC  H17S 4029   5.976   5.996   7.887 -2.0878 -1.3441  0.0863
   30SAPC  C218 4030   6.003   5.928   8.086  0.7909  0.1030  0.3023
   30SAPC  H18R 4031   6.035   6.020   8.140  1.1414 -0.1631  0.5540
   30SAPC  H18S 4032   6.061   5.845   8.132  1.8309  1.6625  1.9672
   30SAPC  C219 4033   5.853   5.916   8.113  0.6879 -0.5466  1.0853
   30SAPC  H19R 4034   5.809   6.016   8.095  1.0020 -0.7286 -0.9001
   30SAPC  H19S 4035   5.828   5.902   8.220 -3.7207  1.3717  0.4942
   30SAPC  C220 4036   5.780   5.816   8.024  1.4475  0.0379  0.2126
   30SAPC  H20R 4037   5.762   5.861   7.924  2.0628  1.4760  0.7181
   30SAPC  H20S 4038   5.675   5.816   8.058 -0.3488  1.1502 -4.5714
   30SAPC  H20T 4039   5.833   5.719   8.039  0.3410 -0.3083  2.3669
   30SAPC   C33 4040   6.516   6.816   6.837 -0.4904  0.2705  0.3919
   30SAPC   H3X 4041   6.415   6.771   6.851  0.5861 -2.2245  0.6543
   30SAPC   H3Y 4042   6.507   6.898   6.764  0.4452 -0.3549 -0.4408
   30SAPC   C34 4043   6.554   6.868   6.978  0.1062 -0.1269 -0.0706
   30SAPC   H4X 4044   6.489   6.957   6.998  4.2020  2.8262  1.3794
   30SAPC   H4Y 4045   6.660   6.897   6.992 -0.2025  1.2748 -0.4134
   30SAPC   C35 4046   6.520   6.771   7.098  0.5502  0.3696  0.2202
   30SAPC   H5X 4047   6.598   6.692   7.097 -0.1073 -0.4124  2.6369
   30SAPC   H5Y 4048   6.419   6.727   7.080  1.0307 -0.7449  0.1539
   30SAPC   C36 4049   6.537   6.844   7.229  0.1124  0.1825  0.0584
   30SAPC   H6X 4050   6.440   6.891   7.257 -0.5383  0.9259 -3.0505
   30SAPC   H6Y 4051   6.612   6.925   7.213  0.7306 -0.7603 -2.2928
   30SAPC   C37 4052   6.588   6.772   7.352 -0.6549 -0.2887 -0.4276
   30SAPC   H7X 4053   6.697   6.761   7.331 -0.1957 -0.1636  1.7372
   30SAPC   H7Y 4054   6.538   6.674   7.365  0.3602 -0.8161 -0.3802
   30SAPC   C38 4055   6.572   6.864   7.470 -0.1466 -0.0714  0.2327
   30SAPC   H8X 4056   6.461   6.867   7.478 -0.0686 -0.4478  1.8720
   30SAPC   H8Y 4057   6.616   6.962   7.444  1.6282 -0.9361 -0.2001
   30SAPC   C39 4058   6.633   6.825   7.605 -0.1722  0.4804 -0.0311
   30SAPC   H9X 4059   6.742   6.842   7.610 -0.3444  1.4055  0.9586
   30SAPC   H9Y 4060   6.616   6.716   7.615 -0.7395  0.7279  2.8210
   30SAPC  C310 4061   6.563   6.890   7.730  0.5385  0.1568 -0.7306
   30SAPC  H10X 4062   6.455   6.868   7.730  0.3609  0.9585 -0.1600
   30SAPC  H10Y 4063   6.579   7.000   7.735  0.6575  0.0876  1.2267
   30SAPC  C311 4064   6.600   6.835   7.864  0.4236  0.4482 -0.8071
   30SAPC  H11X 4065   6.711   6.839   7.875  0.3741 -0.6808  0.1954
   30SAPC  H11Y 4066   6.577   6.727   7.869  3.1789 -0.1619  0.5841
   30SAPC  C312 4067   6.557   6.926   7.983 -0.8835 -0.6087  0.6609
   30SAPC  H12X 4068   6.447   6.939   7.980 -0.7119  0.9298  0.1884
   30SAPC  H12Y 4069   6.600   7.027   7.965 -1.1640 -0.6173 -0.0854
   30SAPC  C313 4070   6.605   6.872   8.119  0.3201 -0.2568  0.6860
   30SAPC  H13X 4071   6.715   6.864   8.129  0.4874  0.2532 -0.6379
   30SAPC  H13Y 4072   6.557   6.772   8.129 -2.4615  0.9121 -0.0565
   30SAPC  C314 4073   6.565   6.962   8.229  0.5442  0.3436  0.2837
   30SAPC  H14X 4074   6.458   6.952   8.255 -0.1305 -2.5370 -2.8029
   30SAPC  H14Y 4075   6.580   7.068   8.198  2.0047  0.2105  0.4698
   30SAPC  C315 4076   6.641   6.927   8.359 -0.5342  0.1832  0.5409
   30SAPC  H15X 4077   6.743   6.972   8.350  0.7095 -2.7709 -4.4667
   30SAPC  H15Y 4078   6.652   6.817   8.367 -1.2613  0.0944  0.3573
   30SAPC  C316 4079   6.554   6.967   8.478  0.2521 -0.0722 -0.0772
   30SAPC  H16X 4080   6.511   7.067   8.457 -0.9898 -0.6726 -0.4877
   30SAPC  H16Y 4081   6.635   6.978   8.554  1.6885 -2.6695 -1.0892
   30SAPC  C317 4082   6.450   6.860   8.511 -0.1185  0.1753  0.0480
   30SAPC  H17X 4083   6.503   6.763   8.521  0.3502  0.4992  0.8782
   30SAPC  H17Y 4084   6.386   6.859   8.421  3.4220  0.9965 -2.7023
   30SAPC  C318 4085   6.379   6.896   8.644 -0.4476  0.3145 -0.7372
   30SAPC  H18X 4086   6.300   6.971   8.621 -2.0691 -1.3723 -0.9538
   30SAPC  H18Y 4087   6.454   6.937   8.715 -1.7765  1.1079  0.2739
   30SAPC  H18Z 4088   6.338   6.800   8.684 -0.4868  0.6798  0.1293
   31SAPC     N 4089   2.581   0.313   6.107 -0.5768 -0.1806 -0.0477
   31SAPC   C12 4090   2.616   0.436   6.182  0.2159  1.1351  0.2352
   31SAPC  H12A 4091   2.626   0.522   6.117  1.4990  0.6615 -0.2248
   31SAPC  H12B 4092   2.717   0.421   6.218  0.5441 -1.2047 -1.4719
   31SAPC   C13 4093   2.696   0.265   6.017  0.1947  0.5749 -0.6642
   31SAPC  H13A 4094   2.722   0.340   5.942  3.3105  0.9721  0.6415
   31SAPC  H13B 4095   2.785   0.264   6.078  0.6868 -2.1850 -1.3134
   31SAPC  H13C 4096   2.684   0.164   5.981 -2.0422  0.6245 -0.1992
   31SAPC   C14 4097   2.549   0.201   6.199 -0.1444  0.1297  0.3372
   31SAPC  H14A 4098   2.487   0.237   6.280  0.0481  0.2242  0.4412
   31SAPC  H14B 4099   2.496   0.123   6.147  1.4314  0.4498 -1.8845
   31SAPC  H14C 4100   2.640   0.155   6.235  0.1352 -0.7208 -1.3789
   31SAPC   C15 4101   2.476   0.340   6.013 -0.0513  0.0817 -0.2107
   31SAPC  H15A 4102   2.513   0.414   5.944 -1.4311  0.4769 -0.5593
   31SAPC  H15B 4103   2.448   0.252   5.958  0.0975  0.0459 -0.2310
   31SAPC  H15C 4104   2.388   0.376   6.065 -0.2217 -0.0176 -0.4286
   31SAPC   C11 4105   2.517   0.469   6.302  0.8693  0.1862 -0.2616
   31SAPC  H11A 4106   2.553   0.569   6.335  0.8667  1.8159 -4.5208
   31SAPC  H11B 4107   2.547   0.400   6.383 -1.4361 -0.6946 -0.0737
   31SAPC     P 4108   2.265   0.389   6.353  0.1764 -0.1899 -0.2431
   31SAPC   O13 4109   2.140   0.453   6.308 -0.3818 -0.1650  0.6140
   31SAPC   O14 4110   2.277   0.243   6.331 -0.1282 -0.2163 -0.2035
   31SAPC   O12 4111   2.379   0.467   6.270  0.5895 -0.0095  0.0925
   31SAPC   O11 4112   2.287   0.419   6.505 -0.0692 -0.5785 -0.4260
   31SAPC    C1 4113   2.308   0.544   6.565 -0.4083 -0.0732 -0.5837
   31SAPC    HA 4114   2.418   0.561   6.568 -0.6470  1.6304 -0.2992
   31SAPC    HB 4115   2.263   0.630   6.512  2.0907  1.7958  0.0970
   31SAPC    C2 4116   2.227   0.552   6.711 -0.6312  0.3869  0.7410
   31SAPC    HS 4117   2.197   0.655   6.737 -1.5801  0.0087  1.1837
   31SAPC   O21 4118   2.323   0.503   6.813  0.4162  0.6143 -0.6012
   31SAPC   C21 4119   2.408   0.592   6.857  0.5098  0.3314  0.4566
   31SAPC   O22 4120   2.418   0.707   6.812 -0.1651  0.0999 -0.5054
   31SAPC   C22 4121   2.501   0.522   6.952  0.1169  0.6008 -0.2592
   31SAPC   H2R 4122   2.496   0.411   6.954  2.3202  0.3064 -3.4491
   31SAPC   H2S 4123   2.604   0.550   6.921  0.7312 -1.7146 -0.4352
   31SAPC    C3 4124   2.102   0.470   6.715  0.3043  0.9660  0.0461
   31SAPC    HX 4125   2.134   0.364   6.718 -0.9177  0.5884  0.6969
   31SAPC    HY 4126   2.048   0.476   6.618 -0.9377  0.0151  0.6464
   31SAPC   O31 4127   2.020   0.501   6.831 -0.4793  0.3932 -0.4702
   31SAPC   C31 4128   1.890   0.513   6.814 -0.1569 -0.2558  0.0389
   31SAPC   O32 4129   1.830   0.516   6.706  0.2812  0.1113  0.3542
   31SAPC   C32 4130   1.824   0.535   6.955 -0.1735 -0.5533 -0.3367
   31SAPC   H2X 4131   1.714   0.549   6.945 -0.4866 -0.9037  1.9915
   31SAPC   H2Y 4132   1.880   0.626   6.987 -1.0833  0.4911 -1.5841
   31SAPC   C23 4133   2.473   0.566   7.098  0.3602 -0.5178  0.5762
   31SAPC   H3R 4134   2.472   0.676   7.110  1.1150 -0.5193  0.6593
   31SAPC   H3S 4135   2.557   0.529   7.160  0.7246  1.2603  1.2043
   31SAPC   C24 4136   2.357   0.506   7.174  0.1001 -0.1364 -0.4532
   31SAPC   H4R 4137   2.384   0.519   7.281 -0.9508  0.1325 -0.2108
   31SAPC   H4S 4138   2.351   0.399   7.148 -1.5486 -0.3419  0.5921
   31SAPC   C25 4139   2.221   0.567   7.138  0.0370 -0.0498  0.0357
   31SAPC   H5R 4140   2.205   0.561   7.030  1.9354 -0.9699 -0.2418
   31SAPC   C26 4141   2.127   0.640   7.215 -0.9057 -0.3193 -0.2736
   31SAPC   H6R 4142   2.036   0.677   7.167 -1.2890 -0.4935  0.3106
   31SAPC   C27 4143   2.143   0.664   7.363  0.3279 -0.7490  0.6013
   31SAPC   H7R 4144   2.138   0.774   7.382 -0.6337 -0.9050  1.3432
   31SAPC   H7S 4145   2.246   0.637   7.392  0.2587 -1.3446  0.3210
   31SAPC   C28 4146   2.032   0.596   7.436 -0.1193 -0.2772  0.8597
   31SAPC   H8R 4147   1.935   0.603   7.384  0.2578  4.1939  0.3904
   31SAPC   C29 4148   2.036   0.545   7.558 -0.2238  0.4381 -0.2229
   31SAPC   H9R 4149   1.944   0.497   7.595 -0.4344  0.9891 -0.0209
   31SAPC  C210 4150   2.154   0.538   7.652 -0.1512  0.4539  0.7188
   31SAPC  H10R 4151   2.236   0.590   7.599 -2.1644  1.6027 -1.4626
   31SAPC  H10S 4152   2.177   0.429   7.652 -0.9137  0.2833  1.5106
   31SAPC  C211 4153   2.125   0.592   7.790  0.8469  0.7594 -0.4011
   31SAPC  H11R 4154   2.039   0.660   7.792  0.5050  0.4296 -2.1553
   31SAPC  C212 4155   2.191   0.555   7.905 -0.0140  0.4641 -0.1007
   31SAPC  H12R 4156   2.157   0.599   8.000 -1.1119  1.1324 -0.7773
   31SAPC  C213 4157   2.299   0.458   7.906  0.1923 -0.8831 -0.3561
   31SAPC  H13R 4158   2.336   0.415   7.811  1.9590 -1.0577  0.3789
   31SAPC  H13S 4159   2.257   0.377   7.969 -2.0080 -0.3613 -1.0396
   31SAPC  C214 4160   2.427   0.504   7.975  0.0868  0.6876  0.2433
   31SAPC  H14R 4161   2.460   0.437   8.056  0.8823  0.9407  0.1379
   31SAPC  C215 4162   2.505   0.613   7.942 -0.9356  0.3818  1.1067
   31SAPC  H15R 4163   2.595   0.632   8.002 -0.4913 -1.8809  1.2632
   31SAPC  C216 4164   2.471   0.709   7.829 -0.4491 -0.3722  0.1218
   31SAPC  H16R 4165   2.402   0.788   7.868  1.3286  1.5557 -0.4145
   31SAPC  H16S 4166   2.413   0.668   7.744 -1.3933  1.9588 -0.4466
   31SAPC  C217 4167   2.595   0.783   7.776 -0.2808 -0.1352 -0.4149
   31SAPC  H17R 4168   2.563   0.844   7.689  0.2798  1.6306  0.5469
   31SAPC  H17S 4169   2.672   0.715   7.737  0.1556  0.3245 -0.3670
   31SAPC  C218 4170   2.663   0.873   7.879 -0.1329  0.5579  0.7356
   31SAPC  H18R 4171   2.772   0.868   7.858  0.0656  0.3538  1.7585
   31SAPC  H18S 4172   2.661   0.828   7.981 -0.0910  1.6999  1.2496
   31SAPC  C219 4173   2.618   1.018   7.867  0.8151 -0.1237  0.3034
   31SAPC  H19R 4174   2.639   1.040   7.760 -1.0966  3.2431  0.4647
   31SAPC  H19S 4175   2.687   1.084   7.925  0.1981 -1.6803  2.9688
   31SAPC  C220 4176   2.478   1.057   7.913 -0.1970 -0.3622  0.4568
   31SAPC  H20R 4177   2.397   1.013   7.851 -0.6653 -0.6445  1.2428
   31SAPC  H20S 4178   2.466   1.167   7.900 -1.8981 -0.6676 -1.0936
   31SAPC  H20T 4179   2.449   1.022   8.015 -0.1049  1.8358  1.2976
   31SAPC   C33 4180   1.853   0.431   7.064  0.2799 -1.2370 -0.0709
   31SAPC   H3X 4181   1.962   0.422   7.084  0.0462 -1.1211  1.3552
   31SAPC   H3Y 4182   1.837   0.329   7.025 -0.1234 -2.2701  2.5906
   31SAPC   C34 4183   1.765   0.439   7.186 -0.6337 -0.4646 -0.1690
   31SAPC   H4X 4184   1.658   0.444   7.157 -0.3887 -1.0833 -1.2266
   31SAPC   H4Y 4185   1.782   0.534   7.240  1.1780 -2.0374  2.2087
   31SAPC   C35 4186   1.795   0.330   7.294  0.0212  0.2975  0.2732
   31SAPC   H5X 4187   1.880   0.344   7.365  0.5747 -2.1825  0.1993
   31SAPC   H5Y 4188   1.830   0.238   7.243 -0.5448 -0.4476  1.1895
   31SAPC   C36 4189   1.675   0.306   7.389 -0.5786 -1.0842 -0.6504
   31SAPC   H6X 4190   1.585   0.287   7.326 -1.2455  1.5747 -0.6265
   31SAPC   H6Y 4191   1.661   0.400   7.447 -1.0616 -0.4979 -1.7006
   31SAPC   C37 4192   1.699   0.183   7.478 -0.3550  0.2468 -0.4540
   31SAPC   H7X 4193   1.765   0.112   7.424  1.3839  2.2579 -1.1279
   31SAPC   H7Y 4194   1.596   0.147   7.496 -0.8799  1.9153  0.0401
   31SAPC   C38 4195   1.775   0.201   7.611 -0.0730 -0.6912  0.6607
   31SAPC   H8X 4196   1.878   0.221   7.572 -0.6005 -1.5840 -1.3538
   31SAPC   H8Y 4197   1.773   0.100   7.657 -2.8089 -1.1850 -0.3424
   31SAPC   C39 4198   1.721   0.296   7.721 -0.6495 -0.7289  0.1625
   31SAPC   H9X 4199   1.620   0.256   7.744  0.2764 -2.3141  1.7084
   31SAPC   H9Y 4200   1.713   0.398   7.678  2.9980 -0.4660 -0.2101
   31SAPC  C310 4201   1.796   0.304   7.855  0.6412 -0.2984  0.3999
   31SAPC  H10X 4202   1.744   0.371   7.927 -0.3366 -0.4292 -0.1669
   31SAPC  H10Y 4203   1.900   0.338   7.837  0.4464 -0.4716 -1.2130
   31SAPC  C311 4204   1.811   0.165   7.919  0.1332 -0.8882 -0.3887
   31SAPC  H11X 4205   1.889   0.117   7.856  1.9854  1.6975 -0.1980
   31SAPC  H11Y 4206   1.715   0.113   7.900  0.4869 -1.4976 -0.5383
   31SAPC  C312 4207   1.858   0.170   8.064  0.6662  0.2909 -0.0801
   31SAPC  H12X 4208   1.918   0.264   8.057 -1.1748  1.4167 -3.8733
   31SAPC  H12Y 4209   1.934   0.093   8.085  3.4544  1.9569 -3.1839
   31SAPC  C313 4210   1.741   0.191   8.166  0.0241 -0.2395  0.4297
   31SAPC  H13X 4211   1.684   0.096   8.180 -0.0384 -0.1858  0.5344
   31SAPC  H13Y 4212   1.669   0.267   8.128 -0.9207 -0.6969  1.2607
   31SAPC  C314 4213   1.800   0.226   8.304  0.8140 -0.8847 -0.8760
   31SAPC  H14X 4214   1.884   0.155   8.316 -0.9235 -2.8078  0.5923
   31SAPC  H14Y 4215   1.719   0.209   8.378  0.9733  0.3049 -0.3947
   31SAPC  C315 4216   1.841   0.372   8.320 -0.3683 -0.5872  0.2321
   31SAPC  H15X 4217   1.767   0.454   8.308  1.8733  1.4484 -0.3010
   31SAPC  H15Y 4218   1.919   0.384   8.242  1.1688  0.2096  1.8313
   31SAPC  C316 4219   1.914   0.393   8.453 -0.2484  0.4594  0.1239
   31SAPC  H16X 4220   1.965   0.296   8.470 -0.7363 -0.0220 -1.0573
   31SAPC  H16Y 4221   1.835   0.423   8.526 -1.6713  1.3185 -1.6864
   31SAPC  C317 4222   2.002   0.513   8.442 -0.4415 -0.0648 -0.3697
   31SAPC  H17X 4223   1.937   0.602   8.457 -1.6176 -0.7338 -1.3391
   31SAPC  H17Y 4224   2.048   0.531   8.342 -1.8998  0.8012 -0.9132
   31SAPC  C318 4225   2.118   0.504   8.544 -0.3513  0.3800 -0.1859
   31SAPC  H18X 4226   2.174   0.409   8.534 -1.2617 -0.1023 -0.8860
   31SAPC  H18Y 4227   2.072   0.493   8.644 -0.9297  0.8776 -0.3898
   31SAPC  H18Z 4228   2.182   0.595   8.543 -0.3263  0.3632 -0.9461
   32SAPC     N 4229   3.254   2.850   6.333 -0.0685  0.5875 -0.8090
   32SAPC   C12 4230   3.222   2.736   6.431 -0.0122  0.5514  0.5939
   32SAPC  H12A 4231   3.271   2.745   6.527  1.1540 -1.0469  0.1863
   32SAPC  H12B 4232   3.262   2.644   6.391  0.9156  1.5450 -0.8437
   32SAPC   C13 4233   3.170   2.964   6.364 -0.7661  0.3471 -0.2464
   32SAPC  H13A 4234   3.068   2.949   6.332 -1.1753 -0.7491  1.4014
   32SAPC  H13B 4235   3.177   2.998   6.466  2.4172  0.2167 -0.2993
   32SAPC  H13C 4236   3.217   3.049   6.316  3.2298 -1.4578  0.0132
   32SAPC   C14 4237   3.397   2.886   6.358 -0.1824 -0.0269  0.2939
   32SAPC  H14A 4238   3.415   2.911   6.462  0.0386 -0.1826  0.2957
   32SAPC  H14B 4239   3.464   2.801   6.346 -3.3442 -2.4789 -1.3812
   32SAPC  H14C 4240   3.431   2.966   6.294  0.8036  0.5003  1.4266
   32SAPC   C15 4241   3.233   2.814   6.187  0.7052  0.0740  0.8063
   32SAPC  H15A 4242   3.216   2.911   6.143  0.8228 -0.0555  0.4713
   32SAPC  H15B 4243   3.322   2.769   6.146  0.6507 -0.3244  1.1133
   32SAPC  H15C 4244   3.153   2.742   6.179  0.8564  0.0715 -0.8533
   32SAPC   C11 4245   3.074   2.688   6.427 -0.4895 -0.2544  0.3293
   32SAPC  H11A 4246   3.002   2.770   6.449  0.1174  0.7136 -1.1103
   32SAPC  H11B 4247   3.074   2.618   6.513  0.3989 -1.4426 -0.6064
   32SAPC     P 4248   3.096   2.490   6.250  0.2197  0.1975  0.9512
   32SAPC   O13 4249   3.009   2.379   6.293 -0.1230  0.0002  0.1669
   32SAPC   O14 4250   3.115   2.496   6.102 -0.0577 -0.5580  0.3740
   32SAPC   O12 4251   3.032   2.623   6.299 -0.3986 -0.2359 -0.1065
   32SAPC   O11 4252   3.231   2.475   6.325  0.1831  0.1881  0.1634
   32SAPC    C1 4253   3.278   2.353   6.379  0.3484  0.0616  0.8330
   32SAPC    HA 4254   3.195   2.294   6.423 -0.5932  0.3202 -0.5328
   32SAPC    HB 4255   3.313   2.282   6.301 -0.6174  1.5834 -1.0868
   32SAPC    C2 4256   3.392   2.396   6.479 -1.8246  0.7012  0.1936
   32SAPC    HS 4257   3.420   2.303   6.532 -3.7757 -0.1719 -0.2054
   32SAPC   O21 4258   3.345   2.495   6.567 -0.1366  0.0174 -0.2534
   32SAPC   C21 4259   3.317   2.457   6.692 -0.1419  0.2997 -0.1610
   32SAPC   O22 4260   3.338   2.347   6.744 -0.1752 -0.6855 -0.0140
   32SAPC   C22 4261   3.232   2.562   6.762 -0.0364 -0.2429 -0.0952
   32SAPC   H2R 4262   3.274   2.663   6.745  1.5929 -0.8675  0.0504
   32SAPC   H2S 4263   3.133   2.558   6.712 -0.8354 -1.2458  1.4910
   32SAPC    C3 4264   3.522   2.451   6.407 -0.7723 -0.3543 -0.2685
   32SAPC    HX 4265   3.493   2.556   6.386 -0.3199 -0.0983  0.3585
   32SAPC    HY 4266   3.529   2.398   6.310 -1.9297 -1.0310  0.0062
   32SAPC   O31 4267   3.649   2.429   6.474 -0.8263  0.0763  0.0328
   32SAPC   C31 4268   3.674   2.527   6.555 -0.0792  0.1040  0.5542
   32SAPC   O32 4269   3.605   2.625   6.567 -0.1746 -0.6342  0.3019
   32SAPC   C32 4270   3.795   2.488   6.636 -0.1033  0.1016 -0.5210
   32SAPC   H2X 4271   3.882   2.540   6.590  0.3771 -0.0533  0.1929
   32SAPC   H2Y 4272   3.822   2.380   6.629 -0.0650 -0.0104  1.0052
   32SAPC   C23 4273   3.235   2.546   6.912  0.7156 -0.2603  0.2360
   32SAPC   H3R 4274   3.187   2.451   6.942 -0.2079  1.0194  3.1011
   32SAPC   H3S 4275   3.171   2.622   6.961  1.1681  0.0088  0.4185
   32SAPC   C24 4276   3.370   2.572   6.976 -0.4040 -0.0868 -0.0385
   32SAPC   H4R 4277   3.448   2.504   6.935  0.9971  0.6273  1.3289
   32SAPC   H4S 4278   3.370   2.545   7.084  1.4116 -4.3972 -0.9060
   32SAPC   C25 4279   3.407   2.721   6.949 -0.1257  0.2409 -0.0027
   32SAPC   H5R 4280   3.477   2.734   6.865  0.7224 -1.5371  0.3832
   32SAPC   C26 4281   3.355   2.824   7.020 -0.6425  0.2344 -0.2814
   32SAPC   H6R 4282   3.377   2.928   6.992  0.0336  0.8850  2.3725
   32SAPC   C27 4283   3.259   2.811   7.136  0.2609 -0.0993  0.5753
   32SAPC   H7R 4284   3.295   2.722   7.192  0.1980 -0.7485 -0.3772
   32SAPC   H7S 4285   3.165   2.776   7.088  0.0962 -2.3251  2.3369
   32SAPC   C28 4286   3.237   2.927   7.225 -0.1602  0.0979 -0.0123
   32SAPC   H8R 4287   3.284   3.021   7.193  0.0468 -0.7804 -2.5052
   32SAPC   C29 4288   3.174   2.922   7.345  0.4919 -0.2804 -0.7003
   32SAPC   H9R 4289   3.172   3.010   7.411  1.0543 -0.5838 -0.2689
   32SAPC  C210 4290   3.109   2.801   7.404 -0.5317 -0.0558  0.9624
   32SAPC  H10R 4291   3.107   2.730   7.318  1.0899  0.1979  0.6990
   32SAPC  H10S 4292   3.002   2.819   7.429 -1.2241 -3.0945  0.6846
   32SAPC  C211 4293   3.187   2.718   7.510  0.8162 -0.2300  0.0804
   32SAPC  H11R 4294   3.232   2.626   7.471  0.7475 -0.5165  0.6730
   32SAPC  C212 4295   3.193   2.732   7.649 -0.4795 -0.3651  1.0143
   32SAPC  H12R 4296   3.233   2.652   7.712  0.6989  0.2491  1.0758
   32SAPC  C213 4297   3.133   2.847   7.725 -0.0189 -0.2324  0.7152
   32SAPC  H13R 4298   3.088   2.913   7.647  1.8139  1.7713  1.2733
   32SAPC  H13S 4299   3.213   2.902   7.779 -1.5405  0.4831  2.3552
   32SAPC  C214 4300   3.033   2.798   7.831 -0.0181 -0.2888 -0.3212
   32SAPC  H14R 4301   2.934   2.785   7.784 -0.1848  2.8088 -1.0317
   32SAPC  C215 4302   3.040   2.789   7.969 -1.0866 -0.1903 -0.4051
   32SAPC  H15R 4303   2.949   2.760   8.024 -1.9236  2.6342 -0.1410
   32SAPC  C216 4304   3.171   2.809   8.045  0.2021 -0.6963 -0.5448
   32SAPC  H16R 4305   3.148   2.892   8.116 -0.5289 -1.1876 -0.1995
   32SAPC  H16S 4306   3.249   2.842   7.973  1.2447 -2.3465 -0.2258
   32SAPC  C217 4307   3.241   2.688   8.109  0.1641 -0.4943 -0.0436
   32SAPC  H17R 4308   3.283   2.613   8.038 -1.5862 -0.6931 -0.9091
   32SAPC  H17S 4309   3.187   2.636   8.192  1.9249 -3.4112 -0.5559
   32SAPC  C218 4310   3.375   2.730   8.169  0.8282 -0.0869  0.2536
   32SAPC  H18R 4311   3.360   2.817   8.236  0.1670 -0.5156  0.6774
   32SAPC  H18S 4312   3.458   2.751   8.099  1.4621 -1.6913  0.4686
   32SAPC  C219 4313   3.426   2.614   8.264 -0.0735 -0.0531  0.2551
   32SAPC  H19R 4314   3.420   2.531   8.191  0.2159 -0.9179  1.2068
   32SAPC  H19S 4315   3.347   2.606   8.341 -0.0682  0.2876  0.3002
   32SAPC  C220 4316   3.562   2.623   8.328 -0.0440 -0.2545 -0.1118
   32SAPC  H20R 4317   3.649   2.602   8.262  0.0732 -1.0139  0.2647
   32SAPC  H20S 4318   3.563   2.544   8.407  0.6485  0.3454  0.5006
   32SAPC  H20T 4319   3.587   2.713   8.389  2.5085 -1.9162  1.5111
   32SAPC   C33 4320   3.765   2.530   6.786 -0.5440  1.2752  0.3542
   32SAPC   H3X 4321   3.663   2.501   6.819 -0.4059  0.1798 -0.1337
   32SAPC   H3Y 4322   3.768   2.641   6.785 -0.0233  1.3621  3.2166
   32SAPC   C34 4323   3.875   2.486   6.880  0.0259 -0.0875  0.3075
   32SAPC   H4X 4324   3.972   2.516   6.834 -0.0730  0.0617  0.1971
   32SAPC   H4Y 4325   3.881   2.376   6.897  1.1261 -0.0073  0.5650
   32SAPC   C35 4326   3.859   2.560   7.016 -0.3927  0.1636 -0.7692
   32SAPC   H5X 4327   3.866   2.667   6.987 -1.4853  0.2642 -0.6749
   32SAPC   H5Y 4328   3.951   2.540   7.076  0.9251 -0.1100 -2.7762
   32SAPC   C36 4329   3.729   2.527   7.090  0.4710  0.4580  0.1608
   32SAPC   H6X 4330   3.732   2.417   7.104 -0.3025  0.7893  4.6432
   32SAPC   H6Y 4331   3.646   2.554   7.022  1.3286  0.6889 -0.8165
   32SAPC   C37 4332   3.704   2.607   7.221  0.1771  0.0597 -0.7290
   32SAPC   H7X 4333   3.681   2.712   7.195 -0.6372 -0.4028 -1.9705
   32SAPC   H7Y 4334   3.805   2.608   7.267  0.1147  0.5473 -0.5982
   32SAPC   C38 4335   3.593   2.545   7.310  0.3488  0.3660  0.3110
   32SAPC   H8X 4336   3.610   2.437   7.296  1.8057  0.6831 -0.5689
   32SAPC   H8Y 4337   3.496   2.578   7.267  0.6980  1.3954  0.2849
   32SAPC   C39 4338   3.596   2.584   7.464  0.2964  0.8196 -0.0045
   32SAPC   H9X 4339   3.542   2.680   7.480  1.8031  1.4237  1.7551
   32SAPC   H9Y 4340   3.699   2.592   7.503  0.2106 -2.1514  1.0100
   32SAPC  C310 4341   3.525   2.482   7.557  0.2220  0.3604 -0.0907
   32SAPC  H10X 4342   3.564   2.380   7.536 -1.9754 -0.2976 -1.3083
   32SAPC  H10Y 4343   3.416   2.475   7.534 -0.3868 -0.9963  2.7808
   32SAPC  C311 4344   3.533   2.520   7.708 -0.2229  0.1451  0.0203
   32SAPC  H11X 4345   3.502   2.625   7.730  0.2328  0.2612  0.1112
   32SAPC  H11Y 4346   3.634   2.493   7.745 -1.4934 -0.9840  2.9848
   32SAPC  C312 4347   3.436   2.426   7.785  0.3488  0.0628  0.2329
   32SAPC  H12X 4348   3.421   2.332   7.726  0.7928  0.2688 -0.2158
   32SAPC  H12Y 4349   3.333   2.466   7.803 -0.9545 -2.8561 -0.1092
   32SAPC  C313 4350   3.482   2.399   7.927 -0.1224  0.7386 -1.0291
   32SAPC  H13X 4351   3.395   2.373   7.991  0.5221  0.9926 -0.0357
   32SAPC  H13Y 4352   3.528   2.495   7.959  0.1960  0.5964 -1.0586
   32SAPC  C314 4353   3.579   2.282   7.937 -0.2165  0.4125  0.0027
   32SAPC  H14X 4354   3.671   2.301   7.878  0.0075 -2.7059 -0.8606
   32SAPC  H14Y 4355   3.525   2.195   7.894  0.1860 -0.6008  1.4481
   32SAPC  C315 4356   3.620   2.252   8.083  0.1152  0.3052 -0.0664
   32SAPC  H15X 4357   3.531   2.246   8.150 -1.4879 -1.3870 -2.1738
   32SAPC  H15Y 4358   3.677   2.339   8.123 -1.5136  0.9925  0.8995
   32SAPC  C316 4359   3.696   2.123   8.108  0.4859 -0.1826 -0.3140
   32SAPC  H16X 4360   3.786   2.126   8.042 -0.5211 -1.7309 -1.8360
   32SAPC  H16Y 4361   3.628   2.045   8.069 -2.2001  2.0315 -0.2995
   32SAPC  C317 4362   3.737   2.098   8.249  0.3057  0.2312  0.0390
   32SAPC  H17X 4363   3.812   2.016   8.241  0.0697  0.1015 -1.0102
   32SAPC  H17Y 4364   3.649   2.060   8.306  2.0125 -1.6502  1.5712
   32SAPC  C318 4365   3.797   2.209   8.332  0.3638 -0.0647 -0.0539
   32SAPC  H18X 4366   3.714   2.283   8.335 -0.8280 -1.2884 -1.4481
   32SAPC  H18Y 4367   3.878   2.278   8.298 -0.4766  0.5403 -0.8614
   32SAPC  H18Z 4368   3.810   2.165   8.434  0.9092  0.3793  0.0746
   33POPC     N 4369   1.810   3.275  10.757 -0.0518 -0.3392 -0.6149
   33POPC   C12 4370   1.762   3.159  10.665 -0.1887  0.5456  0.5856
   33POPC  H12A 4371   1.688   3.196  10.595 -0.7241 -2.0376 -0.3411
   33POPC  H12B 4372   1.699   3.094  10.724  1.7968  0.2621  2.4897
   33POPC   C13 4373   1.913   3.366  10.699  0.0764  0.1160  0.8895
   33POPC  H13A 4374   1.951   3.437  10.771 -1.9614  0.0877  2.0677
   33POPC  H13B 4375   2.003   3.314  10.669  0.7400  0.9397  1.4081
   33POPC  H13C 4376   1.877   3.418  10.612 -0.0716 -1.9773 -0.3682
   33POPC   C14 4377   1.686   3.355  10.794 -0.5994 -0.3579 -0.4721
   33POPC  H14A 4378   1.613   3.294  10.845  0.5561 -1.0642  0.4002
   33POPC  H14B 4379   1.708   3.427  10.872  0.7250 -1.8753  0.6231
   33POPC  H14C 4380   1.650   3.411  10.709  2.0371  0.1557 -1.3400
   33POPC   C15 4381   1.873   3.221  10.875 -0.2256  0.0616 -0.3007
   33POPC  H15A 4382   1.907   3.290  10.951  0.3871 -0.1909 -0.3442
   33POPC  H15B 4383   1.957   3.165  10.838  1.5580  2.4843 -0.1538
   33POPC  H15C 4384   1.806   3.152  10.924  0.8384 -0.9542 -0.2494
   33POPC   C11 4385   1.866   3.070  10.591 -0.7252 -0.3449 -0.2020
   33POPC  H11A 4386   1.907   3.125  10.503 -0.6004  0.3598  0.2860
   33POPC  H11B 4387   1.807   2.983  10.556 -0.4440 -0.6352  0.0413
   33POPC     P 4388   1.976   2.878  10.746 -0.0734  0.1869  0.1824
   33POPC   O13 4389   1.857   2.858  10.831  0.0716 -0.2332 -0.0628
   33POPC   O14 4390   2.099   2.862  10.816 -0.3163 -0.0828 -0.0786
   33POPC   O12 4391   1.967   3.021  10.684  0.5587 -0.1102  0.2592
   33POPC   O11 4392   1.981   2.773  10.620  0.1985  0.8622 -0.3325
   33POPC    C1 4393   2.066   2.804  10.502  0.8490 -0.7444 -0.2609
   33POPC    HA 4394   2.118   2.902  10.514 -0.8060  0.0215  1.1313
   33POPC    HB 4395   2.147   2.729  10.491  0.2254 -1.5218  0.2784
   33POPC    C2 4396   1.990   2.802  10.367  0.3734  0.8109  0.1821
   33POPC    HS 4397   1.907   2.874  10.357 -1.1377 -1.0586 -1.7574
   33POPC   O21 4398   1.938   2.664  10.348  0.6576 -0.1820 -0.0404
   33POPC   C21 4399   1.837   2.648  10.263  0.1285 -0.0661 -0.1941
   33POPC   O22 4400   1.778   2.742  10.207 -0.1630 -0.5573  0.2056
   33POPC   C22 4401   1.805   2.496  10.247 -0.3331  0.0175 -0.6817
   33POPC   H2R 4402   1.794   2.464  10.353 -0.7990 -1.0483 -1.0398
   33POPC   H2S 4403   1.894   2.444  10.204  0.0682 -0.4821  0.7032
   33POPC    C3 4404   2.086   2.856  10.255  1.0654 -0.0216  1.0330
   33POPC    HX 4405   2.172   2.786  10.254  0.4851 -0.7979 -1.3517
   33POPC    HY 4406   2.117   2.959  10.286 -0.5501 -0.0239  2.8500
   33POPC   O31 4407   2.046   2.859  10.118 -0.0800 -0.5856 -0.1052
   33POPC   C31 4408   1.951   2.954  10.092 -0.0159 -0.0469  0.1003
   33POPC   O32 4409   1.916   3.043  10.169  0.0592  0.9849  0.3315
   33POPC   C32 4410   1.923   2.957   9.945 -0.1556 -0.4059  0.2879
   33POPC   H2X 4411   2.001   3.017   9.894 -1.7299  1.3632 -0.1209
   33POPC   H2Y 4412   1.828   3.011   9.929  0.0556  0.0433  0.5184
   33POPC   C23 4413   1.679   2.459  10.165 -0.3853  0.7062 -0.2961
   33POPC   H3R 4414   1.591   2.509  10.211 -0.0503  1.3886 -0.3786
   33POPC   H3S 4415   1.667   2.349  10.171  1.9438  0.4148  0.0208
   33POPC   C24 4416   1.695   2.508  10.027 -0.1479 -0.9080  0.6413
   33POPC   H4R 4417   1.783   2.455   9.985  0.0830  1.3865 -2.0337
   33POPC   H4S 4418   1.716   2.616  10.029 -0.4943 -0.8444  1.9581
   33POPC   C25 4419   1.580   2.487   9.920 -0.5048  0.3327 -0.4325
   33POPC   H5R 4420   1.490   2.539   9.958 -0.7899  0.9096 -1.8417
   33POPC   H5S 4421   1.543   2.383   9.908  0.8906  0.0782 -3.2697
   33POPC   C26 4422   1.606   2.540   9.777 -0.3353  0.0799 -0.6662
   33POPC   H6R 4423   1.681   2.472   9.732  1.3275 -0.8407  3.0498
   33POPC   H6S 4424   1.661   2.636   9.791  0.7846 -0.5733 -0.4296
   33POPC   C27 4425   1.485   2.563   9.697  0.3921 -0.3754 -0.5258
   33POPC   H7R 4426   1.421   2.639   9.746  3.3354  2.1809 -0.3617
   33POPC   H7S 4427   1.420   2.472   9.688 -0.3823  0.2678 -1.8170
   33POPC   C28 4428   1.515   2.629   9.565 -0.4640  0.3593  0.0677
   33POPC   H8R 4429   1.605   2.694   9.570  1.5293 -2.3560  2.8446
   33POPC   H8S 4430   1.428   2.695   9.545  0.8864  2.2437  0.0860
   33POPC   C29 4431   1.543   2.531   9.460  0.6013 -0.1135  0.3042
   33POPC   H91 4432   1.615   2.455   9.492  1.9369  0.1603 -1.8187
   33POPC  C210 4433   1.483   2.516   9.340 -0.3796  0.1391 -0.2300
   33POPC  H101 4434   1.510   2.443   9.262  1.1519 -1.4746  1.6979
   33POPC  C211 4435   1.372   2.613   9.297  0.1313 -0.9474  0.2713
   33POPC  H11R 4436   1.375   2.637   9.188 -2.4550  0.1070  0.3613
   33POPC  H11S 4437   1.368   2.712   9.346 -1.1765 -1.1776  0.6592
   33POPC  C212 4438   1.237   2.547   9.323  0.0194 -0.0981 -0.4061
   33POPC  H12R 4439   1.240   2.461   9.253 -1.7199 -1.5554  1.2204
   33POPC  H12S 4440   1.151   2.615   9.305  0.4720  0.2909 -1.1871
   33POPC  C213 4441   1.204   2.488   9.466 -0.0713  0.4012  0.1108
   33POPC  H13R 4442   1.233   2.562   9.543  0.4125 -0.5826  0.8950
   33POPC  H13S 4443   1.258   2.393   9.488 -0.5823  0.2091  0.5617
   33POPC  C214 4444   1.051   2.464   9.492 -0.2951  0.4382 -0.3862
   33POPC  H14R 4445   1.019   2.377   9.429 -1.0444 -1.0687  1.9397
   33POPC  H14S 4446   0.989   2.549   9.455  2.2841  1.9580 -1.4256
   33POPC  C215 4447   1.016   2.431   9.633 -0.5630 -0.0366 -0.1545
   33POPC  H15R 4448   0.988   2.527   9.681  0.9613  0.1269  0.4413
   33POPC  H15S 4449   1.094   2.375   9.688 -1.8183  0.4865  2.2727
   33POPC  C216 4450   0.900   2.329   9.631  0.4494 -0.1489 -0.0947
   33POPC  H16R 4451   0.930   2.245   9.564  1.0073  1.7185 -2.3524
   33POPC  H16S 4452   0.814   2.380   9.582  0.8762 -1.2707 -2.1177
   33POPC  C217 4453   0.860   2.279   9.768 -0.1771 -0.6973  0.9816
   33POPC  H17R 4454   0.948   2.237   9.821  1.3811  1.0885 -0.0870
   33POPC  H17S 4455   0.784   2.198   9.759 -0.8108 -0.0469  0.3264
   33POPC  C218 4456   0.773   2.376   9.860  0.8469 -0.4768 -0.0574
   33POPC  H18R 4457   0.842   2.448   9.910 -1.4665  1.7468  0.1375
   33POPC  H18S 4458   0.724   2.314   9.938  0.9393  0.9349  1.1625
   33POPC  H18T 4459   0.697   2.439   9.808  1.4817  1.1252  0.8777
   33POPC   C33 4460   1.923   2.816   9.876  0.5025  0.4798  0.0594
   33POPC   H3X 4461   1.845   2.757   9.928  1.6501  0.9510  2.4702
   33POPC   H3Y 4462   2.024   2.770   9.883  0.2405 -0.2788 -1.0047
   33POPC   C34 4463   1.880   2.819   9.730 -0.1195  0.3683 -0.1634
   33POPC   H4X 4464   1.911   2.919   9.693 -2.2218  0.2638 -2.4127
   33POPC   H4Y 4465   1.770   2.834   9.742 -0.5619 -0.5874 -2.5715
   33POPC   C35 4466   1.923   2.700   9.655  0.2333  0.5399  0.6818
   33POPC   H5X 4467   1.884   2.613   9.712 -0.0118  1.1052  1.3999
   33POPC   H5Y 4468   2.032   2.682   9.667  1.0831  2.2269 -3.0277
   33POPC   C36 4469   1.891   2.697   9.502  0.4855  0.1673 -0.0777
   33POPC   H6X 4470   1.928   2.789   9.453  1.0308 -0.2046 -0.3797
   33POPC   H6Y 4471   1.781   2.710   9.495  0.5095 -0.1829 -1.3011
   33POPC   C37 4472   1.956   2.582   9.437 -0.0710 -0.4959  0.3463
   33POPC   H7X 4473   1.916   2.484   9.471 -0.3109 -0.1398  1.0856
   33POPC   H7Y 4474   2.064   2.571   9.461  0.1937  1.0024 -0.0804
   33POPC   C38 4475   1.935   2.582   9.284 -0.4069 -0.9945 -0.6177
   33POPC   H8X 4476   1.826   2.585   9.262 -0.4185 -0.5493 -0.4980
   33POPC   H8Y 4477   1.971   2.486   9.240  1.1147 -0.2401 -1.0975
   33POPC   C39 4478   1.990   2.694   9.201  0.5340  0.3283  0.3026
   33POPC   H9X 4479   2.097   2.692   9.230  0.2659 -1.5970  1.3137
   33POPC   H9Y 4480   1.956   2.794   9.236 -4.4210 -2.0592  3.5769
   33POPC  C310 4481   1.965   2.692   9.054  0.5359  0.2496  0.6041
   33POPC  H10X 4482   1.996   2.785   9.001  2.6038 -0.7964 -0.1151
   33POPC  H10Y 4483   1.856   2.686   9.033  0.3239  1.0738  1.3887
   33POPC  C311 4484   2.040   2.567   8.995 -0.0251  0.2670 -0.0557
   33POPC  H11X 4485   1.988   2.486   9.050 -2.8012 -0.1345 -3.0057
   33POPC  H11Y 4486   2.148   2.587   9.015  0.0521  0.8199 -0.9370
   33POPC  C312 4487   2.016   2.560   8.838  0.3857 -0.1035  0.5854
   33POPC  H12X 4488   2.065   2.643   8.784 -0.6877  1.1872  1.5129
   33POPC  H12Y 4489   1.906   2.560   8.825  0.1913 -2.6967  1.5488
   33POPC  C313 4490   2.057   2.423   8.776 -0.9602  0.0450  0.1934
   33POPC  H13X 4491   2.049   2.435   8.666  2.3491  1.0130 -0.0504
   33POPC  H13Y 4492   1.989   2.342   8.810  0.7555 -1.2589  0.6314
   33POPC  C314 4493   2.202   2.379   8.825  0.2255 -0.0500  0.8909
   33POPC  H14X 4494   2.193   2.329   8.924  0.8521 -1.3291  0.3268
   33POPC  H14Y 4495   2.266   2.469   8.821  0.9623 -0.6007 -0.3218
   33POPC  C315 4496   2.276   2.281   8.746 -0.2839 -0.0706 -0.4352
   33POPC  H15X 4497   2.311   2.320   8.648  1.7094  0.8022  0.5863
   33POPC  H15Y 4498   2.220   2.185   8.736 -0.8339  0.0371  1.2284
   33POPC  C316 4499   2.393   2.232   8.826 -0.0951  0.2730 -0.0213
   33POPC  H16X 4500   2.467   2.314   8.842 -0.5128  0.8110 -0.7847
   33POPC  H16Y 4501   2.446   2.148   8.777 -0.2582 -0.0305  0.3095
   33POPC  H16Z 4502   2.362   2.192   8.925  0.5254  0.6630  0.3384
   34POPC     N 4503   3.058   3.759  11.040 -0.1467  0.3796  0.2661
   34POPC   C12 4504   3.054   3.652  10.938  0.2047 -0.1479 -0.2753
   34POPC  H12A 4505   2.990   3.571  10.970 -0.7934  1.5978  2.4293
   34POPC  H12B 4506   3.151   3.607  10.924  0.4608  0.8606 -2.1222
   34POPC   C13 4507   3.168   3.852  11.018  0.1217  0.0977 -0.2708
   34POPC  H13A 4508   3.188   3.914  11.104 -1.6821  1.7368 -0.9569
   34POPC  H13B 4509   3.262   3.800  11.008 -0.5733 -1.2122 -0.2385
   34POPC  H13C 4510   3.142   3.925  10.942 -0.7506  2.3066  1.9981
   34POPC   C14 4511   2.928   3.826  11.044 -0.3375  0.2619 -0.7768
   34POPC  H14A 4512   2.857   3.774  11.106  0.7595 -1.0071 -0.5523
   34POPC  H14B 4513   2.935   3.921  11.096  1.0706 -0.9935  1.4765
   34POPC  H14C 4514   2.894   3.836  10.941 -0.9826  0.3323 -0.5653
   34POPC   C15 4515   3.081   3.694  11.171  0.2323 -0.3747 -0.5576
   34POPC  H15A 4516   3.095   3.760  11.255  3.3709 -0.9387 -0.5027
   34POPC  H15B 4517   3.172   3.635  11.172  0.8931  0.6211  0.2995
   34POPC  H15C 4518   2.998   3.628  11.191 -1.1856  1.1085 -1.2823
   34POPC   C11 4519   3.016   3.690  10.789  0.0486  0.0506 -0.2802
   34POPC  H11A 4520   3.049   3.604  10.727 -0.0893  0.6858 -1.2665
   34POPC  H11B 4521   3.079   3.780  10.772 -0.1836  0.1970 -0.3677
   34POPC     P 4522   2.774   3.618  10.716 -0.3349 -0.3286 -0.0376
   34POPC   O13 4523   2.628   3.661  10.722 -0.4078 -0.5397 -0.0650
   34POPC   O14 4524   2.802   3.492  10.781 -0.3273 -0.0434  0.0355
   34POPC   O12 4525   2.871   3.728  10.781 -0.5028  0.0383 -0.3520
   34POPC   O11 4526   2.823   3.610  10.568  0.2410 -0.9881  0.2669
   34POPC    C1 4527   2.810   3.719  10.479 -0.2348 -0.3097 -0.9364
   34POPC    HA 4528   2.890   3.796  10.482 -1.2940  0.8068 -0.5515
   34POPC    HB 4529   2.712   3.769  10.498  1.1894  2.0607  0.7530
   34POPC    C2 4530   2.822   3.667  10.329 -0.1001 -0.1030 -0.4909
   34POPC    HS 4531   2.930   3.662  10.304  0.0224  1.3927 -0.3470
   34POPC   O21 4532   2.744   3.756  10.244  0.0335 -0.1614  0.3082
   34POPC   C21 4533   2.790   3.877  10.218  0.0394 -0.5984  0.0142
   34POPC   O22 4534   2.898   3.917  10.253  0.3149 -0.2989  0.2214
   34POPC   C22 4535   2.685   3.942  10.127 -0.4710  0.1494 -0.3257
   34POPC   H2R 4536   2.716   4.048  10.113  0.5695 -0.4297 -3.2570
   34POPC   H2S 4537   2.599   3.929  10.195  1.3020  0.8263  2.2138
   34POPC    C3 4538   2.762   3.522  10.321 -0.1520 -0.8356 -0.1617
   34POPC    HX 4539   2.689   3.510  10.404  1.0556  2.3349  1.5095
   34POPC    HY 4540   2.843   3.451  10.351 -1.6607 -1.8415  1.7890
   34POPC   O31 4541   2.707   3.498  10.191 -0.2754  0.0858  0.2903
   34POPC   C31 4542   2.796   3.485  10.095 -0.3781 -0.6837  0.1150
   34POPC   O32 4543   2.919   3.493  10.104  0.0667 -0.5127 -0.1593
   34POPC   C32 4544   2.726   3.471   9.961  0.2831  0.2839 -0.1621
   34POPC   H2X 4545   2.686   3.571   9.934 -3.7910 -0.9680  0.5030
   34POPC   H2Y 4546   2.646   3.394   9.972 -1.1348  1.9097  1.5807
   34POPC   C23 4547   2.683   3.893   9.978 -0.1073 -0.0958  0.4152
   34POPC   H3R 4548   2.580   3.915   9.943 -0.4036 -3.5318 -1.2654
   34POPC   H3S 4549   2.710   3.785   9.976 -0.2430 -0.2279  2.7406
   34POPC   C24 4550   2.791   3.960   9.885  0.4759  0.3778  0.3060
   34POPC   H4R 4551   2.886   3.977   9.939  1.1156  2.0111 -1.2221
   34POPC   H4S 4552   2.762   4.063   9.858  3.0629  1.7019  2.1959
   34POPC   C25 4553   2.819   3.889   9.753 -0.4002 -0.5143  0.1328
   34POPC   H5R 4554   2.845   3.784   9.780  0.4315 -0.6206 -1.0017
   34POPC   H5S 4555   2.905   3.934   9.700 -0.6032 -1.9703 -1.5387
   34POPC   C26 4556   2.690   3.867   9.667  0.1126 -0.0728 -0.2007
   34POPC   H6R 4557   2.633   3.962   9.655  0.1682  0.0142  0.2303
   34POPC   H6S 4558   2.618   3.809   9.727  2.0151 -3.1665 -0.7208
   34POPC   C27 4559   2.719   3.790   9.535 -0.0243 -0.4669 -0.4241
   34POPC   H7R 4560   2.789   3.706   9.560  2.0490  0.5710 -2.4079
   34POPC   H7S 4561   2.776   3.855   9.466 -0.4154  0.9292  0.5281
   34POPC   C28 4562   2.603   3.739   9.456 -0.0691  0.1680 -0.3408
   34POPC   H8R 4563   2.564   3.658   9.522  0.6493 -0.0913 -0.2271
   34POPC   H8S 4564   2.632   3.689   9.361 -2.3442 -1.8651 -0.0515
   34POPC   C29 4565   2.490   3.836   9.422  0.2627 -0.2174 -0.1458
   34POPC   H91 4566   2.397   3.830   9.480  0.4232 -0.3860  0.0993
   34POPC  C210 4567   2.490   3.935   9.330  0.9894  0.5523 -0.0134
   34POPC  H101 4568   2.394   3.986   9.315  1.2760  0.7821 -1.1758
   34POPC  C211 4569   2.595   3.962   9.231  0.4464  0.1197 -0.0793
   34POPC  H11R 4570   2.695   3.933   9.269 -0.2824 -2.5633  0.0250
   34POPC  H11S 4571   2.604   4.073   9.223  1.1302  0.2104  1.5270
   34POPC  C212 4572   2.567   3.895   9.091  0.1686 -0.9222  0.1370
   34POPC  H12R 4573   2.595   3.788   9.093 -1.7754 -1.4944 -0.4769
   34POPC  H12S 4574   2.632   3.953   9.022 -0.4869  1.2213  1.2120
   34POPC  C213 4575   2.425   3.909   9.033 -0.2064  0.4631 -0.1068
   34POPC  H13R 4576   2.415   4.020   9.030  0.2866  0.5441  0.6839
   34POPC  H13S 4577   2.338   3.869   9.089 -0.3979 -0.2100 -0.8658
   34POPC  C214 4578   2.407   3.843   8.895  0.5362 -0.0300  0.2179
   34POPC  H14R 4579   2.302   3.860   8.861  0.4622 -0.5493  0.1805
   34POPC  H14S 4580   2.416   3.732   8.902 -1.3607 -0.1784  1.0053
   34POPC  C215 4581   2.505   3.888   8.792  0.3080 -0.1073 -0.2405
   34POPC  H15R 4582   2.607   3.852   8.815  0.1208 -1.6299 -1.5769
   34POPC  H15S 4583   2.498   3.999   8.788 -0.1172 -0.0787  0.9521
   34POPC  C216 4584   2.493   3.813   8.661  0.2354  0.3816 -0.2017
   34POPC  H16R 4585   2.393   3.831   8.615 -0.8285  0.0856  1.8900
   34POPC  H16S 4586   2.496   3.704   8.682 -0.1423  0.7767  2.2110
   34POPC  C217 4587   2.615   3.839   8.573 -0.2097 -0.4975 -0.2059
   34POPC  H17R 4588   2.697   3.833   8.648  0.2477  0.5250 -0.5976
   34POPC  H17S 4589   2.603   3.941   8.531  0.7314 -0.6195 -0.8015
   34POPC  C218 4590   2.652   3.744   8.451  0.3683 -0.3897 -0.2513
   34POPC  H18R 4591   2.750   3.771   8.406  0.8753 -2.2269 -0.3722
   34POPC  H18S 4592   2.577   3.759   8.371  0.2236  2.8773  0.3890
   34POPC  H18T 4593   2.665   3.643   8.497  0.4674  0.8162  2.6086
   34POPC   C33 4594   2.828   3.436   9.848  0.7166  0.4547  0.9148
   34POPC   H3X 4595   2.880   3.348   9.890  1.3070  0.0455 -0.6460
   34POPC   H3Y 4596   2.894   3.525   9.838 -1.3723  2.0844  0.8718
   34POPC   C34 4597   2.773   3.419   9.705  0.3585  0.9367 -0.6300
   34POPC   H4X 4598   2.861   3.413   9.638  2.7650 -2.4469  2.4413
   34POPC   H4Y 4599   2.710   3.507   9.680 -0.0670  0.8435  0.1033
   34POPC   C35 4600   2.690   3.288   9.690 -0.5061  0.1165  0.6930
   34POPC   H5X 4601   2.611   3.287   9.768 -1.2339 -0.1953 -0.0322
   34POPC   H5Y 4602   2.743   3.191   9.700 -2.4394 -0.9610  0.9564
   34POPC   C36 4603   2.621   3.271   9.561  0.2374 -0.5844  0.0889
   34POPC   H6X 4604   2.545   3.352   9.550  2.4596  1.2974 -3.1235
   34POPC   H6Y 4605   2.565   3.176   9.574 -1.9766  0.5476 -0.5841
   34POPC   C37 4606   2.710   3.280   9.433  0.4516  0.4208 -0.0063
   34POPC   H7X 4607   2.810   3.241   9.458  1.1255  0.1183 -2.7739
   34POPC   H7Y 4608   2.725   3.386   9.403 -1.5395  1.7197  3.0481
   34POPC   C38 4609   2.666   3.200   9.311  0.7240  0.2382 -0.0613
   34POPC   H8X 4610   2.647   3.097   9.351  1.2073  0.6479  1.2945
   34POPC   H8Y 4611   2.753   3.202   9.243  0.3526  1.1004 -0.5129
   34POPC   C39 4612   2.542   3.261   9.251  0.2149 -0.4374  0.1135
   34POPC   H9X 4613   2.535   3.366   9.287  1.0715 -1.2661  2.9741
   34POPC   H9Y 4614   2.445   3.217   9.284  0.2859 -0.5382  0.1908
   34POPC  C310 4615   2.544   3.273   9.095  0.0869  0.1562 -0.2918
   34POPC  H10X 4616   2.560   3.170   9.055 -0.5036  0.2288 -0.7400
   34POPC  H10Y 4617   2.632   3.335   9.070 -0.9939  2.7276  1.8267
   34POPC  C311 4618   2.419   3.323   9.024 -0.0611 -0.6378 -0.1639
   34POPC  H11X 4619   2.408   3.430   9.053  0.1264 -0.8177  0.5905
   34POPC  H11Y 4620   2.332   3.266   9.063  0.5708 -0.5292  1.4425
   34POPC  C312 4621   2.425   3.321   8.866 -0.3799 -0.1944  0.5377
   34POPC  H12X 4622   2.422   3.213   8.843 -0.9094 -0.3363  1.2493
   34POPC  H12Y 4623   2.509   3.380   8.823 -1.2190  0.1721 -0.6410
   34POPC  C313 4624   2.303   3.399   8.814  0.0288 -0.1913  0.9031
   34POPC  H13X 4625   2.313   3.500   8.861  0.5287  0.7502 -1.1231
   34POPC  H13Y 4626   2.209   3.350   8.848 -0.8276  0.7301 -0.0797
   34POPC  C314 4627   2.307   3.432   8.663 -0.6153  0.0896  0.2772
   34POPC  H14X 4628   2.291   3.332   8.617 -1.7516  0.0264  0.7809
   34POPC  H14Y 4629   2.405   3.465   8.622 -0.5379 -0.6353 -0.1476
   34POPC  C315 4630   2.198   3.532   8.617  0.4915 -0.0909  0.2084
   34POPC  H15X 4631   2.219   3.622   8.679 -0.9290  0.0619  0.4991
   34POPC  H15Y 4632   2.099   3.498   8.652  0.4553  0.1641  0.3503
   34POPC  C316 4633   2.204   3.573   8.468  0.1247 -0.1464  0.5059
   34POPC  H16X 4634   2.305   3.587   8.424 -1.2046  2.8913 -1.9556
   34POPC  H16Y 4635   2.141   3.664   8.454 -0.2138 -0.3775  0.5281
   34POPC  H16Z 4636   2.155   3.500   8.401 -3.4731  1.5960  1.0136
   35POPC     N 4637   5.304   0.386  11.428  0.4437 -0.0563  0.4291
   35POPC   C12 4638   5.390   0.438  11.317  0.0934 -0.7116  1.4092
   35POPC  H12A 4639   5.435   0.357  11.263  2.6732  1.1013  0.6301
   35POPC  H12B 4640   5.479   0.487  11.355  0.0418 -0.1536  0.8237
   35POPC   C13 4641   5.281   0.486  11.533 -0.5124 -0.1469 -0.1544
   35POPC  H13A 4642   5.200   0.551  11.502 -1.7619 -1.7877 -0.5274
   35POPC  H13B 4643   5.248   0.455  11.631 -1.8291  0.0657 -0.5016
   35POPC  H13C 4644   5.364   0.554  11.530 -1.1503  0.6604  0.1619
   35POPC   C14 4645   5.172   0.328  11.384  0.3440  0.4992  0.5014
   35POPC  H14A 4646   5.190   0.251  11.311 -1.7940  1.0547 -0.6983
   35POPC  H14B 4647   5.110   0.298  11.467  0.0560 -0.0535  0.0852
   35POPC  H14C 4648   5.118   0.404  11.329 -0.5300 -0.6930 -0.3115
   35POPC   C15 4649   5.392   0.285  11.494  0.4098  0.5830  0.3199
   35POPC  H15A 4650   5.344   0.246  11.583 -1.2782  1.3176 -0.2376
   35POPC  H15B 4651   5.483   0.336  11.523 -0.9163  2.1370  2.0784
   35POPC  H15C 4652   5.415   0.203  11.428 -0.4895  1.4994 -1.1780
   35POPC   C11 4653   5.325   0.538  11.218 -0.1435  0.2979 -0.3679
   35POPC  H11A 4654   5.240   0.483  11.173 -0.4231 -2.1692  2.8313
   35POPC  H11B 4655   5.387   0.567  11.131 -1.0276 -2.9542 -2.2592
   35POPC     P 4656   5.357   0.787  11.303 -0.3812  0.1992 -0.1008
   35POPC   O13 4657   5.436   0.783  11.427  0.3682 -0.4334 -0.4709
   35POPC   O14 4658   5.266   0.901  11.288  0.1784 -0.1135  0.6422
   35POPC   O12 4659   5.276   0.653  11.291  0.0338 -0.0410  0.2573
   35POPC   O11 4660   5.463   0.782  11.188  0.1386  0.5199  0.4152
   35POPC    C1 4661   5.476   0.885  11.090 -0.4725  0.2302 -0.1929
   35POPC    HA 4662   5.585   0.904  11.084 -0.2104 -1.0229  0.3331
   35POPC    HB 4663   5.435   0.980  11.132 -1.0208 -0.5866  1.1780
   35POPC    C2 4664   5.403   0.865  10.957  0.4218 -0.5753 -0.0797
   35POPC    HS 4665   5.305   0.824  10.989 -0.0748  0.2201 -0.5421
   35POPC   O21 4666   5.488   0.778  10.877 -0.0560  0.5809  0.5658
   35POPC   C21 4667   5.424   0.726  10.771  0.0633 -0.3780  0.4920
   35POPC   O22 4668   5.305   0.723  10.757 -0.3724  0.4561 -0.1174
   35POPC   C22 4669   5.521   0.675  10.670  0.3479 -0.0355 -0.8005
   35POPC   H2R 4670   5.610   0.657  10.734 -1.0552  1.2994  1.7101
   35POPC   H2S 4671   5.538   0.752  10.591  0.0009  0.4896 -0.3777
   35POPC    C3 4672   5.373   1.000  10.885 -0.3488 -0.1857  0.6569
   35POPC    HX 4673   5.306   1.060  10.949 -0.2521 -0.5180  1.0737
   35POPC    HY 4674   5.321   0.976  10.790  3.4004 -2.7790 -1.0365
   35POPC   O31 4675   5.493   1.077  10.856  0.2867 -0.4234  0.2930
   35POPC   C31 4676   5.527   1.076  10.729  0.1214  0.3335 -0.3514
   35POPC   O32 4677   5.500   0.993  10.645  0.4639  0.2592 -0.4831
   35POPC   C32 4678   5.622   1.199  10.711 -0.4557 -0.3463 -0.1154
   35POPC   H2X 4679   5.716   1.154  10.751 -0.4031 -0.7056 -0.6238
   35POPC   H2Y 4680   5.589   1.286  10.771 -3.0864  0.4610 -2.4957
   35POPC   C23 4681   5.488   0.539  10.624  0.3432 -0.3506  0.4737
   35POPC   H3R 4682   5.437   0.473  10.697  0.9146 -2.1862 -0.6938
   35POPC   H3S 4683   5.583   0.485  10.602  0.7156  0.4384  0.1089
   35POPC   C24 4684   5.388   0.544  10.506  0.1377  1.1657 -0.8746
   35POPC   H4R 4685   5.431   0.601  10.421 -1.2931  2.3958 -0.8086
   35POPC   H4S 4686   5.287   0.579  10.538  0.0272  1.1929 -1.2539
   35POPC   C25 4687   5.358   0.401  10.454  0.7198 -0.3805 -0.2021
   35POPC   H5R 4688   5.294   0.343  10.523  2.2911  0.8467  2.4433
   35POPC   H5S 4689   5.457   0.353  10.447  1.2058  0.7926 -3.4119
   35POPC   C26 4690   5.291   0.395  10.310 -0.4602  0.3916 -0.3072
   35POPC   H6R 4691   5.252   0.493  10.275 -1.7010 -0.3491 -1.0606
   35POPC   H6S 4692   5.206   0.325  10.318 -0.1737 -0.0260 -0.8671
   35POPC   C27 4693   5.390   0.359  10.206  0.0684  0.2125 -0.0909
   35POPC   H7R 4694   5.410   0.249  10.207 -0.7266  0.0575  0.1149
   35POPC   H7S 4695   5.495   0.390  10.224  1.5293 -1.2654 -4.7921
   35POPC   C28 4696   5.336   0.412  10.070  0.9833  0.6983  0.3709
   35POPC   H8R 4697   5.359   0.520  10.058  0.5045  0.8156  0.4696
   35POPC   H8S 4698   5.225   0.413  10.075  0.9302  1.1859 -0.6017
   35POPC   C29 4699   5.385   0.343   9.943 -0.0107 -0.4722 -0.1644
   35POPC   H91 4700   5.493   0.320   9.938  0.0725 -0.1761  0.2550
   35POPC  C210 4701   5.312   0.316   9.836 -0.4681  0.0084 -0.2015
   35POPC  H101 4702   5.370   0.270   9.754  0.7227 -0.6699  0.9792
   35POPC  C211 4703   5.168   0.338   9.822  0.2334 -0.3526  0.5073
   35POPC  H11R 4704   5.134   0.443   9.837 -0.7730 -0.1552 -2.4573
   35POPC  H11S 4705   5.116   0.270   9.893  3.1770 -3.0202  0.3315
   35POPC  C212 4706   5.122   0.301   9.680 -0.1436 -0.0403  0.3468
   35POPC  H12R 4707   5.011   0.296   9.680 -0.1365 -0.6691  1.8624
   35POPC  H12S 4708   5.157   0.200   9.650  0.6171  0.6559 -1.2284
   35POPC  C213 4709   5.167   0.406   9.577 -0.3724 -0.2054  0.0710
   35POPC  H13R 4710   5.271   0.404   9.537 -0.3955 -2.5954 -0.0058
   35POPC  H13S 4711   5.151   0.509   9.615  1.8934  1.4016 -2.9039
   35POPC  C214 4712   5.073   0.389   9.452 -0.4981 -0.4102 -0.4366
   35POPC  H14R 4713   4.967   0.415   9.475 -0.9220 -0.2952 -2.3047
   35POPC  H14S 4714   5.080   0.278   9.452  0.6340 -0.4132  2.4144
   35POPC  C215 4715   5.127   0.455   9.331  0.2686 -1.1443 -0.2333
   35POPC  H15R 4716   5.232   0.429   9.304 -0.6765 -3.0891 -2.3805
   35POPC  H15S 4717   5.111   0.564   9.338 -3.5719 -1.5909 -0.2285
   35POPC  C216 4718   5.057   0.408   9.205  0.2206  0.1813  0.6214
   35POPC  H16R 4719   4.947   0.420   9.216  0.0926 -0.7690  0.4611
   35POPC  H16S 4720   5.073   0.298   9.207 -1.0796 -0.0208  1.9303
   35POPC  C217 4721   5.107   0.453   9.068 -0.0694 -0.1121  0.3052
   35POPC  H17R 4722   5.194   0.395   9.032 -1.4620 -1.7541 -0.5789
   35POPC  H17S 4723   5.136   0.560   9.060 -0.3816  0.0165  0.8129
   35POPC  C218 4724   5.000   0.437   8.968  1.1884 -0.5421  0.2805
   35POPC  H18R 4725   4.901   0.477   8.999 -0.4399 -2.2349 -2.3621
   35POPC  H18S 4726   4.967   0.332   8.952  0.6155 -0.3127 -0.0825
   35POPC  H18T 4727   5.024   0.471   8.865  1.0008  0.5870  0.6009
   35POPC   C33 4728   5.658   1.237  10.563  0.1582 -0.1916  0.3599
   35POPC   H3X 4729   5.667   1.149  10.496  0.5527 -0.2306  0.4580
   35POPC   H3Y 4730   5.762   1.276  10.566  0.0532  0.0623  0.7223
   35POPC   C34 4731   5.556   1.334  10.493  0.0601 -0.4875  0.2636
   35POPC   H4X 4732   5.560   1.430  10.550  0.6712 -0.8787  0.8992
   35POPC   H4Y 4733   5.447   1.315  10.481 -0.6442  3.0290 -0.0992
   35POPC   C35 4734   5.589   1.379  10.346  0.4318  0.9240 -0.4418
   35POPC   H5X 4735   5.699   1.394  10.334  0.5442  0.8964  0.4987
   35POPC   H5Y 4736   5.534   1.473  10.325  0.9741  1.1282 -0.9864
   35POPC   C36 4737   5.544   1.278  10.232  0.1025 -0.8165  0.4748
   35POPC   H6X 4738   5.436   1.256  10.249  0.4581 -0.8947  3.0614
   35POPC   H6Y 4739   5.606   1.188  10.254 -0.8866 -1.7449 -0.4413
   35POPC   C37 4740   5.573   1.344  10.095 -0.3819  0.3194  0.8109
   35POPC   H7X 4741   5.682   1.335  10.075 -0.8359 -1.7008 -1.1317
   35POPC   H7Y 4742   5.549   1.453  10.087 -0.4318  0.1710 -1.6701
   35POPC   C38 4743   5.500   1.277   9.974 -0.0813  0.0890 -0.2820
   35POPC   H8X 4744   5.390   1.266   9.977 -0.1446  0.8988  1.5270
   35POPC   H8Y 4745   5.529   1.170   9.970 -0.1941 -0.0328  1.4512
   35POPC   C39 4746   5.537   1.355   9.848 -0.4722  0.5450 -0.3078
   35POPC   H9X 4747   5.640   1.339   9.811 -1.7200  0.6878 -4.3390
   35POPC   H9Y 4748   5.537   1.465   9.864  1.2252  0.6929 -1.0854
   35POPC  C310 4749   5.430   1.331   9.742  0.3709 -0.1882 -0.6394
   35POPC  H10X 4750   5.339   1.383   9.779  0.0120 -1.6712  0.6504
   35POPC  H10Y 4751   5.406   1.223   9.738  4.0022 -1.1825  0.6253
   35POPC  C311 4752   5.469   1.354   9.590  0.1672 -0.3099  0.2412
   35POPC  H11X 4753   5.556   1.291   9.561  0.4779  0.8036 -1.3333
   35POPC  H11Y 4754   5.498   1.461   9.580 -2.1028  0.2756 -0.5436
   35POPC  C312 4755   5.350   1.314   9.507  1.1345 -0.1317  0.4371
   35POPC  H12X 4756   5.261   1.374   9.535  1.5461  1.1093 -0.8006
   35POPC  H12Y 4757   5.338   1.205   9.527 -0.1362 -0.2917 -0.9519
   35POPC  C313 4758   5.385   1.329   9.354  0.6644  0.0105  0.7821
   35POPC  H13X 4759   5.468   1.261   9.326  1.9504  1.4490  0.9379
   35POPC  H13Y 4760   5.414   1.435   9.335  1.8902 -0.1057  1.8798
   35POPC  C314 4761   5.261   1.303   9.272  0.4796 -0.4428 -0.5083
   35POPC  H14X 4762   5.178   1.369   9.306 -0.1650 -0.4400 -1.9967
   35POPC  H14Y 4763   5.220   1.204   9.301  1.0318  0.1036  2.5305
   35POPC  C315 4764   5.275   1.321   9.118  0.0612 -0.7439 -0.6830
   35POPC  H15X 4765   5.344   1.237   9.095 -0.6115 -1.0611 -1.5621
   35POPC  H15Y 4766   5.326   1.416   9.093  0.1304 -0.7889 -0.7140
   35POPC  C316 4767   5.143   1.308   9.040 -0.2150 -0.0906 -0.2065
   35POPC  H16X 4768   5.092   1.406   9.053  0.1464 -0.0482  0.9764
   35POPC  H16Y 4769   5.074   1.236   9.089 -1.3399 -0.1282 -1.7426
   35POPC  H16Z 4770   5.153   1.278   8.933  0.7541  3.3400 -1.2121
   36POPC     N 4771   1.325   0.647  10.622  0.5638  0.0532  0.0312
   36POPC   C12 4772   1.319   0.534  10.516 -0.3182  0.8707 -0.1332
   36POPC  H12A 4773   1.407   0.475  10.536 -1.2939 -0.8112 -0.5897
   36POPC  H12B 4774   1.329   0.580  10.419  0.4637  1.9947  0.4630
   36POPC   C13 4775   1.322   0.579  10.758  0.4844 -0.4195 -1.0075
   36POPC  H13A 4776   1.226   0.533  10.776  0.7746  0.4972  4.8628
   36POPC  H13B 4777   1.395   0.502  10.780 -2.3305 -2.6706  1.2799
   36POPC  H13C 4778   1.323   0.652  10.838 -1.0782  0.8970 -2.1013
   36POPC   C14 4779   1.442   0.736  10.616  0.1377  0.2745  0.0427
   36POPC  H14A 4780   1.535   0.683  10.635 -0.5373 -0.2664  2.0689
   36POPC  H14B 4781   1.459   0.783  10.520 -1.2516  4.4044  1.6049
   36POPC  H14C 4782   1.436   0.817  10.687 -0.8306  2.7721 -2.6840
   36POPC   C15 4783   1.210   0.743  10.601  0.6556  0.3034 -0.5894
   36POPC  H15A 4784   1.118   0.689  10.619  0.3982  0.4918 -1.3195
   36POPC  H15B 4785   1.214   0.797  10.508  2.0734  2.4443  0.6512
   36POPC  H15C 4786   1.207   0.823  10.673 -0.1057  0.7430 -1.1045
   36POPC   C11 4787   1.204   0.433  10.514  0.6289  0.2075  0.3474
   36POPC  H11A 4788   1.189   0.380  10.418 -1.3762  1.2901 -0.0018
   36POPC  H11B 4789   1.119   0.503  10.531  1.5224  0.9256  2.1000
   36POPC     P 4790   1.271   0.202  10.630 -0.3375 -0.0849 -0.2243
   36POPC   O13 4791   1.163   0.113  10.686  0.0528 -0.0201  0.3271
   36POPC   O14 4792   1.401   0.217  10.696 -0.5093 -0.3764 -0.3950
   36POPC   O12 4793   1.207   0.345  10.622  0.0699 -0.2820  0.2963
   36POPC   O11 4794   1.294   0.168  10.474 -0.7291 -0.2334  0.3453
   36POPC    C1 4795   1.245   0.056  10.411  0.3693  0.3534  0.0645
   36POPC    HA 4796   1.167   0.082  10.336  1.0532  2.2322 -0.0343
   36POPC    HB 4797   1.194  -0.015  10.479 -0.3664  1.7625  1.0390
   36POPC    C2 4798   1.350  -0.024  10.327  0.6738 -0.0770 -0.5635
   36POPC    HS 4799   1.435   0.000  10.394 -0.3545  1.9867  0.0746
   36POPC   O21 4800   1.374   0.044  10.202  0.5931  0.1155  0.0292
   36POPC   C21 4801   1.480   0.002  10.133 -0.3233 -0.2936 -0.1216
   36POPC   O22 4802   1.579  -0.039  10.193  0.8192 -0.4020 -0.5150
   36POPC   C22 4803   1.476   0.022   9.980  0.6283 -0.0565 -0.2818
   36POPC   H2R 4804   1.423   0.118   9.960 -1.6108 -1.1289  0.1950
   36POPC   H2S 4805   1.415  -0.057   9.930  1.1021 -0.7059  0.1511
   36POPC    C3 4806   1.311  -0.178  10.319  0.3388  0.3120 -0.3712
   36POPC    HX 4807   1.305  -0.226  10.419 -1.0397  2.6671  0.7500
   36POPC    HY 4808   1.393  -0.223  10.259  0.0129 -1.9850  0.8131
   36POPC   O31 4809   1.186  -0.205  10.253 -0.7826 -0.2160 -0.2822
   36POPC   C31 4810   1.174  -0.202  10.127  0.4487 -0.3212  0.2744
   36POPC   O32 4811   1.262  -0.206  10.043  0.1002 -0.0283 -0.4397
   36POPC   C32 4812   1.025  -0.190  10.101  0.3680  0.1219 -0.0018
   36POPC   H2X 4813   0.974  -0.141  10.187 -1.5208  1.7451 -1.9588
   36POPC   H2Y 4814   0.979  -0.291  10.094  1.0910 -0.3455  1.4981
   36POPC   C23 4815   1.621   0.005   9.928  0.4240 -0.4161 -0.3542
   36POPC   H3R 4816   1.677  -0.084   9.963  3.9382  1.3303 -1.1513
   36POPC   H3S 4817   1.661   0.105   9.951 -1.8889  1.0164 -2.0736
   36POPC   C24 4818   1.620  -0.019   9.775  0.1543  0.1718  0.3138
   36POPC   H4R 4819   1.563  -0.114   9.767 -0.6958  0.6707  0.3225
   36POPC   H4S 4820   1.716  -0.058   9.734 -0.3661  0.4824 -1.2544
   36POPC   C25 4821   1.574   0.099   9.691 -0.2916 -0.5376 -0.4584
   36POPC   H5R 4822   1.641   0.186   9.708 -2.2598  0.5286  2.8501
   36POPC   H5S 4823   1.471   0.127   9.721 -0.2742 -1.8874  1.0276
   36POPC   C26 4824   1.564   0.065   9.539 -0.4172  0.5602  0.6574
   36POPC   H6R 4825   1.522  -0.037   9.527 -1.6324  1.1022  0.1024
   36POPC   H6S 4826   1.662   0.070   9.487  0.4069  0.1114  2.0932
   36POPC   C27 4827   1.470   0.164   9.466  0.0531 -0.6936 -0.2213
   36POPC   H7R 4828   1.511   0.260   9.505  1.2701 -1.2955  0.0031
   36POPC   H7S 4829   1.368   0.159   9.512  0.1397 -1.5634 -0.1118
   36POPC   C28 4830   1.472   0.167   9.311  0.2286  0.0204  0.8079
   36POPC   H8R 4831   1.570   0.169   9.259 -0.1760 -2.2975 -0.1712
   36POPC   H8S 4832   1.424   0.264   9.284  1.4541  0.1251 -1.1620
   36POPC   C29 4833   1.401   0.041   9.254  0.7018  0.1951  0.1960
   36POPC   H91 4834   1.449  -0.057   9.271 -1.7863 -1.0044  0.8871
   36POPC  C210 4835   1.285   0.049   9.186 -0.0753  0.5183  0.4641
   36POPC  H101 4836   1.243  -0.048   9.154  0.0383  0.1021  1.5071
   36POPC  C211 4837   1.202   0.173   9.156  1.0051  0.9770  0.4052
   36POPC  H11R 4838   1.246   0.261   9.207 -1.3756  1.7861  1.1936
   36POPC  H11S 4839   1.098   0.178   9.194  0.6539  0.5016 -0.4629
   36POPC  C212 4840   1.199   0.214   9.007 -1.0126  0.1856  0.3857
   36POPC  H12R 4841   1.143   0.147   8.939 -1.9671  1.3323  0.0125
   36POPC  H12S 4842   1.307   0.217   8.980 -1.1680  1.1302 -0.1923
   36POPC  C213 4843   1.131   0.357   8.999 -0.2974  0.3029  0.2126
   36POPC  H13R 4844   1.180   0.420   9.077  0.6898 -2.7304  2.2236
   36POPC  H13S 4845   1.024   0.355   9.027 -0.9614  1.4176 -2.0544
   36POPC  C214 4846   1.150   0.424   8.866  0.2277 -0.6291 -0.0802
   36POPC  H14R 4847   1.242   0.397   8.812 -1.4687 -1.1251 -2.8945
   36POPC  H14S 4848   1.158   0.534   8.881 -1.8806 -0.3944 -0.3692
   36POPC  C215 4849   1.039   0.393   8.767  0.3433 -0.3402  0.3719
   36POPC  H15R 4850   0.946   0.438   8.808  0.4528 -1.6236  2.1149
   36POPC  H15S 4851   1.023   0.283   8.762 -2.2138 -0.0480  0.5938
   36POPC  C216 4852   1.064   0.447   8.624 -1.2446  0.4173  0.3778
   36POPC  H16R 4853   1.163   0.408   8.591 -0.4664  2.9703 -0.4837
   36POPC  H16S 4854   1.067   0.557   8.632 -1.5424  0.5456 -1.0652
   36POPC  C217 4855   0.966   0.384   8.523  0.7023  0.1807  0.2720
   36POPC  H17R 4856   0.859   0.393   8.553 -0.5269 -0.7330 -3.3483
   36POPC  H17S 4857   0.976   0.274   8.534 -3.1209 -0.4355 -0.7728
   36POPC  C218 4858   0.988   0.426   8.381  0.2667 -0.5077 -0.0624
   36POPC  H18R 4859   0.910   0.374   8.322  0.6669 -1.6872  0.4214
   36POPC  H18S 4860   1.088   0.389   8.348  1.0218  0.9056  0.5620
   36POPC  H18T 4861   0.987   0.536   8.368 -0.9352 -0.6255 -1.1176
   36POPC   C33 4862   0.985  -0.124   9.967  0.4513  0.1933  0.7520
   36POPC   H3X 4863   1.051  -0.036   9.950  0.1919  0.2713  0.1487
   36POPC   H3Y 4864   0.881  -0.087   9.975  0.4460  0.8442 -1.6204
   36POPC   C34 4865   0.990  -0.218   9.842 -0.1492  0.3036  0.1160
   36POPC   H4X 4866   0.930  -0.310   9.856 -1.2952  0.9648 -0.3145
   36POPC   H4Y 4867   1.093  -0.256   9.824  0.1892 -0.7862  3.6039
   36POPC   C35 4868   0.943  -0.149   9.712  0.2767  0.4968  0.4806
   36POPC   H5X 4869   1.025  -0.092   9.665  0.0837  3.5695  3.4590
   36POPC   H5Y 4870   0.860  -0.078   9.732  0.6211  1.7039 -2.0641
   36POPC   C36 4871   0.890  -0.241   9.598  0.4307 -0.3889  0.3550
   36POPC   H6X 4872   0.784  -0.271   9.615  0.3945 -0.7840 -0.5210
   36POPC   H6Y 4873   0.943  -0.338   9.608  0.4951 -0.3689  0.2085
   36POPC   C37 4874   0.922  -0.175   9.459 -0.9059  0.9619 -0.0430
   36POPC   H7X 4875   1.025  -0.136   9.441 -0.2352 -1.7155 -2.9009
   36POPC   H7Y 4876   0.863  -0.081   9.463 -0.3808  1.2664  2.0464
   36POPC   C38 4877   0.882  -0.262   9.340  0.6497 -0.2178  0.2668
   36POPC   H8X 4878   0.783  -0.309   9.356  0.9788 -0.2291  2.6366
   36POPC   H8Y 4879   0.951  -0.349   9.341 -0.2511 -0.9483  0.0699
   36POPC   C39 4880   0.893  -0.201   9.210  1.0102  0.4241 -0.0064
   36POPC   H9X 4881   0.895  -0.283   9.135 -0.5075 -1.7455  2.1451
   36POPC   H9Y 4882   0.985  -0.143   9.187  1.9547 -1.5883 -1.5533
   36POPC  C310 4883   0.765  -0.115   9.172 -0.3999 -0.0014 -0.0331
   36POPC  H10X 4884   0.770  -0.026   9.238  0.1855 -0.0743  0.0281
   36POPC  H10Y 4885   0.683  -0.178   9.213 -0.6426  0.8113  0.7653
   36POPC  C311 4886   0.747  -0.083   9.021  0.4098  0.0470 -0.0106
   36POPC  H11X 4887   0.642  -0.046   9.011 -0.0036  0.0866  3.1570
   36POPC  H11Y 4888   0.775  -0.164   8.951 -1.3766 -0.8441  0.2363
   36POPC  C312 4889   0.825   0.049   8.970 -0.0738  0.2419 -0.4432
   36POPC  H12X 4890   0.926   0.007   8.953 -0.3068 -1.1567  1.2679
   36POPC  H12Y 4891   0.829   0.136   9.039  0.6625  0.0212 -0.2031
   36POPC  C313 4892   0.773   0.096   8.829  1.2506  0.3836  0.5155
   36POPC  H13X 4893   0.817   0.194   8.802  0.4325  0.5276 -0.3638
   36POPC  H13Y 4894   0.663   0.106   8.836  1.1739 -0.7040  1.1277
   36POPC  C314 4895   0.797  -0.017   8.717 -0.5447  0.1042  0.5658
   36POPC  H14X 4896   0.732  -0.101   8.750 -2.4116  2.1836  2.4763
   36POPC  H14Y 4897   0.906  -0.039   8.718 -0.8729 -1.6085  1.3564
   36POPC  C315 4898   0.747   0.030   8.580  0.0256 -0.1212 -0.0491
   36POPC  H15X 4899   0.773   0.136   8.563 -1.8576  0.7495  1.9258
   36POPC  H15Y 4900   0.637   0.034   8.595  0.1737  0.1432  1.0837
   36POPC  C316 4901   0.788  -0.059   8.463 -0.4087 -0.0367 -0.4899
   36POPC  H16X 4902   0.748  -0.004   8.375  1.2210  1.9598 -0.0825
   36POPC  H16Y 4903   0.739  -0.158   8.463  1.1980 -0.8738 -1.7177
   36POPC  H16Z 4904   0.898  -0.072   8.469 -0.4723 -0.3621  0.1046
   37POPC     N 4905   0.065   2.680   6.213  0.8462 -0.4024 -0.1969
   37POPC   C12 4906   0.081   2.691   6.362  0.0317 -0.5991 -0.8693
   37POPC  H12A 4907  -0.008   2.652   6.409  1.0259 -2.1040 -0.1688
   37POPC  H12B 4908   0.077   2.795   6.392 -2.7931 -1.2493  1.5285
   37POPC   C13 4909   0.026   2.534   6.184 -0.1045  0.4389 -0.0271
   37POPC  H13A 4910  -0.058   2.509   6.248 -0.9375  1.3331 -0.7295
   37POPC  H13B 4911  -0.004   2.513   6.082 -0.6836  1.0368  0.0125
   37POPC  H13C 4912   0.101   2.460   6.206  2.3792  2.3997 -1.3642
   37POPC   C14 4913  -0.053   2.767   6.174 -0.1340  0.3995 -0.1516
   37POPC  H14A 4914  -0.031   2.869   6.203  3.0597  0.9746 -3.8106
   37POPC  H14B 4915  -0.068   2.763   6.067 -2.1524  1.3393  0.0528
   37POPC  H14C 4916  -0.141   2.730   6.224 -1.6364  1.9553 -1.5027
   37POPC   C15 4917   0.180   2.734   6.136  0.6300 -0.2152 -0.3584
   37POPC  H15A 4918   0.166   2.710   6.031  1.3583 -2.1908 -0.0474
   37POPC  H15B 4919   0.276   2.696   6.170  1.1333  0.9826 -0.3797
   37POPC  H15C 4920   0.191   2.840   6.155  1.8054 -0.9012  3.5275
   37POPC   C11 4921   0.211   2.620   6.426  0.3150 -0.3134  0.0380
   37POPC  H11A 4922   0.219   2.516   6.388 -1.7338 -1.5234  2.6408
   37POPC  H11B 4923   0.200   2.600   6.534 -1.4729 -0.0900 -0.0709
   37POPC     P 4924   0.354   2.829   6.462 -0.3874 -0.2921  0.0770
   37POPC   O13 4925   0.243   2.923   6.440 -0.3826  0.4556 -0.5977
   37POPC   O14 4926   0.487   2.890   6.422  0.2125  0.4289 -0.6086
   37POPC   O12 4927   0.331   2.693   6.390  0.4794 -0.7594 -0.4316
   37POPC   O11 4928   0.351   2.791   6.619 -0.0135 -0.2618  0.3729
   37POPC    C1 4929   0.427   2.688   6.672 -0.4756  0.3042 -0.4966
   37POPC    HA 4930   0.464   2.621   6.591  0.2964  0.7840 -0.5533
   37POPC    HB 4931   0.359   2.625   6.733  0.0437  1.5289  1.4133
   37POPC    C2 4932   0.557   2.735   6.756  0.0933 -0.1215 -0.3036
   37POPC    HS 4933   0.599   2.656   6.822 -0.9643 -0.8097 -0.4168
   37POPC   O21 4934   0.521   2.856   6.834 -0.4959  0.4771  0.1543
   37POPC   C21 4935   0.464   2.833   6.949 -0.1975  0.2286 -0.1597
   37POPC   O22 4936   0.463   2.722   7.008  0.3072 -0.5019 -0.1775
   37POPC   C22 4937   0.450   2.968   7.030  0.6866  0.5567 -0.2278
   37POPC   H2R 4938   0.394   3.039   6.965 -3.6777  0.6234  3.1036
   37POPC   H2S 4939   0.555   2.995   7.050  1.5586 -2.4680 -0.2255
   37POPC    C3 4940   0.667   2.781   6.670  0.1450  0.6303 -0.6237
   37POPC    HX 4941   0.640   2.862   6.599 -2.5272 -0.8057 -1.3512
   37POPC    HY 4942   0.691   2.695   6.604  0.2950 -1.3354  1.8174
   37POPC   O31 4943   0.792   2.792   6.744 -0.6303 -0.6732  0.0664
   37POPC   C31 4944   0.821   2.917   6.774 -0.0777 -1.5119  0.0166
   37POPC   O32 4945   0.757   3.019   6.737 -0.2462  0.2321  0.3834
   37POPC   C32 4946   0.952   2.933   6.839 -0.1286  0.2060 -0.8279
   37POPC   H2X 4947   1.006   3.006   6.775 -0.3634  0.7660 -0.3975
   37POPC   H2Y 4948   1.016   2.842   6.842  1.6014  1.3662  1.5577
   37POPC   C23 4949   0.379   2.959   7.165  0.3487  0.4039 -0.3163
   37POPC   H3R 4950   0.449   2.904   7.231 -0.1915  0.4593  0.3100
   37POPC   H3S 4951   0.288   2.897   7.156  1.4815 -1.5123  0.9096
   37POPC   C24 4952   0.369   3.101   7.241  0.1638  0.1233  0.5781
   37POPC   H4R 4953   0.294   3.157   7.180 -1.5395 -1.6611  0.9378
   37POPC   H4S 4954   0.463   3.160   7.242  0.0823  0.2960 -0.4278
   37POPC   C25 4955   0.312   3.103   7.380  0.4566 -0.0018  0.0559
   37POPC   H5R 4956   0.211   3.057   7.387  1.0272 -1.1327  1.2983
   37POPC   H5S 4957   0.303   3.203   7.426 -0.6298  0.6176 -1.4212
   37POPC   C26 4958   0.412   3.042   7.472  0.3190 -0.5729 -0.6225
   37POPC   H6R 4959   0.490   3.116   7.500  1.4449 -0.8965 -2.7039
   37POPC   H6S 4960   0.461   2.952   7.430  2.5256  0.4457 -0.3492
   37POPC   C27 4961   0.334   3.003   7.599  0.1515  0.3921 -0.4457
   37POPC   H7R 4962   0.258   2.924   7.583  0.7004 -0.6686  1.7699
   37POPC   H7S 4963   0.276   3.090   7.637 -1.2519 -0.1573 -1.2572
   37POPC   C28 4964   0.428   2.948   7.716  0.1672 -0.2900  0.7834
   37POPC   H8R 4965   0.492   3.033   7.749 -0.8647  0.7273  0.2500
   37POPC   H8S 4966   0.489   2.871   7.664  0.7910  0.3188  0.5965
   37POPC   C29 4967   0.359   2.888   7.838 -0.4074 -1.5371  0.0185
   37POPC   H91 4968   0.269   2.828   7.819 -1.7347  0.6874 -1.0585
   37POPC  C210 4969   0.385   2.936   7.962 -0.1118  0.5628 -0.6461
   37POPC  H101 4970   0.337   2.874   8.039 -0.1991  2.0379  0.5200
   37POPC  C211 4971   0.472   3.048   8.008 -0.2969  0.0441 -0.2505
   37POPC  H11R 4972   0.553   3.061   7.933 -1.0302 -0.0546 -1.0913
   37POPC  H11S 4973   0.534   3.018   8.095  1.0048 -3.5755 -2.1835
   37POPC  C212 4974   0.408   3.178   8.031  0.4120  0.3815 -0.1829
   37POPC  H12R 4975   0.350   3.204   7.940 -0.6637 -0.1516  0.3215
   37POPC  H12S 4976   0.482   3.257   8.054  0.7839  0.2090 -0.7911
   37POPC  C213 4977   0.304   3.175   8.142 -0.0050  0.0417 -1.3221
   37POPC  H13R 4978   0.242   3.083   8.133  0.3039 -0.1333 -1.6904
   37POPC  H13S 4979   0.241   3.267   8.136  3.3102  2.4735 -1.5009
   37POPC  C214 4980   0.373   3.175   8.272 -0.4691  0.3157 -0.2957
   37POPC  H14R 4981   0.436   3.266   8.286 -0.8003  0.7899 -1.7467
   37POPC  H14S 4982   0.432   3.082   8.267  0.1975  0.6904  0.3564
   37POPC  C215 4983   0.269   3.182   8.383  0.8587 -0.4709 -0.1402
   37POPC  H15R 4984   0.189   3.110   8.357 -0.2285  0.4885  0.4318
   37POPC  H15S 4985   0.210   3.277   8.387  0.2486 -0.8151 -0.7208
   37POPC  C216 4986   0.337   3.159   8.524  0.1372 -0.2324 -0.0843
   37POPC  H16R 4987   0.419   3.083   8.525  1.0227  0.7067  0.2440
   37POPC  H16S 4988   0.264   3.107   8.590 -0.0759 -1.1427 -1.0090
   37POPC  C217 4989   0.387   3.279   8.611 -0.2627 -0.5338 -0.4116
   37POPC  H17R 4990   0.459   3.339   8.551 -0.8165  2.2708  1.5182
   37POPC  H17S 4991   0.446   3.239   8.696  1.3515 -0.1586 -1.3238
   37POPC  C218 4992   0.274   3.365   8.647 -0.5170  0.0151 -0.1730
   37POPC  H18R 4993   0.320   3.460   8.678 -1.2204  0.2232  0.2524
   37POPC  H18S 4994   0.225   3.320   8.736  1.2149 -0.7388  0.4484
   37POPC  H18T 4995   0.198   3.387   8.568 -1.0804  0.0947  0.3832
   37POPC   C33 4996   0.945   2.999   6.973 -0.4850 -0.4003  0.3428
   37POPC   H3X 4997   1.049   2.994   7.012  0.0385  1.4299 -0.7333
   37POPC   H3Y 4998   0.877   2.939   7.038 -0.7493 -1.1233 -0.5682
   37POPC   C34 4999   0.900   3.145   6.971 -0.0608  0.0172 -0.3343
   37POPC   H4X 5000   0.795   3.153   6.934 -1.4601 -1.5097  2.9205
   37POPC   H4Y 5001   0.958   3.200   6.894  0.3873  2.0566  1.3888
   37POPC   C35 5002   0.914   3.203   7.111 -0.1373  0.0223 -0.0357
   37POPC   H5X 5003   1.016   3.195   7.154  1.0607  1.4986 -2.3650
   37POPC   H5Y 5004   0.856   3.139   7.181  0.0525 -1.1292 -0.8926
   37POPC   C36 5005   0.868   3.345   7.113 -0.0733  0.2993  0.2148
   37POPC   H6X 5006   0.767   3.354   7.068 -0.1368 -0.1995  0.2561
   37POPC   H6Y 5007   0.936   3.408   7.051  1.2155  0.2723  1.5318
   37POPC   C37 5008   0.863   3.401   7.254 -0.0590 -0.0913 -0.5280
   37POPC   H7X 5009   0.893   3.508   7.258 -0.2410 -0.0669  0.7069
   37POPC   H7Y 5010   0.939   3.343   7.311 -1.3640 -0.5855  0.7591
   37POPC   C38 5011   0.730   3.396   7.322  0.0482  0.1606  0.7550
   37POPC   H8X 5012   0.702   3.294   7.290  0.4469  0.4785 -0.6579
   37POPC   H8Y 5013   0.660   3.472   7.281 -0.0704  0.7452  1.9690
   37POPC   C39 5014   0.728   3.381   7.476  0.2823  0.1527  0.1398
   37POPC   H9X 5015   0.789   3.461   7.524 -0.5112  0.6837  0.2773
   37POPC   H9Y 5016   0.775   3.282   7.494 -0.7956 -0.5745 -0.9017
   37POPC  C310 5017   0.588   3.379   7.521 -0.1913 -0.1263 -0.0715
   37POPC  H10X 5018   0.532   3.307   7.457 -0.3840 -0.0552  0.0172
   37POPC  H10Y 5019   0.549   3.481   7.503  0.1076 -0.0103 -0.0675
   37POPC  C311 5020   0.576   3.339   7.669 -0.0163 -0.4248 -0.3409
   37POPC  H11X 5021   0.607   3.237   7.697  0.7212  0.3818  2.0453
   37POPC  H11Y 5022   0.470   3.350   7.700 -0.2719  1.2250 -1.6291
   37POPC  C312 5023   0.642   3.453   7.754  0.4585  0.1317 -0.4840
   37POPC  H12X 5024   0.613   3.555   7.720  2.8763  0.4153 -1.9162
   37POPC  H12Y 5025   0.750   3.445   7.732  0.3410  0.9425 -1.4653
   37POPC  C313 5026   0.614   3.435   7.903 -0.1274  0.2323  0.0856
   37POPC  H13X 5027   0.695   3.367   7.938  0.3611 -0.5377 -2.3536
   37POPC  H13Y 5028   0.513   3.390   7.905  0.1141 -0.5097 -2.0475
   37POPC  C314 5029   0.628   3.562   7.970 -0.1104 -0.1134  0.6427
   37POPC  H14X 5030   0.539   3.628   7.960 -1.2532 -1.8716 -1.8814
   37POPC  H14Y 5031   0.721   3.618   7.942 -0.1503 -0.4274 -0.1524
   37POPC  C315 5032   0.650   3.539   8.130  0.0006  0.0504  0.3074
   37POPC  H15X 5033   0.750   3.495   8.151 -0.1078 -0.7534 -0.7968
   37POPC  H15Y 5034   0.577   3.464   8.165  1.4880 -1.2080  0.8402
   37POPC  C316 5035   0.626   3.667   8.220 -0.7040 -0.1378 -0.4159
   37POPC  H16X 5036   0.517   3.668   8.238 -1.0854  1.0421 -2.4846
   37POPC  H16Y 5037   0.653   3.758   8.163 -1.0164 -0.5586 -1.2388
   37POPC  H16Z 5038   0.691   3.665   8.311  0.5444 -0.9241 -1.2849
   38POPC     N 5039   4.033   6.467   5.783  0.2444 -0.0269 -0.7056
   38POPC   C12 5040   3.959   6.521   5.910  0.0069  0.1510  0.4103
   38POPC  H12A 5041   3.865   6.560   5.873  0.8877  1.0606 -0.9748
   38POPC  H12B 5042   4.015   6.611   5.932  3.2611 -1.4127 -0.8351
   38POPC   C13 5043   3.978   6.336   5.732 -0.2169 -0.2598 -0.0982
   38POPC  H13A 5044   3.994   6.330   5.625 -0.1653  0.1537 -0.1149
   38POPC  H13B 5045   4.023   6.251   5.781 -1.5260 -1.7278 -1.3199
   38POPC  H13C 5046   3.871   6.330   5.748 -0.3206 -1.5449 -1.0537
   38POPC   C14 5047   4.021   6.572   5.680 -0.1322  0.7199  0.8889
   38POPC  H14A 5048   4.057   6.669   5.712 -0.9103  1.4527 -0.3918
   38POPC  H14B 5049   4.065   6.546   5.584 -1.5087  4.0993 -0.7987
   38POPC  H14C 5050   3.918   6.581   5.650  0.3610 -2.4709 -2.6032
   38POPC   C15 5051   4.180   6.456   5.818  0.0431  0.5662 -0.4524
   38POPC  H15A 5052   4.184   6.397   5.908  1.1347  0.9709 -0.2179
   38POPC  H15B 5053   4.223   6.548   5.856 -0.8258  0.9376 -0.3409
   38POPC  H15C 5054   4.241   6.408   5.743  1.6915 -0.1368  1.2600
   38POPC   C11 5055   3.948   6.434   6.044  0.3547 -1.5830 -0.7176
   38POPC  H11A 5056   3.878   6.360   5.999 -3.4550  1.9998 -1.2655
   38POPC  H11B 5057   3.896   6.503   6.114  1.0727 -1.5229 -0.2358
   38POPC     P 5058   4.090   6.271   6.197  0.2466 -0.0017  0.3925
   38POPC   O13 5059   4.228   6.274   6.245  0.4936  0.8574 -0.6114
   38POPC   O14 5060   4.045   6.143   6.128  0.4382  0.2376  0.3385
   38POPC   O12 5061   4.075   6.396   6.101  0.7703 -0.2915 -0.0931
   38POPC   O11 5062   3.983   6.311   6.306 -0.4044  0.3070  0.3143
   38POPC    C1 5063   4.014   6.418   6.401 -0.3463 -0.0775 -0.3575
   38POPC    HA 5064   3.914   6.463   6.420 -1.9651 -2.3536 -2.7385
   38POPC    HB 5065   4.079   6.493   6.352 -0.3269 -0.7642 -1.4379
   38POPC    C2 5066   4.080   6.368   6.531 -0.6604  0.1889  0.1053
   38POPC    HS 5067   4.182   6.335   6.502 -0.4645  0.6385  0.2744
   38POPC   O21 5068   4.003   6.258   6.593 -0.6697  0.2352  0.5711
   38POPC   C21 5069   4.079   6.166   6.649  0.1754  0.3599  0.4792
   38POPC   O22 5070   4.199   6.155   6.644 -0.7107  0.0777 -0.3614
   38POPC   C22 5071   3.986   6.066   6.719 -0.5689 -0.3091  0.0249
   38POPC   H2R 5072   4.024   5.967   6.685  1.8081  1.3233 -2.5230
   38POPC   H2S 5073   3.880   6.081   6.689 -0.9078 -2.2736  0.1244
   38POPC    C3 5074   4.091   6.489   6.628  0.2844  0.3165 -0.3178
   38POPC    HX 5075   3.988   6.529   6.644 -0.2708 -1.2929  0.2665
   38POPC    HY 5076   4.155   6.565   6.579 -0.9649  1.0524 -0.8881
   38POPC   O31 5077   4.141   6.444   6.752 -0.2286 -0.3540 -0.6445
   38POPC   C31 5078   4.274   6.448   6.777 -0.3112 -0.5261  0.5204
   38POPC   O32 5079   4.359   6.473   6.689  0.8723  0.2752 -0.5150
   38POPC   C32 5080   4.295   6.429   6.920 -0.1281  0.6716 -1.0598
   38POPC   H2X 5081   4.203   6.420   6.981 -0.1188 -1.1253 -1.2566
   38POPC   H2Y 5082   4.353   6.515   6.959 -0.6332  0.7541 -0.4850
   38POPC   C23 5083   3.974   6.085   6.871  0.2084 -0.3762 -0.2766
   38POPC   H3R 5084   4.074   6.068   6.917 -0.7260 -3.1846  0.9009
   38POPC   H3S 5085   3.902   6.016   6.920 -0.7851  0.9559  0.1959
   38POPC   C24 5086   3.923   6.228   6.914  0.3262 -0.4164 -0.5765
   38POPC   H4R 5087   3.922   6.294   6.825  0.2440  0.5446  0.1166
   38POPC   H4S 5088   4.004   6.276   6.973 -0.0959 -1.4324  0.8694
   38POPC   C25 5089   3.795   6.235   6.998 -0.3737  0.4719 -0.5261
   38POPC   H5R 5090   3.701   6.207   6.946 -0.6031  0.3826 -0.0744
   38POPC   H5S 5091   3.780   6.344   7.016  1.6661  0.5845  0.8301
   38POPC   C26 5092   3.798   6.168   7.138  0.1529  0.1178  0.1752
   38POPC   H6R 5093   3.871   6.221   7.203 -0.1166 -0.2930  0.8233
   38POPC   H6S 5094   3.836   6.064   7.129  0.5881  0.2934 -0.0488
   38POPC   C27 5095   3.659   6.151   7.213  0.0573  0.0824  0.0895
   38POPC   H7R 5096   3.589   6.109   7.138  0.7097 -0.0046 -0.4849
   38POPC   H7S 5097   3.618   6.252   7.233  1.5350  0.5440  0.9049
   38POPC   C28 5098   3.662   6.065   7.338 -0.3683  0.4235  0.0836
   38POPC   H8R 5099   3.717   6.123   7.414 -0.4752  1.8854 -0.9145
   38POPC   H8S 5100   3.713   5.968   7.319 -2.4845 -0.4670 -1.4705
   38POPC   C29 5101   3.521   6.034   7.376 -0.4358 -0.1529  0.1643
   38POPC   H91 5102   3.476   5.952   7.319 -1.9654  0.6854  0.1105
   38POPC  C210 5103   3.460   6.089   7.483 -0.0779 -0.4081 -0.5459
   38POPC  H101 5104   3.366   6.042   7.515 -0.1762 -0.1355 -0.4333
   38POPC  C211 5105   3.506   6.194   7.582 -0.4484  0.4494 -0.6343
   38POPC  H11R 5106   3.419   6.256   7.612 -0.3252 -0.2667  1.3385
   38POPC  H11S 5107   3.585   6.260   7.539  0.0096 -0.5549 -1.3764
   38POPC  C212 5108   3.560   6.128   7.718 -0.3801 -0.5857  0.5074
   38POPC  H12R 5109   3.662   6.093   7.690  0.0774  1.8677 -1.2004
   38POPC  H12S 5110   3.489   6.044   7.729 -0.2184 -0.9438 -0.9753
   38POPC  C213 5111   3.551   6.208   7.844 -0.0473  0.1411  0.2763
   38POPC  H13R 5112   3.449   6.238   7.874 -1.0483 -2.5865 -0.1534
   38POPC  H13S 5113   3.615   6.297   7.827  1.9147 -1.2293  0.1205
   38POPC  C214 5114   3.601   6.135   7.974 -0.1335  0.0445  0.4287
   38POPC  H14R 5115   3.710   6.134   7.956 -0.2950 -0.0890 -0.6507
   38POPC  H14S 5116   3.563   6.030   7.976  3.3596 -1.3248  1.4116
   38POPC  C215 5117   3.559   6.194   8.109  0.6541  0.0233 -0.0941
   38POPC  H15R 5118   3.594   6.139   8.198  1.5063 -0.3011 -0.6157
   38POPC  H15S 5119   3.449   6.184   8.123  0.7346  0.8165  1.2535
   38POPC  C216 5120   3.597   6.338   8.116 -0.4498 -0.6765 -0.7343
   38POPC  H16R 5121   3.504   6.393   8.091  0.3199  0.6241 -0.8572
   38POPC  H16S 5122   3.671   6.354   8.035 -0.1588  1.0671 -0.1659
   38POPC  C217 5123   3.651   6.392   8.249 -0.2368  0.1461  0.7686
   38POPC  H17R 5124   3.690   6.484   8.200  5.0191 -0.8146  2.4754
   38POPC  H17S 5125   3.735   6.326   8.279 -1.0266 -1.4519 -0.3820
   38POPC  C218 5126   3.553   6.426   8.356  0.0396 -0.6138  0.7317
   38POPC  H18R 5127   3.499   6.509   8.306  1.1201 -1.4014 -1.9178
   38POPC  H18S 5128   3.610   6.466   8.443 -0.6061  2.6372 -0.2149
   38POPC  H18T 5129   3.491   6.341   8.392  0.8896 -0.2389  3.3382
   38POPC   C33 5130   4.372   6.297   6.938  0.3064 -0.7428  0.1314
   38POPC   H3X 5131   4.471   6.300   6.887 -1.1060 -0.3354 -2.7781
   38POPC   H3Y 5132   4.309   6.214   6.900 -2.4466  1.1328  0.2845
   38POPC   C34 5133   4.409   6.284   7.091  1.1779 -0.2113  0.6283
   38POPC   H4X 5134   4.499   6.346   7.114  2.4447 -1.2599 -1.1728
   38POPC   H4Y 5135   4.444   6.181   7.116  2.4718 -0.1586 -0.8072
   38POPC   C35 5136   4.303   6.315   7.190  0.3850  0.3067 -0.2502
   38POPC   H5X 5137   4.219   6.243   7.176  0.8466 -0.1859 -0.5508
   38POPC   H5Y 5138   4.274   6.420   7.172  0.8002  0.9076  2.2336
   38POPC   C36 5139   4.353   6.305   7.337  0.7266 -0.0026  0.4212
   38POPC   H6X 5140   4.425   6.387   7.355  1.6866  0.2911 -3.8232
   38POPC   H6Y 5141   4.399   6.205   7.352  0.7346  0.0029  0.4315
   38POPC   C37 5142   4.248   6.319   7.449 -0.4554  0.1874  0.4074
   38POPC   H7X 5143   4.168   6.243   7.435 -0.5189  0.2379  0.4944
   38POPC   H7Y 5144   4.201   6.419   7.439  2.8895  1.8560 -0.1038
   38POPC   C38 5145   4.306   6.294   7.591  0.6065 -0.2655 -0.2584
   38POPC   H8X 5146   4.365   6.384   7.619  0.1887  0.4477 -1.5852
   38POPC   H8Y 5147   4.387   6.217   7.588 -0.6374 -1.6705  0.6259
   38POPC   C39 5148   4.188   6.249   7.684 -0.1566  0.2029 -0.0938
   38POPC   H9X 5149   4.148   6.155   7.643  0.1323 -0.1512  0.4213
   38POPC   H9Y 5150   4.112   6.330   7.674 -0.2630 -0.1515 -2.7215
   38POPC  C310 5151   4.231   6.226   7.830 -0.6749 -0.2170 -0.4111
   38POPC  H10X 5152   4.138   6.235   7.891 -1.2136  1.3542 -1.4248
   38POPC  H10Y 5153   4.298   6.306   7.868 -2.6870  0.9151  0.9590
   38POPC  C311 5154   4.294   6.086   7.846 -0.4347 -0.4135  0.5110
   38POPC  H11X 5155   4.391   6.080   7.793 -1.0804 -1.9778 -0.5736
   38POPC  H11Y 5156   4.229   6.003   7.810 -1.8505  0.3070  1.2919
   38POPC  C312 5157   4.335   6.037   7.988 -0.2871  0.3577 -0.2350
   38POPC  H12X 5158   4.388   6.128   8.023 -2.4953  2.6020 -2.2783
   38POPC  H12Y 5159   4.403   5.949   7.991 -1.2947 -0.4044  2.0525
   38POPC  C313 5160   4.218   6.008   8.082 -0.3660 -0.3235 -0.0412
   38POPC  H13X 5161   4.135   6.074   8.048  0.1019 -0.0221 -0.6265
   38POPC  H13Y 5162   4.253   6.037   8.183 -0.5389  2.8075 -0.7740
   38POPC  C314 5163   4.159   5.867   8.052  0.0269 -0.2559  0.1629
   38POPC  H14X 5164   4.232   5.796   8.010  0.5930 -0.3965  1.3470
   38POPC  H14Y 5165   4.071   5.879   7.985  0.5439 -2.4281 -0.9894
   38POPC  C315 5166   4.115   5.794   8.180 -0.1987 -0.6806  0.1284
   38POPC  H15X 5167   4.199   5.800   8.252  0.6774 -1.4841 -0.7981
   38POPC  H15Y 5168   4.090   5.686   8.177  0.9553 -1.0077  1.5761
   38POPC  C316 5169   3.987   5.862   8.237  0.0439  0.3801 -0.8753
   38POPC  H16X 5170   4.015   5.967   8.260 -0.5614 -0.1724  2.9919
   38POPC  H16Y 5171   3.951   5.801   8.323 -0.3444  3.9539  1.7169
   38POPC  H16Z 5172   3.915   5.876   8.153  2.8273  2.0669 -3.1825
   39POPC     N 5173   1.674   2.355   6.123 -0.0368  0.4743 -0.0227
   39POPC   C12 5174   1.782   2.292   6.214  0.5622 -0.0368 -0.3724
   39POPC  H12A 5175   1.807   2.194   6.175 -1.4620 -0.6611 -0.2623
   39POPC  H12B 5176   1.731   2.285   6.310  1.0572  2.6748  0.1575
   39POPC   C13 5177   1.560   2.258   6.106  0.5847 -0.7420 -0.1089
   39POPC  H13A 5178   1.586   2.165   6.056 -2.6637 -1.5693 -0.5446
   39POPC  H13B 5179   1.516   2.236   6.202 -3.5575 -0.1969 -1.6690
   39POPC  H13C 5180   1.479   2.301   6.049  0.3350  0.0694  0.8301
   39POPC   C14 5181   1.629   2.485   6.175  0.3917 -0.5557 -0.1166
   39POPC  H14A 5182   1.613   2.469   6.280  0.7655 -1.3906 -0.1799
   39POPC  H14B 5183   1.706   2.561   6.169 -3.0497  3.1735 -2.3003
   39POPC  H14C 5184   1.535   2.520   6.134 -0.2331 -1.0732  0.8349
   39POPC   C15 5185   1.730   2.368   5.977  0.3745 -0.2086 -0.0122
   39POPC  H15A 5186   1.660   2.430   5.923  1.5870 -0.6950 -2.2473
   39POPC  H15B 5187   1.747   2.271   5.932  0.2098 -1.6171  2.7427
   39POPC  H15C 5188   1.825   2.418   5.963  0.4010 -0.1247  0.4418
   39POPC   C11 5189   1.915   2.370   6.229  0.4984 -0.1116  0.1438
   39POPC  H11A 5190   1.968   2.349   6.134 -1.8095 -1.1401 -0.9923
   39POPC  H11B 5191   1.969   2.318   6.311 -1.9187 -0.4945  1.6244
   39POPC     P 5192   2.015   2.611   6.265 -0.0759  0.2346  0.3290
   39POPC   O13 5193   1.956   2.745   6.252  0.7061  0.1359  0.3278
   39POPC   O14 5194   2.121   2.571   6.166  0.0021  0.2007 -0.3250
   39POPC   O12 5195   1.903   2.506   6.256 -0.0087  0.0735 -0.6298
   39POPC   O11 5196   2.079   2.598   6.410 -0.0928  0.5642 -0.1931
   39POPC    C1 5197   1.991   2.561   6.515  0.4738  0.7489  0.3526
   39POPC    HA 5198   2.012   2.463   6.563  2.2514  1.2151  0.5816
   39POPC    HB 5199   1.884   2.575   6.487  0.3963 -2.5869 -1.5048
   39POPC    C2 5200   2.011   2.658   6.637 -0.1517 -0.1355  0.0805
   39POPC    HS 5201   2.048   2.756   6.598 -0.8885 -0.1814 -0.7744
   39POPC   O21 5202   2.117   2.596   6.721 -0.4608 -0.1846  0.3046
   39POPC   C21 5203   2.201   2.677   6.774 -0.7838 -0.1029 -0.1890
   39POPC   O22 5204   2.198   2.801   6.766  0.8333 -0.3316 -0.1770
   39POPC   C22 5205   2.307   2.601   6.854  0.2147 -0.0482 -0.6493
   39POPC   H2R 5206   2.406   2.630   6.813  0.8998 -0.8318  0.3919
   39POPC   H2S 5207   2.279   2.494   6.840  1.9326 -0.6470  0.2470
   39POPC    C3 5208   1.876   2.674   6.719  0.3462 -0.2278  0.8125
   39POPC    HX 5209   1.846   2.580   6.770  0.3301  1.3337  3.8908
   39POPC    HY 5210   1.806   2.678   6.632  1.5296 -2.5023 -0.3590
   39POPC   O31 5211   1.882   2.787   6.806  0.9230 -0.1556  0.0685
   39POPC   C31 5212   1.879   2.914   6.762 -0.4595  0.2098 -0.0300
   39POPC   O32 5213   1.865   2.951   6.644 -0.1349  0.0269 -0.6913
   39POPC   C32 5214   1.912   3.005   6.881 -0.3591 -0.7237 -0.2408
   39POPC   H2X 5215   2.015   3.046   6.873 -0.7354  0.3600  0.2250
   39POPC   H2Y 5216   1.854   3.094   6.847  0.9981 -0.3331 -1.6291
   39POPC   C23 5217   2.298   2.623   7.009 -0.1186  0.1935 -0.4821
   39POPC   H3R 5218   2.373   2.557   7.058 -0.2390 -0.6794 -1.4294
   39POPC   H3S 5219   2.192   2.605   7.036  0.1136  1.3987  1.4544
   39POPC   C24 5220   2.322   2.770   7.042  0.0874  0.1642 -0.3402
   39POPC   H4R 5221   2.229   2.826   7.022  0.8379  1.2475 -0.8768
   39POPC   H4S 5222   2.400   2.815   6.977  1.3973  1.0019  1.6889
   39POPC   C25 5223   2.365   2.787   7.188  0.8241 -0.7535 -0.3995
   39POPC   H5R 5224   2.391   2.893   7.209  2.4023 -0.7882 -1.9103
   39POPC   H5S 5225   2.451   2.721   7.213  0.9391  0.1424  1.7632
   39POPC   C26 5226   2.250   2.775   7.288  0.2151 -0.0867  0.1080
   39POPC   H6R 5227   2.186   2.685   7.282  0.3070 -0.0848 -1.2738
   39POPC   H6S 5228   2.173   2.852   7.264 -1.0065 -1.0429  0.8505
   39POPC   C27 5229   2.289   2.805   7.433 -0.5602 -0.1604  0.8481
   39POPC   H7R 5230   2.335   2.907   7.435  1.3475 -0.9909  2.1393
   39POPC   H7S 5231   2.368   2.733   7.465  2.6943  2.3154 -0.9600
   39POPC   C28 5232   2.169   2.807   7.532  0.8373  0.3446 -0.2472
   39POPC   H8R 5233   2.121   2.707   7.521  0.7218  0.4751 -0.9733
   39POPC   H8S 5234   2.103   2.894   7.514  2.4685  1.9290  1.1212
   39POPC   C29 5235   2.218   2.812   7.679 -0.2963  0.6431  0.1894
   39POPC   H91 5236   2.323   2.783   7.693  0.5738  3.0378 -0.8473
   39POPC  C210 5237   2.142   2.841   7.785 -0.7203 -0.2321 -0.8997
   39POPC  H101 5238   2.189   2.856   7.883  0.7220 -0.8090 -1.4761
   39POPC  C211 5239   1.995   2.877   7.785  0.0143 -0.0244 -0.2790
   39POPC  H11R 5240   1.951   2.831   7.694  0.3398 -2.2701  0.6526
   39POPC  H11S 5241   1.992   2.988   7.778  3.9043  0.2143 -0.6432
   39POPC  C212 5242   1.910   2.836   7.903  0.9727 -0.3486  0.0987
   39POPC  H12R 5243   1.921   2.727   7.926  1.4877  0.3491  3.9593
   39POPC  H12S 5244   1.802   2.844   7.878  0.5902  1.0435  1.9236
   39POPC  C213 5245   1.926   2.927   8.021 -1.2830 -0.2926 -0.4046
   39POPC  H13R 5246   1.910   3.034   7.995  1.9711  0.7377  1.2471
   39POPC  H13S 5247   2.028   2.919   8.065 -1.3681 -0.3040 -0.2079
   39POPC  C214 5248   1.832   2.888   8.128 -0.8288 -0.2012  0.1889
   39POPC  H14R 5249   1.850   2.784   8.163  1.6083 -0.6529 -2.1044
   39POPC  H14S 5250   1.736   2.889   8.072 -0.9439 -0.6180  0.3756
   39POPC  C215 5251   1.827   2.993   8.239  0.9984  0.6786 -0.6459
   39POPC  H15R 5252   1.768   3.074   8.190 -1.5174 -0.4579  0.3228
   39POPC  H15S 5253   1.923   3.040   8.268 -0.3470  1.3563  3.4046
   39POPC  C216 5254   1.765   2.945   8.376  0.5849 -0.0080 -0.5329
   39POPC  H16R 5255   1.671   2.888   8.367 -0.1472  1.3689 -2.0274
   39POPC  H16S 5256   1.743   3.035   8.437  0.3087 -1.6093  1.8610
   39POPC  C217 5257   1.866   2.868   8.457  0.1517 -0.6043 -0.2455
   39POPC  H17R 5258   1.959   2.927   8.470 -0.2123  0.3288 -1.6630
   39POPC  H17S 5259   1.896   2.782   8.392  1.1762 -1.1494  0.8991
   39POPC  C218 5260   1.822   2.810   8.598 -0.0950 -0.1305  0.1159
   39POPC  H18R 5261   1.785   2.887   8.668 -3.5566 -0.3217 -1.2596
   39POPC  H18S 5262   1.912   2.762   8.641  0.3555  0.5242 -0.0860
   39POPC  H18T 5263   1.744   2.730   8.590  0.2008 -0.2523 -2.4287
   39POPC   C33 5264   1.881   2.962   7.026 -0.5243 -0.0010 -0.2614
   39POPC   H3X 5265   1.924   2.863   7.054  0.3866  0.3721 -0.3280
   39POPC   H3Y 5266   1.771   2.955   7.036 -0.4136 -2.1268  0.0144
   39POPC   C34 5267   1.934   3.053   7.131  0.2550  0.0296  0.4349
   39POPC   H4X 5268   1.881   3.148   7.107  1.7902  0.7507 -0.2089
   39POPC   H4Y 5269   2.042   3.069   7.110  0.3073 -2.2581 -1.5281
   39POPC   C35 5270   1.903   3.024   7.276 -0.0343 -0.4878 -0.1663
   39POPC   H5X 5271   1.975   3.084   7.335 -0.1676 -1.1443  0.6785
   39POPC   H5Y 5272   1.911   2.915   7.295  0.3977 -0.4967 -0.3870
   39POPC   C36 5273   1.765   3.068   7.329 -0.3572 -0.1907 -0.7419
   39POPC   H6X 5274   1.695   2.992   7.288  1.3119 -2.7706  0.8598
   39POPC   H6Y 5275   1.731   3.165   7.288 -3.7547 -1.3316 -0.8807
   39POPC   C37 5276   1.779   3.069   7.481 -0.7893  0.2295  0.4287
   39POPC   H7X 5277   1.852   3.150   7.501 -0.1433 -0.1362 -0.4185
   39POPC   H7Y 5278   1.815   2.971   7.519 -2.8278 -0.3120  1.0996
   39POPC   C38 5279   1.644   3.106   7.551  0.1340 -0.4918 -0.4508
   39POPC   H8X 5280   1.570   3.024   7.538  0.5965 -1.8432  3.6849
   39POPC   H8Y 5281   1.600   3.193   7.498 -0.2809 -1.3868 -1.6198
   39POPC   C39 5282   1.678   3.116   7.701 -0.0873 -0.2324 -0.3310
   39POPC   H9X 5283   1.755   3.196   7.714 -0.0395  0.0267 -1.9692
   39POPC   H9Y 5284   1.717   3.014   7.720 -0.5040 -0.5904 -1.3152
   39POPC  C310 5285   1.564   3.161   7.793 -0.0744  0.2655  0.4993
   39POPC  H10X 5286   1.481   3.093   7.766  0.5857 -1.3577  2.3410
   39POPC  H10Y 5287   1.539   3.264   7.761 -1.5089 -0.1090  0.3281
   39POPC  C311 5288   1.594   3.157   7.943 -0.1431 -0.1597 -0.5983
   39POPC  H11X 5289   1.690   3.210   7.959  0.3531 -1.3863  0.7097
   39POPC  H11Y 5290   1.601   3.048   7.968  0.8675  0.0458  0.0750
   39POPC  C312 5291   1.487   3.218   8.028 -0.1722  0.0241  0.1907
   39POPC  H12X 5292   1.388   3.185   7.992 -1.6330  0.8272  3.1947
   39POPC  H12Y 5293   1.482   3.327   8.007 -0.9269  0.1610  1.0419
   39POPC  C313 5294   1.512   3.209   8.181 -0.4054 -0.0912 -0.1568
   39POPC  H13X 5295   1.601   3.273   8.199  0.4489 -1.1187 -0.6226
   39POPC  H13Y 5296   1.536   3.101   8.194 -1.9463 -0.6443 -1.6076
   39POPC  C314 5297   1.405   3.256   8.273 -0.7211 -0.3756  0.0552
   39POPC  H14X 5298   1.303   3.225   8.243 -0.1491 -0.2612 -2.1591
   39POPC  H14Y 5299   1.409   3.367   8.282 -1.2753 -0.2930 -0.6102
   39POPC  C315 5300   1.414   3.213   8.424  0.0576 -0.0375 -0.0535
   39POPC  H15X 5301   1.502   3.261   8.472 -0.8081  1.6972 -0.1446
   39POPC  H15Y 5302   1.431   3.103   8.419  0.9101 -0.0714  2.2392
   39POPC  C316 5303   1.285   3.237   8.498  0.5354 -0.2731  0.4590
   39POPC  H16X 5304   1.294   3.340   8.541  0.0730  0.0682 -0.2370
   39POPC  H16Y 5305   1.258   3.167   8.580  0.9405 -0.5104  0.3861
   39POPC  H16Z 5306   1.201   3.248   8.425  1.0522  2.5492  0.1775
   40POPC     N 5307   2.734   1.528   6.144 -0.2125  0.8768  0.9710
   40POPC   C12 5308   2.637   1.574   6.245  0.2529  0.2495 -0.2239
   40POPC  H12A 5309   2.550   1.607   6.190 -1.4525 -0.0077  2.1769
   40POPC  H12B 5310   2.666   1.659   6.305  1.2289  0.1797 -0.5883
   40POPC   C13 5311   2.834   1.442   6.211 -0.1283  0.5171 -0.3433
   40POPC  H13A 5312   2.797   1.376   6.288  0.1849  2.3183  1.4531
   40POPC  H13B 5313   2.892   1.385   6.140  1.4689  2.9543 -1.1012
   40POPC  H13C 5314   2.906   1.504   6.263  0.8326  1.1054 -2.2653
   40POPC   C14 5315   2.671   1.434   6.041  0.2530 -0.0864  0.1159
   40POPC  H14A 5316   2.619   1.350   6.085 -0.6476 -0.4158 -1.5160
   40POPC  H14B 5317   2.603   1.493   5.982  0.0496  1.1639  1.5411
   40POPC  H14C 5318   2.743   1.391   5.973  1.7082  1.9658  0.2479
   40POPC   C15 5319   2.803   1.631   6.055 -0.2121 -0.0373 -0.6981
   40POPC  H15A 5320   2.842   1.711   6.117 -0.4567 -0.2935 -0.2113
   40POPC  H15B 5321   2.724   1.677   5.998 -0.7433  2.0941  1.5814
   40POPC  H15C 5322   2.873   1.579   5.991 -0.4349 -2.7626  1.1043
   40POPC   C11 5323   2.569   1.465   6.339 -0.4729  0.5383  0.1814
   40POPC  H11A 5324   2.515   1.507   6.426 -0.1685  1.1631  0.0723
   40POPC  H11B 5325   2.649   1.401   6.382  0.0414  0.3601 -0.9935
   40POPC     P 5326   2.351   1.429   6.211 -0.1897  0.0571  0.1401
   40POPC   O13 5327   2.256   1.319   6.182  0.4132  0.1897 -0.0234
   40POPC   O14 5328   2.370   1.525   6.098 -0.5658  0.6325  0.4181
   40POPC   O12 5329   2.486   1.378   6.264  0.1810  0.2318  0.2561
   40POPC   O11 5330   2.293   1.515   6.327  0.3915 -0.0461  0.1372
   40POPC    C1 5331   2.218   1.457   6.429 -0.2461 -0.2011 -0.0499
   40POPC    HA 5332   2.259   1.359   6.462  1.9042  0.7833  0.4034
   40POPC    HB 5333   2.112   1.440   6.402  0.7466 -1.6980 -3.5156
   40POPC    C2 5334   2.217   1.541   6.556  0.6372  0.1016 -0.1247
   40POPC    HS 5335   2.146   1.624   6.538 -0.1275 -0.5870 -0.3237
   40POPC   O21 5336   2.351   1.579   6.593  0.4098 -0.1238 -0.1185
   40POPC   C21 5337   2.361   1.693   6.665  0.0873  0.2706 -0.1641
   40POPC   O22 5338   2.268   1.748   6.716  0.6216  1.0266  0.1055
   40POPC   C22 5339   2.500   1.752   6.643  0.6708  0.9578 -0.5988
   40POPC   H2R 5340   2.487   1.860   6.622  0.1141  1.1584  0.6503
   40POPC   H2S 5341   2.546   1.702   6.555  3.2612  2.2719 -0.0848
   40POPC    C3 5342   2.141   1.457   6.667  1.2538 -0.2075 -0.3988
   40POPC    HX 5343   2.155   1.502   6.767 -0.4820 -0.6019  0.0559
   40POPC    HY 5344   2.187   1.356   6.672  1.5543 -0.1765 -2.0838
   40POPC   O31 5345   1.997   1.457   6.649 -0.4421 -0.0229 -0.0491
   40POPC   C31 5346   1.924   1.422   6.761 -0.1763 -0.5668  0.0236
   40POPC   O32 5347   1.967   1.395   6.872 -0.3293 -0.5183  0.1001
   40POPC   C32 5348   1.778   1.396   6.732 -0.3478 -0.1716  0.3130
   40POPC   H2X 5349   1.784   1.336   6.640  0.2828 -0.5726  0.6124
   40POPC   H2Y 5350   1.720   1.489   6.709  1.6540  1.0865  0.1322
   40POPC   C23 5351   2.606   1.714   6.754  0.3791 -0.2739 -0.1337
   40POPC   H3R 5352   2.701   1.753   6.712 -0.2576  1.7293  0.1905
   40POPC   H3S 5353   2.610   1.604   6.773  0.1215 -0.3810 -0.6759
   40POPC   C24 5354   2.590   1.777   6.892 -0.4016 -0.3158 -0.0244
   40POPC   H4R 5355   2.524   1.715   6.956 -1.8948 -0.0609 -1.2557
   40POPC   H4S 5356   2.543   1.877   6.880 -1.3654 -1.0013 -2.7043
   40POPC   C25 5357   2.723   1.798   6.971 -1.0703  0.4332 -0.2668
   40POPC   H5R 5358   2.790   1.865   6.914  0.1771 -0.4741  0.1010
   40POPC   H5S 5359   2.772   1.699   6.974  0.2692  1.0675 -0.5265
   40POPC   C26 5360   2.731   1.860   7.114 -0.4707  0.3313 -0.3048
   40POPC   H6R 5361   2.657   1.809   7.178  2.5637 -2.4700  1.3053
   40POPC   H6S 5362   2.707   1.968   7.112  0.2484  0.5133  0.4554
   40POPC   C27 5363   2.869   1.841   7.183  0.1815 -0.1100 -0.0874
   40POPC   H7R 5364   2.945   1.888   7.118  0.0446 -0.6439 -0.6422
   40POPC   H7S 5365   2.879   1.730   7.184  0.7127 -0.0638 -0.4228
   40POPC   C28 5366   2.879   1.880   7.330 -0.0330 -0.2170 -0.5360
   40POPC   H8R 5367   2.988   1.872   7.351  0.0424  0.7666 -0.5145
   40POPC   H8S 5368   2.825   1.808   7.395 -1.7085  1.8868  0.5404
   40POPC   C29 5369   2.826   2.025   7.344 -0.4062 -0.5340  0.0980
   40POPC   H91 5370   2.878   2.095   7.277 -1.0182 -1.1096 -0.9982
   40POPC  C210 5371   2.716   2.064   7.411  0.0502 -0.4797 -0.9327
   40POPC  H101 5372   2.710   2.171   7.437  2.1204 -0.8644  1.4738
   40POPC  C211 5373   2.625   1.980   7.491  0.4375 -0.3531  0.1366
   40POPC  H11R 5374   2.652   1.873   7.479  1.0466 -0.2882  0.8790
   40POPC  H11S 5375   2.525   2.001   7.447  0.6566 -1.8907 -1.1955
   40POPC  C212 5376   2.607   2.009   7.649 -0.6267 -0.7830  0.4725
   40POPC  H12R 5377   2.530   1.933   7.673  1.2775 -2.9254  0.1539
   40POPC  H12S 5378   2.589   2.117   7.670 -1.1438 -0.7993  0.1270
   40POPC  C213 5379   2.738   1.989   7.734  0.7033 -0.3800  0.4780
   40POPC  H13R 5380   2.817   2.058   7.697  0.5948  0.1351  1.1921
   40POPC  H13S 5381   2.778   1.891   7.701 -0.6430 -0.7355 -0.1628
   40POPC  C214 5382   2.711   1.996   7.883 -0.2069  0.1428 -0.1146
   40POPC  H14R 5383   2.640   1.919   7.919  0.2538  0.5346  1.7896
   40POPC  H14S 5384   2.656   2.091   7.905  0.3401  0.7679 -1.3305
   40POPC  C215 5385   2.842   1.969   7.958 -0.4141  0.1763  1.0870
   40POPC  H15R 5386   2.922   2.047   7.955  1.2250 -1.4735 -0.0164
   40POPC  H15S 5387   2.877   1.874   7.913 -0.4155  0.9697 -0.6807
   40POPC  C216 5388   2.816   1.940   8.105  0.2642 -0.7198  0.6923
   40POPC  H16R 5389   2.754   1.849   8.124  1.6750 -1.8087  0.2744
   40POPC  H16S 5390   2.749   2.023   8.136 -2.2260 -1.4074 -2.3355
   40POPC  C217 5391   2.936   1.924   8.193 -1.3250  0.4392 -0.6025
   40POPC  H17R 5392   3.021   1.989   8.161  0.6693 -2.0787 -0.7096
   40POPC  H17S 5393   2.988   1.827   8.181  2.1545  2.0705 -0.1556
   40POPC  C218 5394   2.925   1.971   8.340 -0.4392 -0.6854  0.0237
   40POPC  H18R 5395   2.903   2.078   8.357  1.3740 -0.5702  1.9452
   40POPC  H18S 5396   3.016   1.945   8.398 -0.8116 -0.2003  0.8273
   40POPC  H18T 5397   2.840   1.914   8.383 -1.4728 -0.2432 -1.3623
   40POPC   C33 5398   1.712   1.311   6.842 -0.1266  0.2665 -0.3507
   40POPC   H3X 5399   1.794   1.247   6.880 -0.9581  0.1670  1.4126
   40POPC   H3Y 5400   1.624   1.252   6.808 -1.0219  0.8400  0.8592
   40POPC   C34 5401   1.662   1.402   6.955  0.2192  0.3951 -0.9038
   40POPC   H4X 5402   1.610   1.492   6.916 -0.3518  0.5583  0.2180
   40POPC   H4Y 5403   1.754   1.440   7.005  0.6118 -0.6667 -0.8029
   40POPC   C35 5404   1.572   1.338   7.064 -1.0149 -0.0736  0.4351
   40POPC   H5X 5405   1.635   1.252   7.093  0.8775  0.1773 -2.5355
   40POPC   H5Y 5406   1.478   1.300   7.018 -0.4032 -1.6767  0.4440
   40POPC   C36 5407   1.552   1.420   7.181 -0.0048 -0.3921  0.0347
   40POPC   H6X 5408   1.474   1.498   7.173 -0.3485 -0.6616  0.6405
   40POPC   H6Y 5409   1.647   1.472   7.207  1.2354 -2.4646 -0.1286
   40POPC   C37 5410   1.519   1.347   7.310 -0.1391 -0.8613 -0.2297
   40POPC   H7X 5411   1.579   1.255   7.326 -0.7388 -1.0542  0.9377
   40POPC   H7Y 5412   1.417   1.306   7.297 -0.4345 -0.5953  1.1292
   40POPC   C38 5413   1.504   1.430   7.435 -0.1784  0.1000 -0.1643
   40POPC   H8X 5414   1.416   1.498   7.429 -0.9011 -0.8891 -1.3893
   40POPC   H8Y 5415   1.581   1.510   7.440 -1.8729  1.9083 -1.4672
   40POPC   C39 5416   1.497   1.338   7.561  0.5679  0.2939  0.2523
   40POPC   H9X 5417   1.429   1.253   7.540  1.4595 -0.3559 -0.0211
   40POPC   H9Y 5418   1.452   1.399   7.642  0.3420  1.6732 -0.8696
   40POPC  C310 5419   1.630   1.288   7.611 -0.4324 -0.6087  0.2460
   40POPC  H10X 5420   1.697   1.372   7.638  0.3523 -0.9381 -0.5985
   40POPC  H10Y 5421   1.686   1.237   7.529 -0.2874  0.2552 -0.2094
   40POPC  C311 5422   1.609   1.186   7.731 -0.7447 -0.2782  0.5159
   40POPC  H11X 5423   1.711   1.159   7.764  0.0181  1.3225 -0.4511
   40POPC  H11Y 5424   1.564   1.097   7.682  0.7796 -0.4595 -0.6418
   40POPC  C312 5425   1.535   1.237   7.856 -0.5142 -0.6221 -0.5638
   40POPC  H12X 5426   1.425   1.242   7.841 -0.7091 -0.1471  0.8582
   40POPC  H12Y 5427   1.577   1.335   7.886 -0.7591 -1.2931  2.2249
   40POPC  C313 5428   1.538   1.146   7.977 -0.4325 -0.0516 -0.4385
   40POPC  H13X 5429   1.640   1.112   8.003 -0.4244 -0.4906 -1.0354
   40POPC  H13Y 5430   1.482   1.051   7.968 -1.1624  0.4981 -2.1298
   40POPC  C314 5431   1.487   1.216   8.108 -0.8471 -0.2084 -0.2137
   40POPC  H14X 5432   1.482   1.142   8.191 -0.8085 -2.0191 -1.7587
   40POPC  H14Y 5433   1.387   1.260   8.088 -0.8254 -0.7369 -1.5485
   40POPC  C315 5434   1.594   1.324   8.145 -0.3466  0.1193  0.4937
   40POPC  H15X 5435   1.608   1.399   8.064  0.1146 -0.9140 -0.4126
   40POPC  H15Y 5436   1.692   1.276   8.162  0.2663  1.1097 -0.1566
   40POPC  C316 5437   1.552   1.396   8.284 -0.6787 -0.6782  0.6519
   40POPC  H16X 5438   1.620   1.482   8.301 -0.5017 -1.0354  1.8047
   40POPC  H16Y 5439   1.568   1.334   8.374  0.5959 -0.5243  0.5416
   40POPC  H16Z 5440   1.448   1.435   8.291  0.1738  1.7546  0.7627
   41CHL1    C3 5441   3.934   3.889  10.021  0.4203  0.0883 -0.0428
   41CHL1    H3 5442   4.042   3.870  10.002  0.6878 -1.3999  2.4417
   41CHL1    O3 5443   3.896   3.889  10.160 -0.4503  0.0768 -0.1249
   41CHL1   H3' 5444   3.818   3.944  10.173  0.3637  1.0251  1.0057
   41CHL1    C4 5445   3.899   4.033   9.980  0.2808 -0.0347  0.2738
   41CHL1   H4A 5446   3.790   4.043   9.998  0.1921 -0.0955 -0.2331
   41CHL1   H4B 5447   3.958   4.099  10.047 -2.5292  1.2141  1.6733
   41CHL1    C5 5448   3.926   4.043   9.831  0.3582 -0.5666 -0.4132
   41CHL1    C6 5449   4.012   4.132   9.776 -0.0970 -0.6111  0.1015
   41CHL1    H6 5450   4.076   4.196   9.838  0.4118 -0.7576 -0.2599
   41CHL1    C7 5451   4.022   4.154   9.630 -0.6383 -0.2420 -0.3781
   41CHL1   H7A 5452   4.035   4.263   9.611 -1.3190  0.3455  2.1205
   41CHL1   H7B 5453   4.120   4.120   9.591 -0.2095  0.6878 -0.1601
   41CHL1    C8 5454   3.908   4.094   9.552  0.0823  0.5026 -0.2278
   41CHL1    H8 5455   3.821   4.163   9.560 -0.1363  0.4527 -1.7831
   41CHL1   C14 5456   3.953   4.078   9.402  0.3494 -0.8140 -0.5328
   41CHL1   H14 5457   4.033   4.001   9.400 -1.5959 -2.9491 -0.1368
   41CHL1   C15 5458   4.011   4.197   9.329 -0.6029  0.1741 -0.4187
   41CHL1  H15A 5459   3.948   4.285   9.355 -0.9080 -0.8653  2.6531
   41CHL1  H15B 5460   4.112   4.227   9.363 -0.9412  1.3979 -0.4250
   41CHL1   C16 5461   3.992   4.171   9.181  0.2607 -0.6848 -0.0116
   41CHL1  H16A 5462   3.932   4.254   9.139 -0.1511 -0.9561  0.0338
   41CHL1  H16B 5463   4.092   4.174   9.131  1.2851 -0.0066  1.9504
   41CHL1   C17 5464   3.927   4.036   9.166  0.2721 -0.6660 -0.4383
   41CHL1   H17 5465   4.010   3.961   9.164  0.4524 -0.5133  0.6352
   41CHL1   C13 5466   3.846   4.021   9.298  0.4103  0.5407 -0.9560
   41CHL1   C18 5467   3.728   4.112   9.290 -0.4450  0.0084  0.4914
   41CHL1  H18A 5468   3.651   4.069   9.222  0.3306  0.6072 -0.7968
   41CHL1  H18B 5469   3.678   4.116   9.390 -1.1780  0.5122  0.1150
   41CHL1  H18C 5470   3.745   4.219   9.266 -2.5823  0.4785  0.8134
   41CHL1   C12 5471   3.806   3.885   9.352 -0.4782  0.4317  0.7871
   41CHL1  H12A 5472   3.717   3.842   9.300  0.7475 -1.4339  0.1320
   41CHL1  H12B 5473   3.896   3.824   9.329  0.2529  1.8007 -0.1057
   41CHL1   C11 5474   3.773   3.887   9.506 -0.5674  0.2218  0.4021
   41CHL1  H11A 5475   3.680   3.944   9.485  0.3014  1.0900 -1.2352
   41CHL1  H11B 5476   3.757   3.782   9.539 -1.0854 -0.8918 -3.0378
   41CHL1    C9 5477   3.877   3.952   9.595 -0.4618  0.0298  0.2870
   41CHL1    H9 5478   3.966   3.886   9.587  0.0648  0.5867  1.4085
   41CHL1   C10 5479   3.838   3.944   9.745 -0.2177  0.5343  0.1212
   41CHL1   C19 5480   3.691   3.982   9.755  1.2733 -0.2104  0.5473
   41CHL1  H19A 5481   3.651   3.994   9.858  0.4271  1.9331  0.0228
   41CHL1  H19B 5482   3.679   4.081   9.705 -0.4615 -1.3188 -1.4071
   41CHL1  H19C 5483   3.622   3.910   9.705 -1.9169  2.4693  0.7216
   41CHL1    C1 5484   3.865   3.803   9.797 -0.1491 -0.0418  0.3962
   41CHL1   H1A 5485   3.792   3.730   9.756  0.4661 -1.0592  1.0699
   41CHL1   H1B 5486   3.958   3.753   9.762 -0.0885  0.7527 -0.6305
   41CHL1    C2 5487   3.853   3.778   9.944  0.1387 -0.2132 -0.5411
   41CHL1   H2A 5488   3.897   3.683   9.982  0.4262 -1.2175 -3.1626
   41CHL1   H2B 5489   3.749   3.796   9.977 -0.0324  0.6923 -1.5227
   41CHL1   C20 5490   3.859   4.010   9.027 -0.7783  0.3500 -0.1893
   41CHL1   H20 5491   3.761   4.061   9.044  0.2028  1.8626  1.2278
   41CHL1   C21 5492   3.825   3.863   9.013  0.0974 -0.4340  0.0064
   41CHL1  H21A 5493   3.923   3.810   9.014  0.0281 -0.5939  1.7399
   41CHL1  H21B 5494   3.769   3.844   8.919 -1.0350  0.5367  0.4607
   41CHL1  H21C 5495   3.760   3.819   9.092 -2.4265  0.5350 -1.4336
   41CHL1   C22 5496   3.928   4.053   8.894 -0.1512  0.2650  0.8790
   41CHL1  H22A 5497   3.847   4.043   8.819  0.2606  1.9688  0.1485
   41CHL1  H22B 5498   3.946   4.162   8.911 -2.6599  1.4226 -2.8624
   41CHL1   C23 5499   4.067   3.996   8.862 -0.3092  0.4587 -0.0018
   41CHL1  H23A 5500   4.137   4.010   8.947 -0.3885 -1.9390  0.5180
   41CHL1  H23B 5501   4.056   3.886   8.856 -1.1918  0.5047  0.6257
   41CHL1   C24 5502   4.132   4.061   8.741 -0.2912 -0.4783  0.5221
   41CHL1  H24A 5503   4.063   4.076   8.656  0.1476 -0.9758  0.0743
   41CHL1  H24B 5504   4.155   4.166   8.770  0.0636 -0.4642  0.1973
   41CHL1   C25 5505   4.247   3.992   8.674  0.5376 -0.1461 -0.3269
   41CHL1   H25 5506   4.319   3.964   8.754 -1.4752 -1.0016  1.2794
   41CHL1   C26 5507   4.198   3.869   8.603 -0.4160 -0.5400 -0.6123
   41CHL1  H26A 5508   4.155   3.795   8.674  0.5910 -1.2761 -0.7450
   41CHL1  H26B 5509   4.138   3.889   8.511  0.6017 -0.1957 -1.2239
   41CHL1  H26C 5510   4.288   3.823   8.558  0.3849  1.9575 -1.7564
   41CHL1   C27 5511   4.319   4.091   8.577 -0.4329 -0.4870 -1.0270
   41CHL1  H27A 5512   4.263   4.144   8.497 -1.1318  1.7036  0.7937
   41CHL1  H27B 5513   4.364   4.174   8.635 -0.5825 -0.7598 -0.5137
   41CHL1  H27C 5514   4.402   4.037   8.526  0.5871 -0.1207  0.1893
   42CHL1    C3 5515   0.879   1.226  10.089 -0.0676 -0.5762 -0.2416
   42CHL1    H3 5516   0.978   1.256  10.048 -0.1033 -0.1555 -0.0282
   42CHL1    O3 5517   0.897   1.182  10.227 -0.1819 -0.1203  0.9639
   42CHL1   H3' 5518   0.809   1.149  10.245  0.0686 -2.0725 -0.9602
   42CHL1    C4 5519   0.780   1.343  10.090  0.2319 -0.3614  0.1508
   42CHL1   H4A 5520   0.687   1.315  10.145 -0.3280  1.6166  0.2790
   42CHL1   H4B 5521   0.836   1.422  10.143  0.3961  0.6352 -1.4430
   42CHL1    C5 5522   0.740   1.390   9.951 -0.0962  0.2523  0.3496
   42CHL1    C6 5523   0.749   1.519   9.917  0.8896  0.7475  0.0115
   42CHL1    H6 5524   0.762   1.593   9.997  0.1785 -0.5336  1.3364
   42CHL1    C7 5525   0.718   1.571   9.781 -0.2036  0.3040  0.1741
   42CHL1   H7A 5526   0.657   1.663   9.793 -0.5766  0.2782 -1.3284
   42CHL1   H7B 5527   0.813   1.597   9.730  0.2217  1.5010  1.5331
   42CHL1    C8 5528   0.641   1.471   9.690  0.5898  0.7526 -0.1674
   42CHL1    H8 5529   0.541   1.471   9.739  0.9044 -0.4887  0.5156
   42CHL1   C14 5530   0.650   1.528   9.548  0.1848 -0.7247  0.0097
   42CHL1   H14 5531   0.756   1.535   9.514  0.3632  0.0020  0.6887
   42CHL1   C15 5532   0.581   1.667   9.521 -0.2287  0.9066 -0.2974
   42CHL1  H15A 5533   0.482   1.673   9.572 -1.4202 -0.5008 -2.3032
   42CHL1  H15B 5534   0.649   1.745   9.561 -0.9838  2.8051 -2.4412
   42CHL1   C16 5535   0.564   1.666   9.372 -0.3781 -0.2064 -0.4863
   42CHL1  H16A 5536   0.462   1.703   9.346 -0.0110  0.5741 -0.8585
   42CHL1  H16B 5537   0.636   1.734   9.321 -0.5781 -1.4873 -2.5912
   42CHL1   C17 5538   0.588   1.520   9.310  0.2084  0.1182 -0.5287
   42CHL1   H17 5539   0.690   1.509   9.268  0.5072  1.7823 -0.3155
   42CHL1   C13 5540   0.583   1.432   9.445  0.1681 -0.1899  0.6787
   42CHL1   C18 5541   0.429   1.405   9.483 -0.2555  0.0571  1.4617
   42CHL1  H18A 5542   0.388   1.331   9.410 -2.3152  2.9228 -0.4714
   42CHL1  H18B 5543   0.431   1.354   9.582 -2.9745 -1.1391  0.9953
   42CHL1  H18C 5544   0.371   1.499   9.475 -1.1532 -0.5148  1.0966
   42CHL1   C12 5545   0.658   1.295   9.447 -0.2440  0.2717 -0.4148
   42CHL1  H12A 5546   0.613   1.220   9.378  2.0491 -1.6176 -0.0065
   42CHL1  H12B 5547   0.766   1.305   9.421  0.5982 -2.5416  1.4377
   42CHL1   C11 5548   0.659   1.238   9.587  0.3141  0.1768 -0.0272
   42CHL1  H11A 5549   0.557   1.210   9.621  0.0771  3.7836  2.8990
   42CHL1  H11B 5550   0.721   1.146   9.593  0.4620  0.3656  2.9645
   42CHL1    C9 5551   0.711   1.333   9.699  0.0805 -0.0594 -0.1020
   42CHL1    H9 5552   0.821   1.347   9.687  0.1349 -0.2829  0.1431
   42CHL1   C10 5553   0.703   1.272   9.846  0.1349 -0.0981  0.0670
   42CHL1   C19 5554   0.562   1.218   9.876 -0.1878 -0.2717 -0.3920
   42CHL1  H19A 5555   0.549   1.124   9.819  0.9320 -1.3299  1.0188
   42CHL1  H19B 5556   0.555   1.193   9.984  1.1220  0.1407 -0.1917
   42CHL1  H19C 5557   0.479   1.288   9.851 -1.2011 -1.1398  0.4006
   42CHL1    C1 5558   0.806   1.152   9.861  0.0133  0.4670 -0.0592
   42CHL1   H1A 5559   0.764   1.068   9.801 -1.0435 -1.8840  3.6405
   42CHL1   H1B 5560   0.906   1.188   9.828  1.2629 -1.6507  1.2379
   42CHL1    C2 5561   0.821   1.110  10.004 -0.4160  0.7367 -0.3063
   42CHL1   H2A 5562   0.882   1.020  10.028 -1.4037  0.9643  3.7441
   42CHL1   H2B 5563   0.721   1.083  10.044 -0.1925 -1.1000 -0.8767
   42CHL1   C20 5564   0.482   1.485   9.201  0.6618  0.2182  0.0677
   42CHL1   H20 5565   0.379   1.491   9.240  0.2162  2.0321 -1.2322
   42CHL1   C21 5566   0.504   1.348   9.144  0.4093  0.1542  0.2745
   42CHL1  H21A 5567   0.409   1.314   9.097 -0.7630  2.6105  0.7404
   42CHL1  H21B 5568   0.537   1.276   9.222 -1.2738  0.3348  1.1866
   42CHL1  H21C 5569   0.595   1.349   9.080 -0.2845  3.1842 -0.7853
   42CHL1   C22 5570   0.503   1.586   9.084 -0.1073 -0.2800  0.2149
   42CHL1  H22A 5571   0.487   1.691   9.116 -1.1179 -0.4149  0.1746
   42CHL1  H22B 5572   0.604   1.591   9.039 -1.1269 -1.8565 -2.4945
   42CHL1   C23 5573   0.413   1.555   8.955  0.4163  0.7886 -0.4457
   42CHL1  H23A 5574   0.436   1.631   8.878 -0.5796 -0.8930 -2.5212
   42CHL1  H23B 5575   0.444   1.455   8.918  3.1685  0.7979  1.5084
   42CHL1   C24 5576   0.263   1.553   8.986  0.4656  0.0320 -0.0843
   42CHL1  H24A 5577   0.243   1.472   9.059 -0.4006  0.6328  0.3570
   42CHL1  H24B 5578   0.234   1.647   9.037  0.5618  0.2742 -0.4695
   42CHL1   C25 5579   0.180   1.522   8.861  0.0129  0.0488 -0.2529
   42CHL1   H25 5580   0.248   1.544   8.776  0.5287 -2.9433 -0.7038
   42CHL1   C26 5581   0.160   1.367   8.848  0.0669  0.8036  0.1265
   42CHL1  H26A 5582   0.095   1.359   8.758  0.7294  0.9359 -0.3654
   42CHL1  H26B 5583   0.261   1.323   8.839 -0.5741 -0.6676 -0.3072
   42CHL1  H26C 5584   0.107   1.318   8.933 -0.6892  1.5000  0.0690
   42CHL1   C27 5585   0.054   1.600   8.852  0.0483  0.3129 -0.0287
   42CHL1  H27A 5586  -0.002   1.578   8.759  0.9321  0.6683 -0.6625
   42CHL1  H27B 5587  -0.013   1.567   8.934  0.4863 -1.6438 -0.4255
   42CHL1  H27C 5588   0.071   1.710   8.854  3.4715 -0.0865 -0.5682
   43CHL1    C3 5589   4.244   3.091  10.025  0.4322  0.2250  0.2458
   43CHL1    H3 5590   4.347   3.071   9.988  0.4378  0.6350  0.0232
   43CHL1    O3 5591   4.250   3.124  10.163  0.0023  0.4956 -0.5625
   43CHL1   H3' 5592   4.321   3.189  10.169  2.0991 -1.7487  0.9119
   43CHL1    C4 5593   4.189   3.199   9.943  0.7217  0.1110  0.7719
   43CHL1   H4A 5594   4.087   3.222   9.980  0.0025  0.1786 -1.1184
   43CHL1   H4B 5595   4.246   3.292   9.960  0.2845  0.4206  0.5710
   43CHL1    C5 5596   4.184   3.165   9.792 -0.1618 -0.4565 -0.3613
   43CHL1    C6 5597   4.236   3.233   9.692 -0.0362 -0.6873 -0.4417
   43CHL1    H6 5598   4.280   3.332   9.707  1.1132 -0.6650 -3.2876
   43CHL1    C7 5599   4.236   3.190   9.547  0.1877 -0.4735  0.4444
   43CHL1   H7A 5600   4.206   3.275   9.482  1.5479 -0.3267 -0.0340
   43CHL1   H7B 5601   4.336   3.145   9.528  0.2053 -0.1273 -0.3527
   43CHL1    C8 5602   4.126   3.081   9.514  0.4439  0.0657 -0.6327
   43CHL1    H8 5603   4.021   3.117   9.517  0.3768 -0.1256 -0.6593
   43CHL1   C14 5604   4.146   3.014   9.380  0.6931 -0.6073 -0.2558
   43CHL1   H14 5605   4.245   2.963   9.387  0.9800  0.0724  0.8372
   43CHL1   C15 5606   4.173   3.107   9.259 -0.2289  0.5043 -0.3659
   43CHL1  H15A 5607   4.095   3.186   9.251 -2.7410 -1.6073  1.4264
   43CHL1  H15B 5608   4.270   3.159   9.275 -0.1144 -0.4636  2.6050
   43CHL1   C16 5609   4.165   3.002   9.145  0.0265 -0.4257 -0.6585
   43CHL1  H16A 5610   4.123   3.058   9.059  0.3815  0.7506 -0.0874
   43CHL1  H16B 5611   4.270   2.977   9.122  0.2836 -0.9081  0.9329
   43CHL1   C17 5612   4.091   2.873   9.188  0.6883  0.5879 -0.0225
   43CHL1   H17 5613   4.171   2.799   9.204  1.2856  1.5703  1.7923
   43CHL1   C13 5614   4.044   2.903   9.332 -0.4167 -0.1324 -0.2271
   43CHL1   C18 5615   3.901   2.975   9.321  0.1158 -0.2494 -0.0057
   43CHL1  H18A 5616   3.860   2.999   9.422  0.8370  4.2488 -0.5794
   43CHL1  H18B 5617   3.892   3.065   9.257 -1.0215 -0.3071  0.0429
   43CHL1  H18C 5618   3.831   2.914   9.260  0.0316  1.8713 -2.1387
   43CHL1   C12 5619   4.053   2.797   9.443 -0.6341 -1.1978 -0.2408
   43CHL1  H12A 5620   3.971   2.722   9.440 -0.4187 -1.5261  1.2699
   43CHL1  H12B 5621   4.158   2.762   9.440 -0.6150 -1.0977 -0.8536
   43CHL1   C11 5622   4.036   2.850   9.581 -0.0666  0.0143  0.0753
   43CHL1  H11A 5623   3.931   2.888   9.582 -0.5350 -1.2554  0.9206
   43CHL1  H11B 5624   4.051   2.764   9.649  2.0554 -0.6106 -1.1084
   43CHL1    C9 5625   4.135   2.967   9.614  0.3016 -0.4519  0.5472
   43CHL1    H9 5626   4.239   2.931   9.603  0.0031 -1.1998  0.1051
   43CHL1   C10 5627   4.118   3.025   9.758  0.7928 -0.0891 -0.1239
   43CHL1   C19 5628   3.961   3.053   9.773 -0.2591  0.1314 -0.2492
   43CHL1  H19A 5629   3.936   3.099   9.871  0.4628 -0.0206  0.0112
   43CHL1  H19B 5630   3.921   3.119   9.694  0.9686 -0.5054 -1.4473
   43CHL1  H19C 5631   3.901   2.961   9.783  0.2195  0.0366  2.6146
   43CHL1    C1 5632   4.166   2.918   9.860  0.4260 -0.2069  0.3162
   43CHL1   H1A 5633   4.108   2.823   9.858 -1.5359  0.9362 -1.3239
   43CHL1   H1B 5634   4.274   2.902   9.836  0.4771 -0.7377  0.8902
   43CHL1    C2 5635   4.171   2.953  10.008  0.4018 -0.0507 -0.6196
   43CHL1   H2A 5636   4.234   2.879  10.060  0.0253 -0.1470 -0.2979
   43CHL1   H2B 5637   4.077   2.960  10.067  0.9312 -0.6665  0.2975
   43CHL1   C20 5638   3.987   2.816   9.086  0.4766  0.3745  0.0930
   43CHL1   H20 5639   3.899   2.881   9.072  0.2027  0.0360  0.2233
   43CHL1   C21 5640   3.940   2.675   9.138  0.1279 -0.0020  0.3266
   43CHL1  H21A 5641   3.877   2.621   9.064 -0.3395  0.2640  0.5242
   43CHL1  H21B 5642   3.873   2.671   9.227 -1.3466  2.8750 -0.5480
   43CHL1  H21C 5643   4.030   2.612   9.156 -0.2319 -0.5651  0.1778
   43CHL1   C22 5644   4.061   2.797   8.946  0.8940 -0.3242 -0.0168
   43CHL1  H22A 5645   4.121   2.888   8.929 -0.6516  1.4479  3.1074
   43CHL1  H22B 5646   4.123   2.704   8.942  2.4502  0.6351  0.8886
   43CHL1   C23 5647   3.960   2.799   8.836 -0.5574  0.6254 -0.8438
   43CHL1  H23A 5648   3.880   2.724   8.859  0.1427  0.0190 -0.3270
   43CHL1  H23B 5649   3.906   2.895   8.827 -0.7401  0.7248  0.9213
   43CHL1   C24 5650   4.022   2.769   8.699  0.4009  0.1409  0.1412
   43CHL1  H24A 5651   4.105   2.842   8.697 -0.1635  0.8698  1.5466
   43CHL1  H24B 5652   4.076   2.672   8.700  0.8015  0.3647  1.4410
   43CHL1   C25 5653   3.934   2.774   8.577  0.0019  0.7795 -0.0781
   43CHL1   H25 5654   3.849   2.706   8.598 -0.5749  1.4258 -0.2571
   43CHL1   C26 5655   3.885   2.908   8.529 -0.6262 -0.1463 -0.0796
   43CHL1  H26A 5656   3.826   2.960   8.607 -1.1536  0.4314 -0.8558
   43CHL1  H26B 5657   3.968   2.977   8.503  0.3431 -0.9776  0.6933
   43CHL1  H26C 5658   3.825   2.900   8.435  1.0402 -0.3264 -1.1724
   43CHL1   C27 5659   4.008   2.719   8.457  0.1025 -0.1445 -0.1667
   43CHL1  H27A 5660   3.941   2.683   8.376 -0.1275  0.5468 -0.2899
   43CHL1  H27B 5661   4.091   2.785   8.421 -1.2830  0.5454 -2.3065
   43CHL1  H27C 5662   4.052   2.622   8.487  1.1470  0.5909  0.7598
   44CHL1    C3 5663   4.692   4.145   9.931 -0.4587  0.3319  0.4513
   44CHL1    H3 5664   4.789   4.130   9.880  0.1763 -0.8956  1.9306
   44CHL1    O3 5665   4.698   4.118  10.071  0.0350 -0.0516 -0.0272
   44CHL1   H3' 5666   4.610   4.103  10.107  0.1168 -1.7271 -0.4589
   44CHL1    C4 5667   4.630   4.286   9.909 -0.4177 -0.7593 -0.0032
   44CHL1   H4A 5668   4.534   4.299   9.965 -0.3832  2.6505 -0.5715
   44CHL1   H4B 5669   4.703   4.353   9.959  0.1723 -0.9598 -0.5822
   44CHL1    C5 5670   4.616   4.319   9.761  0.4944  0.1127 -0.1372
   44CHL1    C6 5671   4.686   4.423   9.713  0.0786  0.4728  0.1730
   44CHL1    H6 5672   4.744   4.488   9.779  1.9515  0.0602 -0.9935
   44CHL1    C7 5673   4.688   4.452   9.564 -0.4113  0.1648  0.4637
   44CHL1   H7A 5674   4.672   4.562   9.557 -1.7096  0.0333  1.0958
   44CHL1   H7B 5675   4.787   4.417   9.525 -0.7486  1.0913 -1.2999
   44CHL1    C8 5676   4.577   4.380   9.483  0.0226  0.8425 -0.9696
   44CHL1    H8 5677   4.479   4.423   9.514  0.4466  0.0690  1.7767
   44CHL1   C14 5678   4.599   4.396   9.335 -0.1864  0.6313 -1.0674
   44CHL1   H14 5679   4.698   4.345   9.326 -1.3176 -1.9821  0.0661
   44CHL1   C15 5680   4.616   4.534   9.274  0.1577 -0.1985 -0.4729
   44CHL1  H15A 5681   4.531   4.591   9.316  0.8352  0.3262  0.2060
   44CHL1  H15B 5682   4.709   4.579   9.315 -1.8122  0.1816  4.1269
   44CHL1   C16 5683   4.598   4.510   9.127 -0.3886  0.0323  0.6478
   44CHL1  H16A 5684   4.529   4.593   9.100  0.5707  1.0234  1.1553
   44CHL1  H16B 5685   4.688   4.511   9.062 -0.9934 -1.3580 -0.2625
   44CHL1   C17 5686   4.546   4.358   9.109 -0.2113 -0.5385 -0.0946
   44CHL1   H17 5687   4.635   4.293   9.095  0.7204  0.6014  0.3882
   44CHL1   C13 5688   4.500   4.322   9.249 -0.0155  0.2551 -0.1239
   44CHL1   C18 5689   4.360   4.378   9.284  0.4279 -0.2038  0.3857
   44CHL1  H18A 5690   4.278   4.337   9.220  1.5503 -1.3152 -0.4070
   44CHL1  H18B 5691   4.328   4.358   9.388 -0.3932 -0.1966  0.1452
   44CHL1  H18C 5692   4.350   4.487   9.267 -1.9565 -0.5552 -1.0505
   44CHL1   C12 5693   4.517   4.176   9.288 -0.0381  0.0623  0.0198
   44CHL1  H12A 5694   4.451   4.108   9.229 -0.6159  0.7691 -0.1523
   44CHL1  H12B 5695   4.623   4.144   9.277  0.2657  0.5752  1.3787
   44CHL1   C11 5696   4.494   4.149   9.435  0.2099 -0.2690  0.9272
   44CHL1  H11A 5697   4.385   4.148   9.456 -0.3088 -0.1624 -1.4251
   44CHL1  H11B 5698   4.525   4.042   9.437  0.7632 -0.2713 -2.1818
   44CHL1    C9 5699   4.581   4.235   9.527  0.6456  0.3892 -0.5295
   44CHL1    H9 5700   4.686   4.201   9.508  0.8755  0.0116  1.2320
   44CHL1   C10 5701   4.548   4.214   9.673 -0.2739  0.2245 -0.3469
   44CHL1   C19 5702   4.399   4.222   9.708 -0.3649 -0.8024  0.1584
   44CHL1  H19A 5703   4.349   4.315   9.672 -1.0798 -2.0036 -2.2109
   44CHL1  H19B 5704   4.340   4.138   9.663  0.3442 -0.3642 -1.7000
   44CHL1  H19C 5705   4.391   4.219   9.818  2.7471  0.0718  0.5017
   44CHL1    C1 5706   4.589   4.067   9.711 -0.6682 -0.2883 -0.2438
   44CHL1   H1A 5707   4.522   3.988   9.671 -0.5727 -1.3447  1.5856
   44CHL1   H1B 5708   4.691   4.049   9.671 -0.1646  0.4760  0.6403
   44CHL1    C2 5709   4.596   4.045   9.861 -0.8597 -0.4089 -0.7955
   44CHL1   H2A 5710   4.614   3.942   9.897  0.1185  0.1577  0.4127
   44CHL1   H2B 5711   4.494   4.057   9.903 -0.2258  0.3148  0.6234
   44CHL1   C20 5712   4.449   4.337   8.996  0.5277  0.0261 -0.3100
   44CHL1   H20 5713   4.359   4.400   9.005  1.0279  0.6476  0.4320
   44CHL1   C21 5714   4.392   4.190   8.994  0.0430 -0.5067  0.0638
   44CHL1  H21A 5715   4.357   4.180   8.889  2.9226  0.4353 -1.0934
   44CHL1  H21B 5716   4.314   4.181   9.073 -0.6538  0.3391 -0.5053
   44CHL1  H21C 5717   4.475   4.119   9.011 -0.3561 -0.7502  1.0919
   44CHL1   C22 5718   4.514   4.376   8.858 -0.4212  0.4802 -0.4848
   44CHL1  H22A 5719   4.432   4.369   8.783 -1.4125 -1.6193  0.6837
   44CHL1  H22B 5720   4.543   4.483   8.865 -0.4402  0.3921  2.5625
   44CHL1   C23 5721   4.635   4.293   8.816 -0.4261 -0.4248  0.1654
   44CHL1  H23A 5722   4.723   4.305   8.883  0.0159  0.0836 -0.4939
   44CHL1  H23B 5723   4.620   4.183   8.818  3.4731 -1.2109 -2.3771
   44CHL1   C24 5724   4.666   4.332   8.668 -0.1231  0.1473 -0.0300
   44CHL1  H24A 5725   4.584   4.310   8.597  0.8225 -0.6245 -0.8990
   44CHL1  H24B 5726   4.658   4.443   8.663  0.1128  0.2019  0.7388
   44CHL1   C25 5727   4.803   4.296   8.617 -0.4680  0.3279  0.1140
   44CHL1   H25 5728   4.874   4.343   8.688 -3.2417  2.4524  1.7111
   44CHL1   C26 5729   4.824   4.141   8.612  0.1536  0.5959 -0.3952
   44CHL1  H26A 5730   4.735   4.091   8.569 -1.1433  1.7268  0.8484
   44CHL1  H26B 5731   4.915   4.128   8.549 -0.0481 -0.0884 -0.5425
   44CHL1  H26C 5732   4.845   4.095   8.711  0.8099 -0.5470 -1.0509
   44CHL1   C27 5733   4.801   4.348   8.480  0.2375  0.4034  0.2704
   44CHL1  H27A 5734   4.898   4.327   8.431  0.9522  0.2870  1.6733
   44CHL1  H27B 5735   4.727   4.288   8.424  1.4908 -0.5461 -0.4187
   44CHL1  H27C 5736   4.778   4.457   8.474  0.8305  0.4815 -0.8410
   45CHL1    C3 5737   6.518   3.444  10.510 -0.0824  0.1963  0.2357
   45CHL1    H3 5738   6.414   3.420  10.542  0.5780 -0.4350  2.0362
   45CHL1    O3 5739   6.592   3.493  10.616  0.2175  0.4074  0.0200
   45CHL1   H3' 5740   6.668   3.536  10.576 -1.0450  1.9631 -0.8373
   45CHL1    C4 5741   6.585   3.313  10.457  0.5151  0.0292  0.2189
   45CHL1   H4A 5742   6.693   3.333  10.444  0.2533  1.5916  0.2845
   45CHL1   H4B 5743   6.578   3.236  10.538 -1.8615  0.4214  0.4472
   45CHL1    C5 5744   6.521   3.267  10.328  0.2443 -0.3290  0.0741
   45CHL1    C6 5745   6.479   3.143  10.310 -0.5994 -0.4127  0.2298
   45CHL1    H6 5746   6.475   3.069  10.392 -1.1998 -1.4413 -0.6897
   45CHL1    C7 5747   6.443   3.091  10.172  0.0832  0.5261 -0.5797
   45CHL1   H7A 5748   6.484   2.988  10.157 -0.6743  0.1841 -0.3567
   45CHL1   H7B 5749   6.334   3.075  10.188 -0.0470  0.3675 -1.5618
   45CHL1    C8 5750   6.468   3.177  10.041 -0.2998  0.3645 -0.0434
   45CHL1    H8 5751   6.385   3.145   9.974 -0.4354 -0.2310  0.4004
   45CHL1   C14 5752   6.590   3.151   9.950 -0.0903 -0.2109 -0.6731
   45CHL1   H14 5753   6.677   3.146  10.019 -0.1125 -0.5577 -0.6686
   45CHL1   C15 5754   6.576   3.010   9.886 -0.5230 -0.0113  0.9111
   45CHL1  H15A 5755   6.672   2.958   9.901  1.2260  3.0401  1.2519
   45CHL1  H15B 5756   6.497   2.947   9.932  1.2606 -3.2238 -0.1421
   45CHL1   C16 5757   6.560   3.029   9.738  0.2288  0.0769  0.5028
   45CHL1  H16A 5758   6.662   3.004   9.703 -0.2543  0.3339 -1.1765
   45CHL1  H16B 5759   6.480   2.970   9.687 -0.2469  0.5837  0.6479
   45CHL1   C17 5760   6.528   3.183   9.725  0.1100 -0.7175 -0.4840
   45CHL1   H17 5761   6.421   3.195   9.751  0.2181 -0.6385 -0.0641
   45CHL1   C13 5762   6.611   3.254   9.836  0.5863 -0.5343 -0.1656
   45CHL1   C18 5763   6.756   3.254   9.803  1.0350 -0.2995 -0.0529
   45CHL1  H18A 5764   6.766   3.310   9.708  0.6276 -1.0080 -0.5226
   45CHL1  H18B 5765   6.812   3.305   9.884  0.1568  0.8699 -0.1600
   45CHL1  H18C 5766   6.797   3.151   9.797 -0.7570 -1.2118  1.9576
   45CHL1   C12 5767   6.573   3.399   9.873  0.1659  0.2257  0.2416
   45CHL1  H12A 5768   6.659   3.460   9.908 -1.3031  0.5125  3.7322
   45CHL1  H12B 5769   6.548   3.455   9.780 -0.7066 -1.0469 -0.3182
   45CHL1   C11 5770   6.453   3.416   9.953  0.9933 -0.0544 -0.1581
   45CHL1  H11A 5771   6.447   3.521   9.989  0.2149 -0.1324 -0.0460
   45CHL1  H11B 5772   6.359   3.405   9.895  0.0693 -0.2313  1.3344
   45CHL1    C9 5773   6.447   3.326  10.076 -0.4249  1.0061 -0.3190
   45CHL1    H9 5774   6.343   3.325  10.116  0.1506 -0.0028  1.2693
   45CHL1   C10 5775   6.525   3.365  10.209  0.2389 -0.8218  0.8635
   45CHL1   C19 5776   6.679   3.396  10.181  0.4732 -0.0863  0.2215
   45CHL1  H19A 5777   6.742   3.408  10.272  0.8021  1.0239 -0.1361
   45CHL1  H19B 5778   6.727   3.319  10.117 -1.7613 -0.6909 -0.8332
   45CHL1  H19C 5779   6.687   3.484  10.114 -2.1006 -0.3937 -0.6136
   45CHL1    C1 5780   6.464   3.502  10.257  0.4314  0.9383  0.0755
   45CHL1   H1A 5781   6.489   3.576  10.177  2.4342 -0.1965 -0.4188
   45CHL1   H1B 5782   6.353   3.495  10.266  0.5387  0.2696  0.9849
   45CHL1    C2 5783   6.514   3.550  10.401 -0.4042  0.3814 -0.0474
   45CHL1   H2A 5784   6.460   3.641  10.434 -0.3343 -0.3770  2.3274
   45CHL1   H2B 5785   6.618   3.587  10.387 -0.7390  1.3640  0.0591
   45CHL1   C20 5786   6.539   3.238   9.585 -0.1990  0.0375 -0.3180
   45CHL1   H20 5787   6.575   3.343   9.586 -0.4764  0.1319  0.7769
   45CHL1   C21 5788   6.399   3.230   9.524  0.1197 -0.4532 -0.2949
   45CHL1  H21A 5789   6.393   3.293   9.432  0.8356 -1.6522 -1.1796
   45CHL1  H21B 5790   6.321   3.289   9.577  0.4117  2.2637 -2.6203
   45CHL1  H21C 5791   6.364   3.129   9.494  0.6004 -1.0742  1.1708
   45CHL1   C22 5792   6.638   3.159   9.488 -0.4897 -0.4429  1.0366
   45CHL1  H22A 5793   6.741   3.157   9.530  0.4849  2.7563 -0.8555
   45CHL1  H22B 5794   6.596   3.058   9.472 -0.2342 -0.6745  1.8182
   45CHL1   C23 5795   6.667   3.223   9.347 -0.0024  0.1417 -0.0803
   45CHL1  H23A 5796   6.563   3.237   9.311  0.2853 -0.3983 -1.1764
   45CHL1  H23B 5797   6.704   3.328   9.358 -2.1275  0.9228 -0.0359
   45CHL1   C24 5798   6.755   3.148   9.244  0.8845 -0.3302 -0.5340
   45CHL1  H24A 5799   6.860   3.141   9.279  1.2370 -0.9837 -1.6585
   45CHL1  H24B 5800   6.714   3.047   9.222 -0.3309 -0.1884  0.9169
   45CHL1   C25 5801   6.762   3.220   9.103  0.4416  0.7806 -0.1085
   45CHL1   H25 5802   6.809   3.318   9.125  0.9056  0.1681  1.7959
   45CHL1   C26 5803   6.850   3.137   9.007 -0.2082 -0.4410 -0.2837
   45CHL1  H26A 5804   6.867   3.187   8.909  0.0391 -1.5764 -0.8340
   45CHL1  H26B 5805   6.948   3.137   9.060  0.1852  0.7956 -0.9767
   45CHL1  H26C 5806   6.813   3.033   8.995  0.5534 -0.6245 -1.1938
   45CHL1   C27 5807   6.625   3.233   9.039 -0.4586  0.5635  0.0456
   45CHL1  H27A 5808   6.647   3.261   8.934  0.3514  2.6931  0.7507
   45CHL1  H27B 5809   6.571   3.136   9.029 -0.1889  0.5287 -1.2416
   45CHL1  H27C 5810   6.569   3.303   9.105 -0.3556  0.3547  0.3541
   46CHL1    C3 5811   0.903   0.186  10.213 -0.3788 -0.4499 -0.2183
   46CHL1    H3 5812   0.940   0.086  10.184 -0.9126  0.2712 -3.8237
   46CHL1    O3 5813   0.929   0.204  10.345 -0.2627  0.0003 -0.2046
   46CHL1   H3' 5814   0.885   0.287  10.369 -1.2614 -0.7293  0.5869
   46CHL1    C4 5815   0.982   0.285  10.124  0.0500  0.4154 -0.6647
   46CHL1   H4A 5816   0.959   0.388  10.160  0.0343  0.0904  0.2779
   46CHL1   H4B 5817   1.091   0.269  10.142 -0.1974  0.3244  0.8934
   46CHL1    C5 5818   0.945   0.272   9.978  0.0243  0.0159 -0.0421
   46CHL1    C6 5819   1.042   0.245   9.887 -0.5021  0.5173 -0.0440
   46CHL1    H6 5820   1.148   0.239   9.917 -1.2979  0.0680  3.0103
   46CHL1    C7 5821   1.021   0.238   9.743 -0.3039 -0.4323  0.7523
   46CHL1   H7A 5822   1.111   0.285   9.699 -0.8927  0.1848  0.1756
   46CHL1   H7B 5823   1.000   0.133   9.717 -1.0953 -0.3840  1.1437
   46CHL1    C8 5824   0.887   0.313   9.709 -0.0485 -0.4371  0.4931
   46CHL1    H8 5825   0.915   0.419   9.724  0.5028 -0.6388  0.9698
   46CHL1   C14 5826   0.848   0.276   9.564 -0.1350 -0.3509  0.2543
   46CHL1   H14 5827   0.831   0.166   9.570  0.7452 -0.4134  2.8224
   46CHL1   C15 5828   0.952   0.285   9.455  0.6206 -0.7537  0.3162
   46CHL1  H15A 5829   1.015   0.376   9.460 -1.2361  0.6258 -0.3244
   46CHL1  H15B 5830   1.021   0.198   9.444  0.4773 -1.1542  2.2958
   46CHL1   C16 5831   0.871   0.304   9.324  0.2688  0.0043 -0.0330
   46CHL1  H16A 5832   0.882   0.406   9.282 -3.2955  0.4645 -0.1689
   46CHL1  H16B 5833   0.890   0.221   9.252 -0.7782 -3.4327  3.2989
   46CHL1   C17 5834   0.720   0.286   9.365  0.0204  1.0788  0.1250
   46CHL1   H17 5835   0.714   0.175   9.364  0.1286  1.0782 -0.6975
   46CHL1   C13 5836   0.713   0.332   9.510  0.3701  0.4835  0.4469
   46CHL1   C18 5837   0.731   0.483   9.519  1.0577  0.6895  0.4875
   46CHL1  H18A 5838   0.747   0.518   9.623  1.4620 -0.3358  0.7868
   46CHL1  H18B 5839   0.821   0.521   9.466 -0.4203  4.3055  0.3265
   46CHL1  H18C 5840   0.644   0.533   9.471  1.8809  1.4380 -0.2628
   46CHL1   C12 5841   0.600   0.275   9.591  0.0249  0.2037  0.3273
   46CHL1  H12A 5842   0.508   0.329   9.560 -0.5179 -0.7802  0.1651
   46CHL1  H12B 5843   0.588   0.165   9.580 -0.0072  0.2559 -0.1731
   46CHL1   C11 5844   0.626   0.304   9.739 -0.7267  0.3103  0.4067
   46CHL1  H11A 5845   0.625   0.415   9.749 -1.3236  0.1936  1.7501
   46CHL1  H11B 5846   0.548   0.260   9.804 -0.1425 -0.9292  0.2928
   46CHL1    C9 5847   0.772   0.266   9.794  0.1743  0.0025  0.2806
   46CHL1    H9 5848   0.770   0.155   9.786  1.0814  0.0130 -0.2396
   46CHL1   C10 5849   0.801   0.290   9.943 -0.2173 -0.3865 -0.5682
   46CHL1   C19 5850   0.754   0.438   9.982 -1.0112  0.2047 -0.0257
   46CHL1  H19A 5851   0.645   0.430   9.964 -1.1139  1.1811  0.1502
   46CHL1  H19B 5852   0.779   0.470  10.085  1.5946  0.8315 -0.7727
   46CHL1  H19C 5853   0.801   0.518   9.922  0.3772  1.5335  2.6610
   46CHL1    C1 5854   0.728   0.181  10.030 -0.1376  0.3751 -0.0142
   46CHL1   H1A 5855   0.622   0.196   9.997 -0.0501  0.3451 -0.3144
   46CHL1   H1B 5856   0.758   0.078  10.000 -0.0984  0.7319 -1.2864
   46CHL1    C2 5857   0.753   0.189  10.176 -0.0425 -0.5627  0.0535
   46CHL1   H2A 5858   0.714   0.094  10.219  1.0592 -0.4507  1.3624
   46CHL1   H2B 5859   0.706   0.273  10.231  1.1106  1.1683 -1.4865
   46CHL1   C20 5860   0.605   0.327   9.266 -0.0662 -0.6993 -0.4339
   46CHL1   H20 5861   0.555   0.413   9.315  1.1338  0.7207 -1.6314
   46CHL1   C21 5862   0.506   0.211   9.253 -0.5449 -0.1145  0.8700
   46CHL1  H21A 5863   0.417   0.230   9.189 -0.1966 -5.1586 -1.6035
   46CHL1  H21B 5864   0.474   0.153   9.342 -0.0588 -2.5764 -0.4673
   46CHL1  H21C 5865   0.570   0.134   9.205 -0.4278  0.8935 -0.6631
   46CHL1   C22 5866   0.659   0.376   9.121 -0.1881 -0.4522 -0.5298
   46CHL1  H22A 5867   0.747   0.443   9.135  0.0181 -0.9553  0.7203
   46CHL1  H22B 5868   0.695   0.285   9.068 -1.2345  1.7288 -5.4591
   46CHL1   C23 5869   0.557   0.452   9.036 -0.5194  0.1723 -0.4265
   46CHL1  H23A 5870   0.459   0.400   9.032  0.3302 -1.5281 -0.2354
   46CHL1  H23B 5871   0.549   0.548   9.090 -0.2218  0.0353 -0.1294
   46CHL1   C24 5872   0.613   0.467   8.897 -0.5736 -0.0066  1.2663
   46CHL1  H24A 5873   0.706   0.525   8.882  0.1687 -1.3358  0.6116
   46CHL1  H24B 5874   0.639   0.368   8.855  0.0949  1.0572 -0.9640
   46CHL1   C25 5875   0.514   0.518   8.793 -0.3559  0.5233  0.3801
   46CHL1   H25 5876   0.425   0.453   8.803 -0.6659  0.6584 -1.1988
   46CHL1   C26 5877   0.475   0.658   8.816  0.3259 -0.3718 -0.5862
   46CHL1  H26A 5878   0.563   0.725   8.826 -0.2241  0.3419 -0.4551
   46CHL1  H26B 5879   0.412   0.700   8.735  0.6938 -0.1451 -0.7545
   46CHL1  H26C 5880   0.422   0.646   8.913  0.6881 -0.0512 -0.3443
   46CHL1   C27 5881   0.573   0.496   8.651  0.5893 -0.7138  0.1877
   46CHL1  H27A 5882   0.676   0.537   8.653 -0.1565  1.3756 -1.0666
   46CHL1  H27B 5883   0.585   0.392   8.612  0.5334  0.3379 -2.9603
   46CHL1  H27C 5884   0.507   0.543   8.575 -0.0306 -0.5213  0.8306
   47CHL1    C3 5885   3.731   3.212  10.066 -0.1755  0.1520  0.2918
   47CHL1    H3 5886   3.811   3.137  10.047  0.7474  1.1319  0.1988
   47CHL1    O3 5887   3.715   3.210  10.208  0.3931  0.3841  0.3057
   47CHL1   H3' 5888   3.654   3.138  10.225 -1.4490  1.9379  0.5818
   47CHL1    C4 5889   3.778   3.354  10.025 -0.2016 -0.0076  0.1005
   47CHL1   H4A 5890   3.718   3.440  10.060 -1.9679 -0.9802 -0.4206
   47CHL1   H4B 5891   3.881   3.369  10.064 -0.0208  0.5859 -0.5639
   47CHL1    C5 5892   3.782   3.373   9.874  0.0464 -0.1224 -0.1321
   47CHL1    C6 5893   3.892   3.424   9.823  0.1282 -0.1835  0.4042
   47CHL1    H6 5894   3.974   3.457   9.889 -0.6377  0.2473  1.1536
   47CHL1    C7 5895   3.912   3.451   9.672 -0.5192 -0.0744 -0.7019
   47CHL1   H7A 5896   3.949   3.554   9.653 -0.6583  0.4823  1.7063
   47CHL1   H7B 5897   3.989   3.378   9.641  1.4900  1.2171  0.9260
   47CHL1    C8 5898   3.787   3.419   9.583  0.0650 -0.0575 -0.3220
   47CHL1    H8 5899   3.720   3.506   9.602  0.8059  0.1318  1.6656
   47CHL1   C14 5900   3.822   3.405   9.441 -0.1118  0.0945 -0.6258
   47CHL1   H14 5901   3.896   3.323   9.427 -0.4907 -0.1604 -1.2146
   47CHL1   C15 5902   3.906   3.516   9.378 -0.6443 -0.0764  0.1251
   47CHL1  H15A 5903   3.872   3.615   9.413  0.3331  0.5035 -0.5335
   47CHL1  H15B 5904   4.012   3.497   9.406  0.5364  3.6632 -1.3227
   47CHL1   C16 5905   3.886   3.503   9.222  0.4230 -0.7036 -0.4412
   47CHL1  H16A 5906   3.868   3.609   9.193  1.1843  0.0242  1.5190
   47CHL1  H16B 5907   3.977   3.463   9.172  0.7290 -1.3423  0.5864
   47CHL1   C17 5908   3.777   3.396   9.208 -0.0312  0.4709 -0.7994
   47CHL1   H17 5909   3.832   3.300   9.215 -1.1111 -0.0197  2.3557
   47CHL1   C13 5910   3.704   3.388   9.344  0.6336 -0.0871 -0.8754
   47CHL1   C18 5911   3.604   3.516   9.350  0.1729 -0.3085 -0.0631
   47CHL1  H18A 5912   3.512   3.486   9.295 -0.0590  0.4145 -0.0713
   47CHL1  H18B 5913   3.573   3.533   9.456  0.6261  1.0726 -0.1386
   47CHL1  H18C 5914   3.645   3.610   9.308 -1.6290  0.4121 -0.2999
   47CHL1   C12 5915   3.631   3.261   9.392  0.1506 -0.0870  0.0114
   47CHL1  H12A 5916   3.540   3.265   9.328 -0.7056 -0.1592  1.1758
   47CHL1  H12B 5917   3.687   3.168   9.371 -1.0570 -0.8962  0.2757
   47CHL1   C11 5918   3.596   3.264   9.543  0.7088 -0.5973  0.1115
   47CHL1  H11A 5919   3.513   3.339   9.546  0.5692 -0.5198 -2.6467
   47CHL1  H11B 5920   3.551   3.169   9.578 -0.2346  0.0484  0.7187
   47CHL1    C9 5921   3.703   3.303   9.641 -0.9474  0.9523 -0.2125
   47CHL1    H9 5922   3.777   3.221   9.632 -1.0531  0.8023  0.2809
   47CHL1   C10 5923   3.661   3.317   9.789 -0.1551 -0.4800  0.3243
   47CHL1   C19 5924   3.551   3.426   9.803  0.9143 -0.6037  0.1471
   47CHL1  H19A 5925   3.528   3.459   9.906 -2.5756 -2.5688  0.1560
   47CHL1  H19B 5926   3.572   3.515   9.740  1.3325  2.8801  4.7448
   47CHL1  H19C 5927   3.458   3.368   9.782  1.1966 -1.3525  0.8871
   47CHL1    C1 5928   3.602   3.187   9.845  1.2541  0.7916 -0.5658
   47CHL1   H1A 5929   3.502   3.167   9.801  0.4332  0.9466  1.1529
   47CHL1   H1B 5930   3.676   3.107   9.824 -1.9913 -2.0221 -2.3775
   47CHL1    C2 5931   3.594   3.187  10.000 -0.0748 -0.1520 -0.5323
   47CHL1   H2A 5932   3.559   3.084  10.025 -1.5892  0.6424  0.7367
   47CHL1   H2B 5933   3.528   3.265  10.041  2.0494  0.3036  2.3657
   47CHL1   C20 5934   3.711   3.407   9.075  0.5223 -0.1021 -0.9621
   47CHL1   H20 5935   3.660   3.505   9.066  1.1893  0.4532  0.8561
   47CHL1   C21 5936   3.609   3.285   9.058 -0.0620  0.4581  0.0886
   47CHL1  H21A 5937   3.519   3.288   9.123  0.0114  1.8940  0.1560
   47CHL1  H21B 5938   3.659   3.187   9.071 -0.9956 -0.1110 -0.4886
   47CHL1  H21C 5939   3.590   3.284   8.948 -0.1319 -0.8618  0.1013
   47CHL1   C22 5940   3.812   3.400   8.951  0.1155 -0.2643 -0.1386
   47CHL1  H22A 5941   3.758   3.384   8.855 -2.8584  0.0145  1.3673
   47CHL1  H22B 5942   3.859   3.500   8.940  0.4137 -0.2983  0.7458
   47CHL1   C23 5943   3.905   3.277   8.959  0.8781 -0.0243  0.7699
   47CHL1  H23A 5944   3.981   3.275   9.040  1.7184 -0.1568 -0.0109
   47CHL1  H23B 5945   3.843   3.186   8.971  1.0225 -0.1314  0.7033
   47CHL1   C24 5946   3.984   3.261   8.825  0.4673 -0.1771 -0.4454
   47CHL1  H24A 5947   4.042   3.166   8.834  4.4265  2.1539  1.9024
   47CHL1  H24B 5948   3.913   3.275   8.741  0.1310  1.4868  0.0824
   47CHL1   C25 5949   4.092   3.373   8.813  0.4640 -0.4226  0.0047
   47CHL1   H25 5950   4.057   3.463   8.868  0.7003 -0.9551  1.0711
   47CHL1   C26 5951   4.228   3.331   8.858  0.5996  0.0887  0.1083
   47CHL1  H26A 5952   4.289   3.424   8.856 -2.3146  2.1469 -1.5905
   47CHL1  H26B 5953   4.283   3.270   8.784 -1.2962  0.6845 -1.8938
   47CHL1  H26C 5954   4.223   3.294   8.963  1.0769  0.3740  0.2375
   47CHL1   C27 5955   4.100   3.402   8.663 -0.7597 -0.2984  0.3420
   47CHL1  H27A 5956   4.012   3.461   8.629 -1.1008 -1.6581 -1.2378
   47CHL1  H27B 5957   4.186   3.471   8.650 -0.3363 -0.7454  0.7224
   47CHL1  H27C 5958   4.117   3.308   8.607 -1.6240 -0.5839  0.5341
   48CHL1    C3 5959   3.986   5.097  10.391 -0.0950 -0.1447 -0.1693
   48CHL1    H3 5960   4.043   5.191  10.404  0.5927 -0.5989  0.1647
   48CHL1    O3 5961   3.948   5.037  10.512 -0.0590  0.3918  0.2991
   48CHL1   H3' 5962   3.880   4.973  10.488 -0.4850  1.5661 -1.8173
   48CHL1    C4 5963   3.856   5.130  10.312 -0.1224 -0.1574  0.6842
   48CHL1   H4A 5964   3.788   5.042  10.308  1.2036 -1.2432  1.2603
   48CHL1   H4B 5965   3.813   5.217  10.366  0.2023 -1.2384  2.8143
   48CHL1    C5 5966   3.882   5.171  10.170 -0.5313  0.5142 -0.0694
   48CHL1    C6 5967   3.826   5.281  10.123  0.5285 -0.2471  0.5589
   48CHL1    H6 5968   3.770   5.345  10.192 -3.3434 -2.1856 -0.5115
   48CHL1    C7 5969   3.856   5.336   9.984 -0.0018 -0.3543  0.0688
   48CHL1   H7A 5970   3.764   5.383   9.945 -0.1166  2.0308  2.9046
   48CHL1   H7B 5971   3.938   5.411   9.992 -0.2047 -0.1013 -0.2016
   48CHL1    C8 5972   3.901   5.224   9.888  0.4327  1.0322 -0.2801
   48CHL1    H8 5973   3.813   5.159   9.874 -0.7845  2.3555  0.9045
   48CHL1   C14 5974   3.948   5.292   9.761 -0.4177 -0.6017  0.8673
   48CHL1   H14 5975   4.039   5.346   9.794 -1.1303  1.2091 -0.0030
   48CHL1   C15 5976   3.857   5.400   9.693 -0.8842 -0.1664 -0.4543
   48CHL1  H15A 5977   3.750   5.380   9.716 -1.1777 -1.8440 -2.9117
   48CHL1  H15B 5978   3.881   5.499   9.739 -1.0184 -0.2990 -0.0934
   48CHL1   C16 5979   3.899   5.394   9.549 -0.1677 -0.3472  0.5070
   48CHL1  H16A 5980   3.805   5.365   9.498 -0.3946  1.5026 -0.2336
   48CHL1  H16B 5981   3.938   5.489   9.505 -0.4915 -0.8729 -0.9858
   48CHL1   C17 5982   4.010   5.281   9.538  0.3590 -0.3941 -0.2235
   48CHL1   H17 5983   4.098   5.342   9.570  0.9953 -0.4828 -1.7255
   48CHL1   C13 5984   3.988   5.190   9.654  0.3922  0.1323  0.2692
   48CHL1   C18 5985   3.871   5.090   9.620  0.2618  0.4287 -0.3178
   48CHL1  H18A 5986   3.843   5.030   9.709 -1.7148  1.5724 -0.1127
   48CHL1  H18B 5987   3.778   5.147   9.596 -0.7960 -0.9209  0.4318
   48CHL1  H18C 5988   3.892   5.027   9.531 -1.3126 -1.6412  0.6735
   48CHL1   C12 5989   4.108   5.106   9.706 -0.1296 -0.3688 -0.5342
   48CHL1  H12A 5990   4.146   5.025   9.640  0.5579 -0.2576 -0.2791
   48CHL1  H12B 5991   4.199   5.169   9.717 -0.3938  0.2085 -1.4768
   48CHL1   C11 5992   4.078   5.042   9.849  0.2977 -0.9363  0.4509
   48CHL1  H11A 5993   4.004   4.964   9.822 -0.6738  1.0451 -3.3805
   48CHL1  H11B 5994   4.171   4.996   9.886  0.5366  0.3223  1.5026
   48CHL1    C9 5995   4.013   5.144   9.956 -0.2032  0.1585  0.5780
   48CHL1    H9 5996   4.090   5.222   9.970  0.2349 -0.4108  1.3930
   48CHL1   C10 5997   3.974   5.082  10.095 -0.8566 -0.9446 -0.2399
   48CHL1   C19 5998   3.912   4.951  10.070  0.2171  0.4597  0.0521
   48CHL1  H19A 5999   3.838   4.945   9.988 -0.6519 -0.3127  0.8660
   48CHL1  H19B 6000   3.991   4.877  10.047  0.5014  0.2315  1.6586
   48CHL1  H19C 6001   3.859   4.922  10.164 -0.5964 -1.5210 -0.9690
   48CHL1    C1 6002   4.110   5.058  10.174 -0.7870 -0.2170 -0.4168
   48CHL1   H1A 6003   4.183   4.992  10.121  0.1496 -1.7074  2.5074
   48CHL1   H1B 6004   4.163   5.153  10.195 -1.2228  0.3866 -1.8688
   48CHL1    C2 6005   4.085   5.002  10.315  1.0949  0.3434 -0.2918
   48CHL1   H2A 6006   4.175   4.994  10.379 -0.4346 -3.0183  1.7411
   48CHL1   H2B 6007   4.050   4.897  10.301  1.1089  0.3766 -0.5848
   48CHL1   C20 6008   4.040   5.227   9.398 -0.3298  0.4183 -0.0534
   48CHL1   H20 6009   4.081   5.125   9.411 -0.8950 -0.1468 -2.2643
   48CHL1   C21 6010   4.139   5.326   9.339 -0.1143  0.0698 -0.1351
   48CHL1  H21A 6011   4.245   5.314   9.370 -0.8282 -0.3620  2.3187
   48CHL1  H21B 6012   4.108   5.429   9.367 -1.4863 -0.3675  0.0548
   48CHL1  H21C 6013   4.126   5.314   9.229  1.5804 -1.2240 -0.2378
   48CHL1   C22 6014   3.907   5.215   9.314 -0.6717  0.1825 -0.3725
   48CHL1  H22A 6015   3.831   5.165   9.379 -1.2978  1.3497 -0.1826
   48CHL1  H22B 6016   3.864   5.315   9.290 -1.0358  0.0106 -0.4516
   48CHL1   C23 6017   3.931   5.124   9.194  0.0307 -0.1988 -0.5283
   48CHL1  H23A 6018   4.023   5.149   9.138 -0.0272 -1.0022 -0.9993
   48CHL1  H23B 6019   3.939   5.020   9.231 -0.0791  0.0290  0.1478
   48CHL1   C24 6020   3.818   5.119   9.090  1.0283 -0.0842 -0.2223
   48CHL1  H24A 6021   3.835   5.020   9.043  0.3572 -0.6590  0.7120
   48CHL1  H24B 6022   3.719   5.118   9.140  0.8063 -4.8316 -0.3479
   48CHL1   C25 6023   3.818   5.233   8.989 -0.1559  0.4615  0.5664
   48CHL1   H25 6024   3.824   5.327   9.047 -0.1238 -1.1710  3.3863
   48CHL1   C26 6025   3.948   5.224   8.902 -0.4074  0.4434  0.6919
   48CHL1  H26A 6026   3.952   5.120   8.863  4.3533  0.5510  0.3087
   48CHL1  H26B 6027   3.942   5.299   8.820 -0.2127 -0.4247 -0.1357
   48CHL1  H26C 6028   4.039   5.251   8.959 -0.1924  3.7253 -0.9706
   48CHL1   C27 6029   3.691   5.211   8.907  0.6546  0.0240  0.4497
   48CHL1  H27A 6030   3.600   5.221   8.970 -0.1174 -0.8382 -0.4984
   48CHL1  H27B 6031   3.680   5.290   8.830  0.0768 -0.4794  0.0088
   48CHL1  H27C 6032   3.700   5.106   8.873 -3.4730 -0.4446  0.3197
   49CHL1    C3 6033   0.897   5.149  10.228 -0.2457  0.0071  0.5735
   49CHL1    H3 6034   0.926   5.047  10.194  1.5530 -0.2785  2.7004
   49CHL1    O3 6035   0.919   5.149  10.367 -0.4822 -0.0460 -0.3792
   49CHL1   H3' 6036   0.875   5.227  10.402  0.2529  0.0749  0.2927
   49CHL1    C4 6037   0.978   5.262  10.162  0.5297 -0.4225 -0.1042
   49CHL1   H4A 6038   0.946   5.351  10.220 -0.3719  0.4229 -1.8021
   49CHL1   H4B 6039   1.082   5.238  10.191 -0.1356 -1.1956  1.7679
   49CHL1    C5 6040   0.955   5.266  10.015  0.1499  0.1890  0.7011
   49CHL1    C6 6041   1.057   5.262   9.928  0.0313  0.4760 -0.4425
   49CHL1    H6 6042   1.161   5.259   9.966 -0.2743  0.5080  0.4331
   49CHL1    C7 6043   1.040   5.262   9.780 -0.4383 -0.1673  0.1000
   49CHL1   H7A 6044   1.110   5.333   9.732 -0.5750  0.2987  0.5850
   49CHL1   H7B 6045   1.051   5.158   9.742 -1.6665  0.4209 -2.0323
   49CHL1    C8 6046   0.904   5.312   9.732 -0.3593 -0.2835 -0.1732
   49CHL1    H8 6047   0.903   5.423   9.744  0.4006 -0.1666 -1.0643
   49CHL1   C14 6048   0.884   5.294   9.583  0.4090  0.1408 -0.4267
   49CHL1   H14 6049   0.888   5.184   9.571 -2.8859 -0.4494  2.5689
   49CHL1   C15 6050   0.983   5.360   9.473  0.2032  0.0594 -0.2137
   49CHL1  H15A 6051   1.002   5.467   9.496  0.0619 -0.2732  1.5301
   49CHL1  H15B 6052   1.086   5.319   9.475  0.9238  1.8106  0.4991
   49CHL1   C16 6053   0.906   5.344   9.341 -0.7176 -0.1657  0.1283
   49CHL1  H16A 6054   0.915   5.437   9.281  1.9644 -0.1429  0.4495
   49CHL1  H16B 6055   0.958   5.266   9.283 -0.9323  0.9218 -1.5862
   49CHL1   C17 6056   0.765   5.291   9.377 -0.7576 -0.7941  0.0182
   49CHL1   H17 6057   0.751   5.183   9.356  1.9452 -1.4113  0.9806
   49CHL1   C13 6058   0.745   5.316   9.525  0.5802 -0.2018  0.5852
   49CHL1   C18 6059   0.707   5.464   9.536 -0.0329  0.3461  0.0451
   49CHL1  H18A 6060   0.774   5.533   9.480 -1.7777 -0.2734 -3.0374
   49CHL1  H18B 6061   0.608   5.480   9.489  0.8204 -1.0795 -2.4190
   49CHL1  H18C 6062   0.714   5.489   9.644  2.1901 -0.2419  0.0799
   49CHL1   C12 6063   0.641   5.232   9.605  0.5400  0.2491 -0.9116
   49CHL1  H12A 6064   0.534   5.245   9.577  0.2181  1.0383  0.5807
   49CHL1  H12B 6065   0.674   5.127   9.591  1.1551  0.1358  1.0401
   49CHL1   C11 6066   0.654   5.256   9.762  0.4422  0.5646  0.0395
   49CHL1  H11A 6067   0.608   5.355   9.783 -0.1366  0.1208  0.9518
   49CHL1  H11B 6068   0.576   5.188   9.804 -0.3546  1.1794 -0.4029
   49CHL1    C9 6069   0.796   5.241   9.816 -0.4983  0.5207 -0.0717
   49CHL1    H9 6070   0.825   5.134   9.815 -0.1311  0.5917  1.4858
   49CHL1   C10 6071   0.804   5.265   9.969 -0.8537 -0.1208 -0.0277
   49CHL1   C19 6072   0.754   5.407  10.004 -1.0674  0.2385  0.5494
   49CHL1  H19A 6073   0.816   5.485   9.955 -0.4132  0.0172  1.0043
   49CHL1  H19B 6074   0.648   5.426   9.975 -0.3877 -1.1421 -3.4491
   49CHL1  H19C 6075   0.772   5.425  10.112 -0.3652  1.2278  0.2782
   49CHL1    C1 6076   0.721   5.161  10.046  0.6307 -0.0499 -0.4910
   49CHL1   H1A 6077   0.613   5.181  10.029  0.3303 -1.7840 -0.7783
   49CHL1   H1B 6078   0.733   5.057  10.007  1.1010 -0.4765  0.7570
   49CHL1    C2 6079   0.743   5.152  10.198 -0.7530  0.5891 -0.0582
   49CHL1   H2A 6080   0.695   5.066  10.249 -0.4802  0.7717  0.5150
   49CHL1   H2B 6081   0.698   5.243  10.242  0.3487  1.3857 -0.5236
   49CHL1   C20 6082   0.666   5.352   9.285  0.0769 -0.0912 -0.3246
   49CHL1   H20 6083   0.653   5.462   9.286 -1.0795 -0.0953 -3.6427
   49CHL1   C21 6084   0.520   5.297   9.322  0.6068  0.7150  0.0492
   49CHL1  H21A 6085   0.448   5.297   9.238  1.2538 -0.2438 -0.5365
   49CHL1  H21B 6086   0.477   5.362   9.400  0.0146  1.0431 -0.5428
   49CHL1  H21C 6087   0.530   5.191   9.354  0.7101  0.3622 -1.1036
   49CHL1   C22 6088   0.698   5.304   9.149  0.2426  0.1853  0.4603
   49CHL1  H22A 6089   0.803   5.287   9.117 -0.4765 -1.4613 -1.2026
   49CHL1  H22B 6090   0.656   5.201   9.149  0.7188 -0.0114  0.7344
   49CHL1   C23 6091   0.643   5.395   9.042  0.3231  0.5204 -0.1027
   49CHL1  H23A 6092   0.548   5.446   9.069  1.6107  2.6235  0.7221
   49CHL1  H23B 6093   0.701   5.486   9.015  2.3239 -0.5716  0.3127
   49CHL1   C24 6094   0.635   5.320   8.901  0.1521 -0.4052 -0.2229
   49CHL1  H24A 6095   0.741   5.294   8.881  0.9752  2.6637 -0.2886
   49CHL1  H24B 6096   0.594   5.217   8.910  1.3574 -0.9064 -0.2531
   49CHL1   C25 6097   0.573   5.392   8.781  0.0654  0.0019 -0.3390
   49CHL1   H25 6098   0.599   5.342   8.685  2.1807 -1.8757  1.0867
   49CHL1   C26 6099   0.419   5.381   8.802 -0.1945 -0.9772  0.2804
   49CHL1  H26A 6100   0.358   5.440   8.730  0.5333  0.8630  1.1082
   49CHL1  H26B 6101   0.392   5.273   8.801 -1.1735 -0.7499 -0.8050
   49CHL1  H26C 6102   0.387   5.419   8.901 -1.3546  1.9366 -1.0884
   49CHL1   C27 6103   0.625   5.534   8.766 -0.3302 -0.0178 -0.6093
   49CHL1  H27A 6104   0.736   5.526   8.768 -0.3541 -0.6076 -1.2670
   49CHL1  H27B 6105   0.590   5.585   8.673 -2.9609  0.9249  0.7803
   49CHL1  H27C 6106   0.602   5.599   8.853  0.7378  0.1926 -0.4753
   50CHL1    C3 6107   5.916   3.420  10.164 -0.4255 -0.3218  0.0497
   50CHL1    H3 6108   5.817   3.470  10.153 -0.2579 -0.3925 -2.1433
   50CHL1    O3 6109   5.973   3.429  10.296  0.2419 -0.2204  0.2445
   50CHL1   H3' 6110   6.022   3.348  10.309  2.1460  0.6835 -0.8550
   50CHL1    C4 6111   5.887   3.272  10.131 -0.7228 -0.0186 -0.2507
   50CHL1   H4A 6112   5.977   3.213  10.156  1.7176  2.6112 -2.2155
   50CHL1   H4B 6113   5.800   3.252  10.197 -1.6425 -0.8112 -1.6409
   50CHL1    C5 6114   5.848   3.245   9.989 -0.1996  0.8984  0.4664
   50CHL1    C6 6115   5.730   3.189   9.955  0.1662 -0.4290 -0.2952
   50CHL1    H6 6116   5.661   3.165  10.037 -0.4862  2.2305  0.0346
   50CHL1    C7 6117   5.684   3.148   9.817  0.1664  0.1039 -0.4253
   50CHL1   H7A 6118   5.633   3.050   9.809 -0.7239  0.4424  0.8084
   50CHL1   H7B 6119   5.608   3.217   9.773 -0.6264  0.7475  1.8202
   50CHL1    C8 6120   5.810   3.153   9.724 -0.4449 -0.0419  0.3463
   50CHL1    H8 6121   5.879   3.070   9.751  1.8785  1.6364 -0.1860
   50CHL1   C14 6122   5.759   3.135   9.582  0.2735 -0.4151  0.1809
   50CHL1   H14 6123   5.708   3.232   9.566  1.6777  1.0148  3.3304
   50CHL1   C15 6124   5.673   3.018   9.546  0.6823  0.1420 -0.3610
   50CHL1  H15A 6125   5.695   2.924   9.601 -2.0075 -0.7390 -0.6137
   50CHL1  H15B 6126   5.566   3.034   9.574  0.4682  0.5515 -1.3730
   50CHL1   C16 6127   5.685   2.995   9.391 -0.4101 -0.1947 -0.6906
   50CHL1  H16A 6128   5.732   2.896   9.372  0.9789  0.1269  0.7926
   50CHL1  H16B 6129   5.590   3.017   9.338 -0.0405 -1.7421 -2.0745
   50CHL1   C17 6130   5.793   3.105   9.348  1.1689  0.1445 -0.3290
   50CHL1   H17 6131   5.731   3.194   9.323 -0.4310 -0.6402  0.6683
   50CHL1   C13 6132   5.868   3.144   9.476  0.3389 -0.5783 -0.8700
   50CHL1   C18 6133   5.978   3.030   9.511 -0.5023 -0.5948  0.0370
   50CHL1  H18A 6134   5.931   2.930   9.502 -0.9791 -0.2386 -1.7854
   50CHL1  H18B 6135   6.058   3.034   9.435  0.3054  0.7372  0.9035
   50CHL1  H18C 6136   6.035   3.055   9.603 -0.7737 -0.8801  0.2860
   50CHL1   C12 6137   5.929   3.285   9.484 -0.1631 -0.2423 -0.3941
   50CHL1  H12A 6138   6.000   3.310   9.403  1.0878 -0.6735  0.5303
   50CHL1  H12B 6139   5.845   3.357   9.475  0.9662  0.9813 -1.3885
   50CHL1   C11 6140   5.991   3.318   9.627  0.0309 -0.0539  0.2165
   50CHL1  H11A 6141   6.088   3.265   9.634  0.7896  0.7817 -2.5739
   50CHL1  H11B 6142   6.013   3.426   9.641  3.5665 -0.8371  1.6652
   50CHL1    C9 6143   5.895   3.277   9.745 -0.0726 -0.1339  0.3172
   50CHL1    H9 6144   5.818   3.357   9.743  2.2682  2.2207 -0.6192
   50CHL1   C10 6145   5.955   3.305   9.890 -0.0219  1.3178 -0.0459
   50CHL1   C19 6146   6.100   3.243   9.904  0.0543  0.8332 -0.1908
   50CHL1  H19A 6147   6.111   3.144   9.855  2.3515  0.0050  1.7875
   50CHL1  H19B 6148   6.185   3.302   9.862  0.6413 -0.3884 -0.7459
   50CHL1  H19C 6149   6.127   3.204  10.005 -2.2539 -1.3407 -0.3078
   50CHL1    C1 6150   5.965   3.459   9.918  0.5678 -0.4120 -0.3292
   50CHL1   H1A 6151   6.045   3.493   9.849  0.3038  0.2209 -0.3413
   50CHL1   H1B 6152   5.873   3.515   9.890 -1.5103 -2.4117  2.0533
   50CHL1    C2 6153   6.011   3.490  10.066 -0.4279 -0.2902 -0.9620
   50CHL1   H2A 6154   6.011   3.596  10.101 -1.2354 -1.0655  1.6194
   50CHL1   H2B 6155   6.112   3.448  10.081 -0.8661 -1.0640 -0.0690
   50CHL1   C20 6156   5.878   3.066   9.227 -0.0912 -0.3573  0.4732
   50CHL1   H20 6157   5.934   2.980   9.270 -1.9308 -0.8494  1.9936
   50CHL1   C21 6158   5.972   3.180   9.183  0.3007  0.2440  0.7056
   50CHL1  H21A 6159   6.004   3.144   9.083 -0.9043 -1.8477  1.0078
   50CHL1  H21B 6160   6.056   3.198   9.253  0.3229  1.3232  0.4257
   50CHL1  H21C 6161   5.911   3.271   9.165  0.3798 -0.1394 -1.9589
   50CHL1   C22 6162   5.788   3.021   9.110 -0.6915 -0.1010  0.1352
   50CHL1  H22A 6163   5.853   2.997   9.023  1.2344  0.1217  1.4509
   50CHL1  H22B 6164   5.732   2.931   9.142  1.1682 -1.5329 -0.4838
   50CHL1   C23 6165   5.679   3.118   9.062 -0.2294 -0.4490  0.3516
   50CHL1  H23A 6166   5.627   3.140   9.157 -2.4993 -0.0256 -0.9140
   50CHL1  H23B 6167   5.708   3.213   9.012 -2.6794  0.0913 -0.1868
   50CHL1   C24 6168   5.585   3.041   8.963  0.1533  0.2231 -0.4435
   50CHL1  H24A 6169   5.651   3.015   8.877  1.7255  0.6643  0.5873
   50CHL1  H24B 6170   5.560   2.941   9.005 -0.0096 -0.0673 -1.2270
   50CHL1   C25 6171   5.456   3.126   8.932 -0.4500  0.2521  0.5444
   50CHL1   H25 6172   5.423   3.181   9.023 -1.9295  1.9571 -0.9493
   50CHL1   C26 6173   5.480   3.233   8.824  0.3688 -0.5728 -0.4225
   50CHL1  H26A 6174   5.391   3.291   8.791  0.6769  1.5167  2.1777
   50CHL1  H26B 6175   5.553   3.309   8.857  1.7543 -1.5941 -1.0310
   50CHL1  H26C 6176   5.526   3.177   8.740 -1.7422 -2.0607 -0.6746
   50CHL1   C27 6177   5.332   3.042   8.892 -0.6943  0.5667  0.3072
   50CHL1  H27A 6178   5.288   3.007   8.988 -2.7866  0.7883 -0.5187
   50CHL1  H27B 6179   5.257   3.113   8.850  2.0557  3.7079  0.2375
   50CHL1  H27C 6180   5.359   2.965   8.816  0.4020  2.7750 -1.6763
   51CHL1    C3 6181   6.136   4.025  10.199 -0.0517  0.7928 -0.0352
   51CHL1    H3 6182   6.108   4.125  10.157  0.3648  1.2287  0.6967
   51CHL1    O3 6183   6.113   4.016  10.341 -0.0610  0.4478  0.0530
   51CHL1   H3' 6184   6.196   3.984  10.377  0.0597  1.3541  0.6112
   51CHL1    C4 6185   6.046   3.923  10.131 -0.2076  0.0633  0.1875
   51CHL1   H4A 6186   6.055   3.831  10.194  0.0102  0.0676  0.1610
   51CHL1   H4B 6187   5.945   3.965  10.154 -0.3158 -1.2506  2.5034
   51CHL1    C5 6188   6.075   3.909   9.984  0.0435 -0.0607 -0.3351
   51CHL1    C6 6189   5.979   3.925   9.892  0.2432  0.4794  0.7209
   51CHL1    H6 6190   5.877   3.943   9.929 -0.4391 -2.4061  0.4332
   51CHL1    C7 6191   5.985   3.884   9.745  0.2003  0.1833  0.3610
   51CHL1   H7A 6192   5.902   3.821   9.709 -1.1328  2.3532 -0.5271
   51CHL1   H7B 6193   5.984   3.973   9.678 -1.0990 -0.6700 -0.7817
   51CHL1    C8 6194   6.113   3.801   9.724 -0.1136  0.8755 -0.3020
   51CHL1    H8 6195   6.094   3.700   9.766 -0.7150  1.5077  1.0090
   51CHL1   C14 6196   6.146   3.792   9.576  0.5159 -0.2481 -0.4886
   51CHL1   H14 6197   6.158   3.897   9.541  0.6658  0.1958  0.8389
   51CHL1   C15 6198   6.030   3.739   9.485 -0.0694 -0.0646 -0.2851
   51CHL1  H15A 6199   5.970   3.660   9.535  1.0485 -1.9904 -1.8039
   51CHL1  H15B 6200   5.968   3.825   9.452  0.2123 -1.3477 -4.9816
   51CHL1   C16 6201   6.103   3.687   9.362 -0.4816  0.0145  0.2739
   51CHL1  H16A 6202   6.074   3.581   9.346 -4.9225  0.9537  0.5463
   51CHL1  H16B 6203   6.068   3.736   9.268  0.0708 -2.3939 -1.2833
   51CHL1   C17 6204   6.259   3.710   9.379 -0.9727 -1.1236 -0.0337
   51CHL1   H17 6205   6.276   3.804   9.323 -2.0673  0.2062  1.7772
   51CHL1   C13 6206   6.279   3.722   9.529  0.3959 -0.1771 -0.3832
   51CHL1   C18 6207   6.276   3.574   9.592 -0.0538  0.1812  0.0934
   51CHL1  H18A 6208   6.207   3.510   9.533 -0.6048  0.3202  0.5700
   51CHL1  H18B 6209   6.367   3.516   9.567 -0.4223 -0.0024 -0.8796
   51CHL1  H18C 6210   6.259   3.563   9.701 -1.5389 -0.2542 -0.1526
   51CHL1   C12 6211   6.396   3.799   9.591  0.3846 -0.6432  0.0880
   51CHL1  H12A 6212   6.496   3.755   9.573  0.0969 -1.8157  1.2191
   51CHL1  H12B 6213   6.380   3.898   9.543 -1.7718  0.6132  3.0512
   51CHL1   C11 6214   6.376   3.820   9.742 -0.0199  0.3231  0.0779
   51CHL1  H11A 6215   6.408   3.726   9.792  2.1550  1.5685  1.1974
   51CHL1  H11B 6216   6.455   3.891   9.773  0.7930  0.0189 -1.2435
   51CHL1    C9 6217   6.235   3.871   9.791 -0.6783  0.6002  0.6348
   51CHL1    H9 6218   6.221   3.975   9.754 -1.2970  0.3484  0.1433
   51CHL1   C10 6219   6.226   3.876   9.945  1.4399  0.8727  0.0716
   51CHL1   C19 6220   6.258   3.734   9.996 -0.1620  0.0285 -0.1742
   51CHL1  H19A 6221   6.366   3.709   9.996 -0.3550 -2.1465  4.7955
   51CHL1  H19B 6222   6.234   3.726  10.105 -1.8245  1.2803 -0.4043
   51CHL1  H19C 6223   6.197   3.653   9.950  0.2268 -0.4536  0.1561
   51CHL1    C1 6224   6.319   3.973  10.011 -0.4064 -0.5721  0.0939
   51CHL1   H1A 6225   6.421   3.931  10.005  0.6624  1.8381  0.3718
   51CHL1   H1B 6226   6.318   4.072   9.961  0.4085 -1.1304 -1.0657
   51CHL1    C2 6227   6.285   3.988  10.166  1.0138 -0.0475 -0.6282
   51CHL1   H2A 6228   6.354   4.060  10.215 -0.8349  0.4555  1.3666
   51CHL1   H2B 6229   6.309   3.891  10.214  0.2882 -0.0865 -0.3309
   51CHL1   C20 6230   6.352   3.603   9.313  0.2242  0.0891  0.0464
   51CHL1   H20 6231   6.327   3.497   9.335 -1.3621  0.0089 -1.8114
   51CHL1   C21 6232   6.510   3.630   9.336  0.1523 -0.6279  0.3050
   51CHL1  H21A 6233   6.533   3.734   9.303  0.8899 -0.8672  0.0481
   51CHL1  H21B 6234   6.569   3.565   9.269  1.0609  0.2935  0.1911
   51CHL1  H21C 6235   6.543   3.616   9.441  1.7705  1.6360  0.1697
   51CHL1   C22 6236   6.339   3.601   9.153 -0.0600 -0.7563 -0.1061
   51CHL1  H22A 6237   6.308   3.700   9.114 -1.5666 -2.3858 -3.5595
   51CHL1  H22B 6238   6.436   3.573   9.107 -0.5958  0.4139 -2.0455
   51CHL1   C23 6239   6.236   3.505   9.092 -0.8660 -0.3463  0.7400
   51CHL1  H23A 6240   6.279   3.403   9.100 -0.9967 -0.3643  1.2298
   51CHL1  H23B 6241   6.137   3.518   9.140 -0.0125  2.1804  1.9867
   51CHL1   C24 6242   6.223   3.529   8.940 -0.2969  0.4872  0.3494
   51CHL1  H24A 6243   6.202   3.634   8.913  1.7593  0.8193 -0.0889
   51CHL1  H24B 6244   6.326   3.514   8.901 -0.5262 -1.1561  0.3093
   51CHL1   C25 6245   6.135   3.426   8.870  0.1608  0.1573 -0.4821
   51CHL1   H25 6246   6.134   3.337   8.938 -0.0153 -1.2217 -2.2268
   51CHL1   C26 6247   5.990   3.476   8.852  0.0830 -0.9519 -0.3047
   51CHL1  H26A 6248   5.992   3.556   8.775 -0.5936 -0.4986  0.1263
   51CHL1  H26B 6249   5.917   3.400   8.816  0.0393 -1.3692  0.6179
   51CHL1  H26C 6250   5.946   3.506   8.950  0.8602  0.0925 -0.2611
   51CHL1   C27 6251   6.200   3.377   8.738 -0.3983  0.0672 -0.2430
   51CHL1  H27A 6252   6.140   3.300   8.684 -0.8926  0.9822 -1.0260
   51CHL1  H27B 6253   6.211   3.464   8.670 -1.0656 -0.0282 -0.4798
   51CHL1  H27C 6254   6.304   3.340   8.748  0.0085  0.7676 -1.5778
   52CHL1    C3 6255   1.896   1.749  10.303  0.0150 -0.5208 -0.2174
   52CHL1    H3 6256   1.868   1.853  10.276  0.8383 -0.1519  0.3038
   52CHL1    O3 6257   1.929   1.727  10.441 -0.4342  0.7174 -0.1939
   52CHL1   H3' 6258   2.020   1.757  10.449 -0.8606  1.8894  0.5749
   52CHL1    C4 6259   1.769   1.668  10.265  0.0587 -0.1435  0.2126
   52CHL1   H4A 6260   1.787   1.562  10.296 -0.7639 -0.1589  0.6645
   52CHL1   H4B 6261   1.688   1.713  10.327 -1.3514 -0.5854 -1.2443
   52CHL1    C5 6262   1.736   1.679  10.119 -0.3183  0.4684 -0.8396
   52CHL1    C6 6263   1.612   1.726  10.090  0.2294  0.1902 -0.0817
   52CHL1    H6 6264   1.540   1.747  10.171 -1.2177  3.6211 -2.0366
   52CHL1    C7 6265   1.563   1.726   9.950  0.0042  1.0801 -0.3850
   52CHL1   H7A 6266   1.462   1.685   9.927  0.3939  1.5280 -3.3899
   52CHL1   H7B 6267   1.536   1.830   9.922  0.6276  1.2234 -0.4644
   52CHL1    C8 6268   1.656   1.647   9.850  0.7930  0.6918  0.3275
   52CHL1    H8 6269   1.624   1.540   9.853 -1.3464  1.2830 -0.1666
   52CHL1   C14 6270   1.625   1.692   9.707 -0.2062  0.4121 -0.4199
   52CHL1   H14 6271   1.654   1.799   9.720  3.0106 -0.5366  1.2819
   52CHL1   C15 6272   1.478   1.674   9.659  0.1305 -0.1411 -0.2915
   52CHL1  H15A 6273   1.451   1.568   9.679 -1.1691  0.2516  0.1488
   52CHL1  H15B 6274   1.408   1.744   9.708 -2.0178 -1.5374 -1.2117
   52CHL1   C16 6275   1.492   1.689   9.502  0.0924  0.2330  0.2964
   52CHL1  H16A 6276   1.460   1.587   9.471  1.8747  0.3248 -2.1378
   52CHL1  H16B 6277   1.447   1.779   9.453  0.6200  0.0175 -0.6187
   52CHL1   C17 6278   1.645   1.705   9.474 -0.0933  0.1615 -0.4374
   52CHL1   H17 6279   1.670   1.813   9.473  1.9060 -0.2569 -0.9028
   52CHL1   C13 6280   1.717   1.642   9.595 -0.0979 -0.0779  0.2421
   52CHL1   C18 6281   1.707   1.487   9.590  0.0816 -0.8861  1.0497
   52CHL1  H18A 6282   1.764   1.458   9.499 -3.7632  0.3845 -2.0423
   52CHL1  H18B 6283   1.757   1.436   9.675 -0.3383 -2.1179  0.5834
   52CHL1  H18C 6284   1.604   1.447   9.584 -1.5816  3.1152 -1.3506
   52CHL1   C12 6285   1.861   1.688   9.625 -0.4004 -0.3865  0.0884
   52CHL1  H12A 6286   1.936   1.658   9.548 -0.0128 -2.1069  1.0911
   52CHL1  H12B 6287   1.868   1.799   9.630 -0.5752 -0.3771  0.1138
   52CHL1   C11 6288   1.905   1.645   9.769 -0.5059 -0.9050  0.0254
   52CHL1  H11A 6289   1.914   1.534   9.768 -2.2836 -1.0705 -0.2493
   52CHL1  H11B 6290   2.009   1.683   9.777 -0.9989  0.6130 -0.4854
   52CHL1    C9 6291   1.801   1.681   9.879 -0.4670 -0.1078 -0.2814
   52CHL1    H9 6292   1.796   1.792   9.876 -0.3171 -0.0954 -0.0736
   52CHL1   C10 6293   1.840   1.634  10.020 -0.1724 -0.1815 -0.3609
   52CHL1   C19 6294   1.856   1.480  10.020 -0.5687 -0.4266 -0.1961
   52CHL1  H19A 6295   1.758   1.439   9.985 -0.9580 -0.0945  0.4786
   52CHL1  H19B 6296   1.943   1.448   9.960  1.4245  2.8348  0.6993
   52CHL1  H19C 6297   1.873   1.442  10.123 -1.0163  0.7381  0.3330
   52CHL1    C1 6298   1.968   1.705  10.065 -0.5531  0.1136 -0.4389
   52CHL1   H1A 6299   2.050   1.655  10.008 -2.5463 -1.8195 -1.7723
   52CHL1   H1B 6300   1.958   1.814  10.049  1.4133  0.6547  1.5203
   52CHL1    C2 6301   2.007   1.688  10.215  0.5687  0.2244  0.3285
   52CHL1   H2A 6302   2.108   1.730  10.235  0.8029  0.1355 -0.6216
   52CHL1   H2B 6303   2.010   1.582  10.247 -0.9294  0.1789  0.3539
   52CHL1   C20 6304   1.679   1.658   9.329 -0.2237 -0.4732  0.4483
   52CHL1   H20 6305   1.673   1.547   9.323 -0.5439 -0.5348  1.6689
   52CHL1   C21 6306   1.827   1.707   9.293 -0.1474 -0.0025  0.4838
   52CHL1  H21A 6307   1.849   1.690   9.186  0.6249  1.5155  0.3710
   52CHL1  H21B 6308   1.906   1.643   9.339  0.0418 -0.7627 -0.8580
   52CHL1  H21C 6309   1.840   1.814   9.320 -1.2655  0.3436 -0.2973
   52CHL1   C22 6310   1.578   1.709   9.223 -0.1155  0.2227 -0.5228
   52CHL1  H22A 6311   1.475   1.677   9.252  0.8397 -0.0518  3.0670
   52CHL1  H22B 6312   1.579   1.820   9.220 -0.8741  0.2703  0.5033
   52CHL1   C23 6313   1.614   1.664   9.077 -0.0637  0.0012 -0.8365
   52CHL1  H23A 6314   1.531   1.713   9.023 -1.0027  0.9870  1.3591
   52CHL1  H23B 6315   1.714   1.697   9.040 -0.4857  1.2289 -0.9278
   52CHL1   C24 6316   1.605   1.514   9.052  0.1781 -0.4540  0.5055
   52CHL1  H24A 6317   1.655   1.468   9.140  0.9932 -1.6419 -0.5563
   52CHL1  H24B 6318   1.500   1.477   9.049  0.5322 -1.4305 -0.3125
   52CHL1   C25 6319   1.683   1.458   8.938 -0.5503 -0.7154  0.2238
   52CHL1   H25 6320   1.791   1.464   8.962  0.0868 -2.0823 -2.0565
   52CHL1   C26 6321   1.653   1.300   8.913  0.2851  0.0170 -0.1122
   52CHL1  H26A 6322   1.657   1.251   9.013 -0.4468  2.2617  1.0833
   52CHL1  H26B 6323   1.554   1.287   8.865  1.4895 -1.9060 -2.2720
   52CHL1  H26C 6324   1.723   1.251   8.843  1.2161  0.2013  0.6701
   52CHL1   C27 6325   1.666   1.540   8.805  0.2200 -0.1487 -0.1463
   52CHL1  H27A 6326   1.562   1.543   8.766 -0.1318  0.4440  0.7988
   52CHL1  H27B 6327   1.701   1.644   8.821  0.3740 -0.2239  0.0044
   52CHL1  H27C 6328   1.732   1.488   8.733 -1.8455 -1.1824 -1.3663
   53CHL1    C3 6329   2.383   1.904  10.034 -0.1124  0.3786  0.6155
   53CHL1    H3 6330   2.278   1.876  10.058 -0.1253 -0.4948 -0.3747
   53CHL1    O3 6331   2.442   1.921  10.163  0.8107 -0.2389 -0.4640
   53CHL1   H3' 6332   2.464   1.831  10.191  1.6052  0.0838 -0.0219
   53CHL1    C4 6333   2.457   1.786   9.958  0.1245 -0.1204  1.0096
   53CHL1   H4A 6334   2.564   1.814   9.953 -0.3773  1.8167 -0.3048
   53CHL1   H4B 6335   2.432   1.690  10.008  0.5299 -0.4596  0.5807
   53CHL1    C5 6336   2.408   1.771   9.814  0.6544  0.5352  0.5778
   53CHL1    C6 6337   2.365   1.650   9.763 -0.0689 -0.5964 -0.0934
   53CHL1    H6 6338   2.380   1.564   9.830  1.5543 -0.6787 -0.5127
   53CHL1    C7 6339   2.321   1.611   9.627  0.8457 -0.4048  0.5644
   53CHL1   H7A 6340   2.376   1.523   9.587 -0.6693 -2.0576  1.9322
   53CHL1   H7B 6341   2.214   1.587   9.647  1.3485 -1.4387  2.1931
   53CHL1    C8 6342   2.324   1.737   9.533 -0.2213 -0.1608  0.3595
   53CHL1    H8 6343   2.428   1.735   9.493  0.1281 -1.0668  1.2625
   53CHL1   C14 6344   2.227   1.713   9.417 -0.2247 -1.2092 -0.0601
   53CHL1   H14 6345   2.123   1.735   9.450 -0.3407 -0.1190 -1.0785
   53CHL1   C15 6346   2.226   1.581   9.334  0.3492  0.5820  0.2163
   53CHL1  H15A 6347   2.328   1.539   9.322 -0.4588 -1.1722 -1.1258
   53CHL1  H15B 6348   2.159   1.512   9.390  1.1357  0.8466  1.5208
   53CHL1   C16 6349   2.161   1.616   9.198  1.3570  0.4517 -0.7309
   53CHL1  H16A 6350   2.221   1.567   9.118  0.7636 -1.0563 -0.2837
   53CHL1  H16B 6351   2.057   1.578   9.186  0.6537  0.9606  2.8001
   53CHL1   C17 6352   2.158   1.772   9.189  0.3003  0.5942 -0.4149
   53CHL1   H17 6353   2.054   1.800   9.216 -0.1744 -1.1004 -0.3624
   53CHL1   C13 6354   2.249   1.824   9.305 -0.2281  0.7922  1.0918
   53CHL1   C18 6355   2.402   1.803   9.252 -0.6659 -0.6248  0.0790
   53CHL1  H18A 6356   2.472   1.838   9.331  3.1321 -0.6595 -2.9822
   53CHL1  H18B 6357   2.424   1.697   9.226  0.2036 -0.8492  1.5853
   53CHL1  H18C 6358   2.433   1.872   9.171  1.8757 -0.5029  1.0464
   53CHL1   C12 6359   2.226   1.966   9.365 -0.2907 -0.0279 -0.1933
   53CHL1  H12A 6360   2.257   2.045   9.294 -0.3377  0.5479  0.4101
   53CHL1  H12B 6361   2.119   1.960   9.396 -0.5738 -1.1046 -1.3397
   53CHL1   C11 6362   2.314   1.985   9.494  0.1005  0.3952  0.7106
   53CHL1  H11A 6363   2.419   2.002   9.462 -0.6051  2.1670 -0.8798
   53CHL1  H11B 6364   2.284   2.075   9.551  1.6164  0.7813  0.9446
   53CHL1    C9 6365   2.305   1.868   9.596  0.3950 -0.5451 -0.1645
   53CHL1    H9 6366   2.207   1.860   9.647  0.3134  0.0400 -0.2259
   53CHL1   C10 6367   2.393   1.899   9.729  0.4408  0.0762 -0.4232
   53CHL1   C19 6368   2.535   1.936   9.685  0.0664 -0.2336 -0.3696
   53CHL1  H19A 6369   2.605   1.948   9.770 -0.0527  2.4995 -0.5692
   53CHL1  H19B 6370   2.568   1.862   9.609  2.5480  0.5372 -0.1216
   53CHL1  H19C 6371   2.536   2.039   9.643  0.9582 -0.4435 -0.8913
   53CHL1    C1 6372   2.330   2.017   9.814  0.6969  0.3193 -0.2581
   53CHL1   H1A 6373   2.327   2.115   9.761  0.6325  0.0337 -0.7901
   53CHL1   H1B 6374   2.221   1.997   9.822  0.4610  0.6899 -2.0767
   53CHL1    C2 6375   2.386   2.037   9.957 -0.3056  0.1681 -0.6001
   53CHL1   H2A 6376   2.316   2.094  10.021  1.2701 -1.0846  2.4345
   53CHL1   H2B 6377   2.482   2.091   9.967 -0.1273 -0.2218 -0.1480
   53CHL1   C20 6378   2.180   1.822   9.046 -0.4518  0.2167 -0.2320
   53CHL1   H20 6379   2.281   1.784   9.018 -0.5475 -1.4424  1.4481
   53CHL1   C21 6380   2.172   1.975   9.040  0.2349  0.0603  0.2920
   53CHL1  H21A 6381   2.171   2.024   8.941 -1.5627  1.3764  0.9008
   53CHL1  H21B 6382   2.258   2.009   9.102 -0.3005 -0.0222  1.0934
   53CHL1  H21C 6383   2.081   2.007   9.097  0.1837 -0.1927  0.3535
   53CHL1   C22 6384   2.075   1.755   8.949 -0.4160  0.1011 -0.7432
   53CHL1  H22A 6385   2.084   1.644   8.954  0.3534  0.0616 -2.3424
   53CHL1  H22B 6386   1.975   1.776   8.993  0.3975  1.9641  0.3129
   53CHL1   C23 6387   2.098   1.797   8.810  0.8646  0.1363  0.1278
   53CHL1  H23A 6388   2.077   1.905   8.795  1.1908  0.0117 -1.3887
   53CHL1  H23B 6389   2.195   1.759   8.773 -0.2018 -2.6916 -0.0533
   53CHL1   C24 6390   1.994   1.729   8.712 -0.0795 -0.6045  0.4523
   53CHL1  H24A 6391   1.986   1.619   8.723  0.2147 -0.4983  1.8907
   53CHL1  H24B 6392   1.904   1.786   8.741 -0.5448 -1.6772  1.1650
   53CHL1   C25 6393   2.027   1.751   8.562  0.1909  0.5395 -0.4413
   53CHL1   H25 6394   2.128   1.708   8.547 -0.0366 -1.5273  2.9876
   53CHL1   C26 6395   1.926   1.674   8.475 -0.5432  0.5661 -0.2627
   53CHL1  H26A 6396   1.913   1.572   8.516 -0.9645  0.6994 -0.0661
   53CHL1  H26B 6397   1.831   1.731   8.474  0.2212  1.8847 -0.3781
   53CHL1  H26C 6398   1.971   1.672   8.373 -0.2234 -2.7163 -0.1542
   53CHL1   C27 6399   2.028   1.899   8.530 -0.1193 -0.6349 -0.4933
   53CHL1  H27A 6400   2.108   1.956   8.583 -0.0645  1.3827 -2.5850
   53CHL1  H27B 6401   2.037   1.914   8.420  0.4637  2.9032 -0.0759
   53CHL1  H27C 6402   1.929   1.934   8.566 -1.3268 -4.9185  0.9271
   54CHL1    C3 6403   2.815   6.355   9.988 -0.8109 -0.8943 -0.0957
   54CHL1    H3 6404   2.713   6.311   9.995 -0.6933 -1.0720  0.5026
   54CHL1    O3 6405   2.857   6.374  10.127  0.4704  0.1633  0.0064
   54CHL1   H3' 6406   2.891   6.287  10.150 -0.6608 -0.5044 -0.7670
   54CHL1    C4 6407   2.915   6.261   9.925  0.8316  1.5229  0.2339
   54CHL1   H4A 6408   3.016   6.309   9.930  1.3009  0.6619 -0.6532
   54CHL1   H4B 6409   2.931   6.169   9.985  0.6092  0.2274 -1.5953
   54CHL1    C5 6410   2.875   6.228   9.779 -0.0035  0.0163  0.1686
   54CHL1    C6 6411   2.852   6.108   9.736 -0.0032  0.0032  0.3420
   54CHL1    H6 6412   2.849   6.029   9.813 -0.4414  1.3152  1.7164
   54CHL1    C7 6413   2.833   6.080   9.586 -0.4566  0.7437  0.0318
   54CHL1   H7A 6414   2.888   5.989   9.556 -2.1309  0.1035 -1.2512
   54CHL1   H7B 6415   2.725   6.062   9.568 -0.2594  1.5172 -2.2026
   54CHL1    C8 6416   2.871   6.189   9.488 -0.2074 -0.3930 -0.2442
   54CHL1    H8 6417   2.982   6.194   9.484 -0.2071  4.0972  0.3965
   54CHL1   C14 6418   2.800   6.156   9.360 -0.5722 -0.2928  0.6660
   54CHL1   H14 6419   2.691   6.160   9.381 -1.1293 -1.0664 -1.6697
   54CHL1   C15 6420   2.817   6.019   9.305  0.0662  0.4909  0.9551
   54CHL1  H15A 6421   2.924   5.992   9.304  0.3385  1.3289  2.9957
   54CHL1  H15B 6422   2.756   5.941   9.355  0.9809  1.0694  3.0460
   54CHL1   C16 6423   2.763   6.035   9.157 -0.2406 -0.0790 -0.2755
   54CHL1  H16A 6424   2.831   5.992   9.081 -0.9024  0.0783 -0.9720
   54CHL1  H16B 6425   2.660   5.992   9.152 -0.5685  0.7099 -0.4098
   54CHL1   C17 6426   2.751   6.187   9.127  0.0887  0.2790 -0.0667
   54CHL1   H17 6427   2.642   6.211   9.130 -0.2562 -1.1274 -0.7233
   54CHL1   C13 6428   2.821   6.256   9.245 -0.1639  0.5801  0.7683
   54CHL1   C18 6429   2.972   6.281   9.218 -0.3199  0.0789 -0.4620
   54CHL1  H18A 6430   2.995   6.346   9.131 -0.4455  2.0783  0.9351
   54CHL1  H18B 6431   3.024   6.322   9.307  0.1940 -1.4433 -0.0254
   54CHL1  H18C 6432   3.024   6.184   9.206  0.4627  0.5973 -1.3052
   54CHL1   C12 6433   2.757   6.388   9.293  0.1191 -0.6872  0.2077
   54CHL1  H12A 6434   2.784   6.471   9.224 -2.8277 -0.4678 -0.7987
   54CHL1  H12B 6435   2.647   6.394   9.298  0.1575 -0.5450  0.8811
   54CHL1   C11 6436   2.822   6.431   9.433 -0.3910  0.1272  0.4861
   54CHL1  H11A 6437   2.926   6.469   9.423 -0.7865  1.3302  0.7265
   54CHL1  H11B 6438   2.774   6.522   9.477  0.6918  1.0991 -0.2789
   54CHL1    C9 6439   2.815   6.318   9.538 -0.5965  0.0947 -0.8412
   54CHL1    H9 6440   2.707   6.297   9.551 -0.0683 -2.0675  0.5729
   54CHL1   C10 6441   2.861   6.352   9.687  0.0214 -0.0685 -0.4384
   54CHL1   C19 6442   3.008   6.400   9.667 -0.3797 -0.4529 -0.2082
   54CHL1  H19A 6443   3.067   6.406   9.761 -0.2059  3.3747 -0.4042
   54CHL1  H19B 6444   3.058   6.335   9.592 -0.6508  0.1444 -0.9098
   54CHL1  H19C 6445   3.019   6.505   9.635  1.3337 -0.3323  0.6425
   54CHL1    C1 6446   2.776   6.465   9.751  0.1848  0.2291 -0.2123
   54CHL1   H1A 6447   2.790   6.567   9.709 -3.5343  1.3137  0.7323
   54CHL1   H1B 6448   2.669   6.434   9.751  1.1633 -3.6106 -0.7921
   54CHL1    C2 6449   2.818   6.483   9.902  0.0868 -0.0934 -0.0068
   54CHL1   H2A 6450   2.751   6.559   9.947  0.2615 -0.1409  0.3387
   54CHL1   H2B 6451   2.923   6.518   9.914 -0.3577  1.3278 -0.1080
   54CHL1   C20 6452   2.784   6.236   8.980 -0.2888 -1.2424 -0.4129
   54CHL1   H20 6453   2.890   6.250   8.953  0.1044 -1.4544  0.9542
   54CHL1   C21 6454   2.714   6.376   8.958 -0.3901  0.2939 -0.6581
   54CHL1  H21A 6455   2.612   6.365   9.001  0.0417  2.8069  1.2293
   54CHL1  H21B 6456   2.719   6.393   8.848  2.8858 -1.3813 -0.9075
   54CHL1  H21C 6457   2.755   6.459   9.019 -1.5610 -1.1669  2.2901
   54CHL1   C22 6458   2.733   6.145   8.863  0.5637  0.0551  0.6409
   54CHL1  H22A 6459   2.768   6.041   8.883  0.7611 -0.4154 -1.8373
   54CHL1  H22B 6460   2.622   6.134   8.865  0.7138 -2.6668 -0.7990
   54CHL1   C23 6461   2.789   6.170   8.723  0.4120  0.4150  1.1698
   54CHL1  H23A 6462   2.784   6.276   8.690 -0.3997  0.5155  1.5949
   54CHL1  H23B 6463   2.898   6.150   8.730  0.0291 -2.5863  0.1605
   54CHL1   C24 6464   2.722   6.076   8.622  0.0070 -0.5005 -0.5589
   54CHL1  H24A 6465   2.719   5.970   8.656 -1.1846 -0.7734 -1.4521
   54CHL1  H24B 6466   2.613   6.094   8.614  0.2521  0.8672 -1.0502
   54CHL1   C25 6467   2.793   6.070   8.484  0.6592  0.3771 -0.6954
   54CHL1   H25 6468   2.904   6.057   8.485  0.7605  0.6245 -3.2309
   54CHL1   C26 6469   2.741   5.942   8.414 -0.3908 -0.0551 -0.0433
   54CHL1  H26A 6470   2.766   5.939   8.306 -1.3240  0.3693 -0.2848
   54CHL1  H26B 6471   2.771   5.848   8.466 -0.2951 -1.0392 -1.8005
   54CHL1  H26C 6472   2.630   5.954   8.417 -0.2890  0.7574  0.5598
   54CHL1   C27 6473   2.765   6.200   8.409 -1.6434 -0.7628 -0.2485
   54CHL1  H27A 6474   2.659   6.232   8.403 -0.9590  2.0179  0.8943
   54CHL1  H27B 6475   2.826   6.283   8.451 -1.4485 -1.0508  0.0440
   54CHL1  H27C 6476   2.811   6.195   8.308 -1.5615 -0.0728 -0.2453
   55CHL1    C3 6477   3.239   0.131  10.117  0.1485  0.1589 -0.6028
   55CHL1    H3 6478   3.341   0.115  10.075 -0.8143 -2.5811 -2.1549
   55CHL1    O3 6479   3.258   0.137  10.252 -0.1096 -0.3534 -0.4686
   55CHL1   H3' 6480   3.176   0.101  10.287 -0.0992  1.0172  1.0492
   55CHL1    C4 6481   3.165   0.255  10.078 -0.4645  0.6191 -0.1754
   55CHL1   H4A 6482   3.068   0.251  10.133 -0.5523  1.6393 -0.2433
   55CHL1   H4B 6483   3.235   0.336  10.108  0.5797 -0.7628  1.2463
   55CHL1    C5 6484   3.130   0.254   9.932  0.8219 -0.4951  0.2997
   55CHL1    C6 6485   3.158   0.360   9.847  0.3630  0.7305 -0.6990
   55CHL1    H6 6486   3.218   0.441   9.891 -0.1112  0.6763  0.0460
   55CHL1    C7 6487   3.135   0.371   9.700  0.2282 -0.1304  0.4695
   55CHL1   H7A 6488   3.079   0.462   9.669  1.8103  0.4695 -0.7856
   55CHL1   H7B 6489   3.229   0.380   9.643 -0.6984 -0.2465 -1.1193
   55CHL1    C8 6490   3.034   0.256   9.660  0.7098  0.0168  0.8477
   55CHL1    H8 6491   2.932   0.277   9.698 -0.0705 -1.9015 -0.0473
   55CHL1   C14 6492   3.024   0.246   9.507 -0.1309  0.2588  1.2604
   55CHL1   H14 6493   3.128   0.226   9.474 -0.7897 -2.7533  0.6515
   55CHL1   C15 6494   2.975   0.375   9.430 -0.4568  0.0955 -0.1159
   55CHL1  H15A 6495   2.883   0.408   9.484 -0.6398  0.2612 -0.5228
   55CHL1  H15B 6496   3.049   0.457   9.434  0.3347 -0.6582  1.3144
   55CHL1   C16 6497   2.933   0.312   9.298  0.5487 -0.0123 -0.0945
   55CHL1  H16A 6498   2.825   0.334   9.286  0.7473 -0.1449 -2.8653
   55CHL1  H16B 6499   2.977   0.344   9.201  1.4487 -0.3716  0.1811
   55CHL1   C17 6500   2.937   0.155   9.305 -0.5425  0.0532  0.6125
   55CHL1   H17 6501   3.037   0.129   9.263 -0.3336 -1.5641  2.0197
   55CHL1   C13 6502   2.931   0.124   9.454 -0.7911 -0.3227  0.2856
   55CHL1   C18 6503   2.784   0.140   9.516 -0.1807  0.3663  0.3276
   55CHL1  H18A 6504   2.717   0.210   9.461  0.3877  0.1644 -0.6566
   55CHL1  H18B 6505   2.735   0.041   9.507 -0.4034  0.3999  1.1310
   55CHL1  H18C 6506   2.768   0.160   9.624  0.3932 -1.2578  0.7417
   55CHL1   C12 6507   3.011   0.003   9.517  0.2802 -0.1418 -0.4870
   55CHL1  H12A 6508   2.961  -0.092   9.488 -2.8306  1.4555 -0.7644
   55CHL1  H12B 6509   3.116   0.009   9.479  0.1905  1.9664 -0.5120
   55CHL1   C11 6510   3.021   0.001   9.672  0.1837 -0.2160  0.6805
   55CHL1  H11A 6511   2.918  -0.004   9.714  0.5034  0.9279  1.6501
   55CHL1  H11B 6512   3.080  -0.091   9.693  1.0521  0.0801 -0.3432
   55CHL1    C9 6513   3.085   0.124   9.726 -0.5929  1.0268 -0.3917
   55CHL1    H9 6514   3.191   0.128   9.696 -0.8511 -1.4639 -1.9371
   55CHL1   C10 6515   3.058   0.128   9.877  0.2647 -0.3798  0.8723
   55CHL1   C19 6516   2.916   0.124   9.920  0.1719 -0.0788 -0.4362
   55CHL1  H19A 6517   2.859   0.212   9.883 -1.0111 -1.2402 -1.4521
   55CHL1  H19B 6518   2.860   0.036   9.883 -2.2986  0.4871  1.6239
   55CHL1  H19C 6519   2.898   0.123  10.030  1.0280 -0.3689 -0.2949
   55CHL1    C1 6520   3.122   0.003   9.936 -0.5678 -0.2638  0.1792
   55CHL1   H1A 6521   3.072  -0.092   9.909  0.8354 -0.5909 -1.4753
   55CHL1   H1B 6522   3.223  -0.009   9.892  0.3200 -1.8280  2.4158
   55CHL1    C2 6523   3.161   0.001  10.084 -0.3658 -0.0052 -0.1091
   55CHL1   H2A 6524   3.223  -0.090  10.100  0.3723  0.8938  2.6546
   55CHL1   H2B 6525   3.066  -0.013  10.140 -1.2496 -0.1005 -1.5516
   55CHL1   C20 6526   2.833   0.099   9.213  0.4991 -0.0208 -0.1156
   55CHL1   H20 6527   2.731   0.137   9.234  0.1268  0.6083 -2.7152
   55CHL1   C21 6528   2.827  -0.058   9.238  0.4102 -0.6215  0.1106
   55CHL1  H21A 6529   2.747  -0.105   9.177 -0.1128  0.3338  0.0422
   55CHL1  H21B 6530   2.813  -0.084   9.345  0.2911  2.6824  1.0255
   55CHL1  H21C 6531   2.923  -0.099   9.201  1.8158  1.0015  1.7980
   55CHL1   C22 6532   2.851   0.131   9.058  0.3299 -0.0650 -0.1139
   55CHL1  H22A 6533   2.822   0.237   9.044  1.5177  0.2523 -0.3453
   55CHL1  H22B 6534   2.961   0.124   9.040  0.0333 -1.9263 -1.4340
   55CHL1   C23 6535   2.781   0.034   8.962 -0.1651  0.3575 -0.4612
   55CHL1  H23A 6536   2.821  -0.070   8.957 -2.0292 -0.4213  0.0689
   55CHL1  H23B 6537   2.679   0.012   9.001  1.3172 -2.2188  2.4303
   55CHL1   C24 6538   2.789   0.083   8.816 -0.5083 -0.6644 -0.3376
   55CHL1  H24A 6539   2.736   0.180   8.814  0.4154 -0.1580 -0.8574
   55CHL1  H24B 6540   2.893   0.085   8.777 -0.7152  0.1670 -0.8785
   55CHL1   C25 6541   2.714  -0.001   8.714  0.2845  0.3460 -0.6802
   55CHL1   H25 6542   2.606   0.006   8.736  0.7685 -1.0157  2.8239
   55CHL1   C26 6543   2.728   0.049   8.564  0.1840 -0.0929 -0.2900
   55CHL1  H26A 6544   2.835   0.049   8.535  0.7007  0.7117  1.4282
   55CHL1  H26B 6545   2.667  -0.025   8.509 -0.5959 -0.3354  0.8537
   55CHL1  H26C 6546   2.673   0.144   8.544 -1.8242 -0.7006  1.8911
   55CHL1   C27 6547   2.757  -0.148   8.711 -0.3791  0.7649 -0.3614
   55CHL1  H27A 6548   2.866  -0.151   8.695 -0.1466 -1.0611  1.2400
   55CHL1  H27B 6549   2.731  -0.205   8.803 -0.1268  0.8275 -0.2533
   55CHL1  H27C 6550   2.709  -0.196   8.623  2.4354 -1.9683 -0.5457
   56CHL1    C3 6551   2.113   5.463  10.144  0.3877  0.0622 -1.4350
   56CHL1    H3 6552   2.020   5.404  10.153  1.3588 -1.4603 -0.9074
   56CHL1    O3 6553   2.167   5.473  10.276 -0.2793  0.2377  0.1843
   56CHL1   H3' 6554   2.098   5.502  10.337  1.7925  0.5645  2.5427
   56CHL1    C4 6555   2.215   5.385  10.069 -0.2076  0.9799 -0.3928
   56CHL1   H4A 6556   2.311   5.439  10.077 -0.0169  0.7857 -1.3231
   56CHL1   H4B 6557   2.227   5.292  10.129  1.8753  2.5844  1.9000
   56CHL1    C5 6558   2.184   5.371   9.919  0.1014 -0.2248  0.2029
   56CHL1    C6 6559   2.181   5.258   9.853 -0.0455 -0.2481 -0.6988
   56CHL1    H6 6560   2.201   5.165   9.908 -0.6464  0.0857  0.1059
   56CHL1    C7 6561   2.156   5.233   9.705  0.4009  0.5470  0.3280
   56CHL1   H7A 6562   2.231   5.172   9.651 -2.4809 -2.8577 -0.1954
   56CHL1   H7B 6563   2.066   5.168   9.706  0.2834  0.6961 -0.1808
   56CHL1    C8 6564   2.125   5.371   9.637 -0.3346 -0.6043 -0.1441
   56CHL1    H8 6565   2.220   5.416   9.601  0.7791 -0.0216  3.1834
   56CHL1   C14 6566   2.044   5.348   9.517  0.1260  0.4277 -0.6237
   56CHL1   H14 6567   1.946   5.309   9.551  1.5663 -1.5797  1.4674
   56CHL1   C15 6568   2.090   5.234   9.416 -0.3746 -0.3832 -0.2002
   56CHL1  H15A 6569   2.200   5.231   9.400 -0.3952 -1.3638 -0.2172
   56CHL1  H15B 6570   2.046   5.135   9.442 -1.6250 -0.3996 -2.1893
   56CHL1   C16 6571   2.020   5.273   9.286  0.1028  0.2244 -0.3138
   56CHL1  H16A 6572   2.093   5.283   9.203 -0.6020  0.4039 -0.9236
   56CHL1  H16B 6573   1.946   5.197   9.255  1.6177 -1.6116  0.4050
   56CHL1   C17 6574   1.943   5.408   9.312 -0.0299 -0.7353  0.0360
   56CHL1   H17 6575   1.842   5.387   9.353  0.2790  0.6232  1.5951
   56CHL1   C13 6576   2.018   5.478   9.430 -0.0548 -0.1641  0.0271
   56CHL1   C18 6577   2.148   5.535   9.372 -0.2239  0.0888  0.6412
   56CHL1  H18A 6578   2.123   5.623   9.308 -0.6688 -2.4947 -3.0170
   56CHL1  H18B 6579   2.215   5.577   9.450  1.3802  2.1345 -1.6758
   56CHL1  H18C 6580   2.187   5.461   9.300 -2.6663  0.0552 -0.7698
   56CHL1   C12 6581   1.938   5.582   9.519 -0.2297  0.0837  0.1610
   56CHL1  H12A 6582   1.928   5.676   9.462  0.9531 -1.9684 -3.7920
   56CHL1  H12B 6583   1.835   5.539   9.522 -0.0555 -0.4374 -0.9100
   56CHL1   C11 6584   2.007   5.609   9.653 -0.0567  0.0890 -0.0075
   56CHL1  H11A 6585   2.095   5.677   9.654  0.9632 -1.1704  1.6060
   56CHL1  H11B 6586   1.937   5.668   9.715 -0.9365  0.5286 -1.3920
   56CHL1    C9 6587   2.060   5.471   9.724  0.2785 -0.6105  0.0489
   56CHL1    H9 6588   1.964   5.430   9.764 -0.1505 -3.1598 -3.2189
   56CHL1   C10 6589   2.138   5.502   9.851 -0.3874 -0.2800 -0.5096
   56CHL1   C19 6590   2.268   5.576   9.814  0.2738  0.9131  0.4303
   56CHL1  H19A 6591   2.348   5.586   9.890 -1.3148 -2.6499  2.8450
   56CHL1  H19B 6592   2.305   5.530   9.721 -0.8141  1.2042 -0.1670
   56CHL1  H19C 6593   2.254   5.680   9.777  1.4574  0.2374 -2.0815
   56CHL1    C1 6594   2.049   5.589   9.948  0.4764 -0.1008 -0.1401
   56CHL1   H1A 6595   2.044   5.693   9.910 -0.0534  0.1205  0.5331
   56CHL1   H1B 6596   1.950   5.541   9.964  1.8514 -3.1822 -0.1072
   56CHL1    C2 6597   2.102   5.603  10.089  0.0576  1.1504  0.4148
   56CHL1   H2A 6598   2.030   5.661  10.150 -0.3517 -1.3268  2.4247
   56CHL1   H2B 6599   2.203   5.650  10.076 -0.3498  1.3823 -2.8884
   56CHL1   C20 6600   1.920   5.485   9.180  0.2753 -0.6533 -0.1147
   56CHL1   H20 6601   2.018   5.507   9.132 -0.1653 -1.2731 -1.3615
   56CHL1   C21 6602   1.836   5.610   9.203  0.1724 -0.0282 -0.5896
   56CHL1  H21A 6603   1.753   5.609   9.277  1.8905  0.4927  1.4779
   56CHL1  H21B 6604   1.791   5.652   9.111 -0.5414 -0.6598 -0.5354
   56CHL1  H21C 6605   1.897   5.696   9.238 -0.9841  1.2589 -1.6535
   56CHL1   C22 6606   1.844   5.397   9.074 -0.7551  0.1897  0.7486
   56CHL1  H22A 6607   1.831   5.446   8.975 -0.7690 -1.4070 -0.0652
   56CHL1  H22B 6608   1.906   5.310   9.045  0.0919  1.3845 -1.1886
   56CHL1   C23 6609   1.711   5.337   9.123 -0.2565  0.6573 -0.7119
   56CHL1  H23A 6610   1.731   5.247   9.186  0.5614  1.3088 -0.0008
   56CHL1  H23B 6611   1.666   5.406   9.198  0.6068  2.1457 -1.5172
   56CHL1   C24 6612   1.606   5.298   9.022  0.2318 -0.2728  0.5214
   56CHL1  H24A 6613   1.520   5.250   9.073  0.0868 -2.2965 -1.4513
   56CHL1  H24B 6614   1.574   5.395   8.978  0.3727 -0.1268  0.7391
   56CHL1   C25 6615   1.640   5.203   8.904  0.1358 -0.1852 -0.1654
   56CHL1   H25 6616   1.733   5.237   8.854  1.1997 -0.9039  1.2363
   56CHL1   C26 6617   1.666   5.055   8.943 -0.3786  0.5023  0.1775
   56CHL1  H26A 6618   1.684   4.994   8.852 -1.5948 -0.5389  0.6119
   56CHL1  H26B 6619   1.748   5.050   9.019  0.0707  1.4823 -0.2208
   56CHL1  H26C 6620   1.579   5.011   8.995  0.9291 -1.0554  1.1281
   56CHL1   C27 6621   1.539   5.205   8.797  0.4158  0.6885  0.3758
   56CHL1  H27A 6622   1.565   5.131   8.718 -1.0301 -0.2135  0.6912
   56CHL1  H27B 6623   1.439   5.174   8.834  0.8992 -0.2147  0.9521
   56CHL1  H27C 6624   1.521   5.302   8.744 -0.4986  0.8312  0.9212
   57CHL1    C3 6625   4.209   2.511  10.176 -0.0837 -0.5189 -0.0185
   57CHL1    H3 6626   4.126   2.584  10.181  0.8267  0.6689 -1.5131
   57CHL1    O3 6627   4.234   2.493  10.312  0.4639 -0.1292 -0.0191
   57CHL1   H3' 6628   4.280   2.572  10.340  2.0163 -0.2782 -1.9713
   57CHL1    C4 6629   4.163   2.381  10.115  0.6150 -0.0770  0.2454
   57CHL1   H4A 6630   4.236   2.308  10.156  0.5509 -1.3313 -1.7304
   57CHL1   H4B 6631   4.063   2.361  10.159  0.5562  0.6377  0.4572
   57CHL1    C5 6632   4.164   2.401   9.963 -0.2779  1.0331  0.1360
   57CHL1    C6 6633   4.051   2.378   9.898 -0.0215  0.3125  0.1470
   57CHL1    H6 6634   3.958   2.357   9.953  0.5195  0.9334  1.3242
   57CHL1    C7 6635   4.045   2.378   9.747  0.1049  0.5000 -0.0536
   57CHL1   H7A 6636   3.966   2.314   9.702 -2.0915  4.0729 -1.7830
   57CHL1   H7B 6637   4.003   2.478   9.723  1.4510  1.3587  1.0234
   57CHL1    C8 6638   4.185   2.383   9.680 -0.1774  0.8188  0.2461
   57CHL1    H8 6639   4.225   2.279   9.677 -1.0422  0.4332  1.4745
   57CHL1   C14 6640   4.187   2.415   9.537 -0.5330  0.7647  0.6127
   57CHL1   H14 6641   4.148   2.519   9.531  0.0811  1.0541  1.4216
   57CHL1   C15 6642   4.084   2.346   9.449  0.2806 -0.6298  0.4173
   57CHL1  H15A 6643   4.080   2.236   9.462  0.9380 -0.5179  1.7475
   57CHL1  H15B 6644   3.979   2.382   9.460  0.1986 -0.6427 -0.3070
   57CHL1   C16 6645   4.138   2.378   9.306 -0.3057  0.3544  0.1361
   57CHL1  H16A 6646   4.145   2.285   9.246 -0.3208 -0.0906  0.8166
   57CHL1  H16B 6647   4.069   2.451   9.258 -0.9727 -0.6014 -0.3767
   57CHL1   C17 6648   4.271   2.455   9.322 -0.0668 -0.1846  0.4214
   57CHL1   H17 6649   4.246   2.563   9.316 -0.3522 -0.2923 -0.4622
   57CHL1   C13 6650   4.317   2.423   9.459 -0.3307  0.5687  0.0643
   57CHL1   C18 6651   4.382   2.278   9.455 -0.9692 -0.6155  0.2431
   57CHL1  H18A 6652   4.406   2.228   9.551  0.6891 -0.8823 -0.2838
   57CHL1  H18B 6653   4.319   2.211   9.392 -1.3572 -0.4423  0.4411
   57CHL1  H18C 6654   4.479   2.286   9.402 -0.7854 -0.6278  0.5712
   57CHL1   C12 6655   4.403   2.523   9.535  0.1738 -0.7404  0.3256
   57CHL1  H12A 6656   4.503   2.527   9.486  0.1109  3.9410  0.1544
   57CHL1  H12B 6657   4.358   2.623   9.518  0.2138 -0.8604 -0.5071
   57CHL1   C11 6658   4.417   2.489   9.677 -0.4049 -0.5127  0.2742
   57CHL1  H11A 6659   4.472   2.393   9.688 -0.3526 -0.5448 -0.2457
   57CHL1  H11B 6660   4.473   2.566   9.734 -2.8819 -0.1262  2.4046
   57CHL1    C9 6661   4.282   2.475   9.751 -0.1597 -0.3480  0.5720
   57CHL1    H9 6662   4.234   2.575   9.749  0.7153  0.0853  0.4633
   57CHL1   C10 6663   4.293   2.445   9.898  0.4945 -0.4629  0.0879
   57CHL1   C19 6664   4.383   2.320   9.927 -0.2670  0.1404  0.3849
   57CHL1  H19A 6665   4.399   2.295  10.034  2.1918  0.3625  0.1173
   57CHL1  H19B 6666   4.344   2.237   9.864 -1.6860  1.2962 -0.3372
   57CHL1  H19C 6667   4.486   2.333   9.887  0.1379 -1.8645  0.6756
   57CHL1    C1 6668   4.345   2.571   9.979  0.1829 -0.5949  1.2609
   57CHL1   H1A 6669   4.441   2.621   9.951 -0.5803  2.1137  3.0981
   57CHL1   H1B 6670   4.268   2.649   9.961 -0.2986 -0.7523  2.5956
   57CHL1    C2 6671   4.342   2.569  10.126  0.7901  0.0681 -0.4056
   57CHL1   H2A 6672   4.351   2.674  10.159 -0.1467  0.1426 -0.3591
   57CHL1   H2B 6673   4.432   2.507  10.145  0.7711 -1.2017 -3.8415
   57CHL1   C20 6674   4.366   2.432   9.204 -0.1322  0.2499  0.1246
   57CHL1   H20 6675   4.401   2.327   9.202 -0.7293  0.0412  0.5036
   57CHL1   C21 6676   4.485   2.527   9.217 -0.4428  0.5155  0.4698
   57CHL1  H21A 6677   4.556   2.509   9.133 -0.0942 -2.1864  1.2559
   57CHL1  H21B 6678   4.550   2.508   9.305 -2.1558  0.2723  1.7266
   57CHL1  H21C 6679   4.448   2.632   9.208 -2.0795 -0.0880 -0.1861
   57CHL1   C22 6680   4.303   2.449   9.061 -0.0618 -0.0283 -0.4374
   57CHL1  H22A 6681   4.196   2.421   9.061 -0.1692  0.2807 -2.4115
   57CHL1  H22B 6682   4.294   2.558   9.043  1.9721  0.2506 -0.0972
   57CHL1   C23 6683   4.377   2.390   8.940 -0.3290  0.0708 -0.4304
   57CHL1  H23A 6684   4.481   2.430   8.942 -0.8075  1.3376 -0.3074
   57CHL1  H23B 6685   4.379   2.281   8.962 -1.0218 -0.0645 -1.0404
   57CHL1   C24 6686   4.308   2.422   8.813 -0.1145 -0.1408 -0.3038
   57CHL1  H24A 6687   4.223   2.351   8.804  1.5632 -2.5550  1.5987
   57CHL1  H24B 6688   4.280   2.528   8.794 -0.6606 -0.5031 -1.6452
   57CHL1   C25 6689   4.404   2.370   8.698  0.6040  0.1005  0.8389
   57CHL1   H25 6690   4.509   2.399   8.722  0.4539  0.8616  0.5836
   57CHL1   C26 6691   4.400   2.215   8.686 -0.4123  0.1960 -0.6720
   57CHL1  H26A 6692   4.442   2.174   8.780 -0.1489  1.1021 -0.3844
   57CHL1  H26B 6693   4.293   2.194   8.663 -0.3517  2.8593 -4.4375
   57CHL1  H26C 6694   4.473   2.181   8.609  1.0023  0.9907  0.2703
   57CHL1   C27 6695   4.361   2.435   8.565  0.0827  0.7460 -0.3470
   57CHL1  H27A 6696   4.253   2.426   8.542 -0.1137 -0.3129  0.8418
   57CHL1  H27B 6697   4.373   2.545   8.566  2.1800  0.5703  0.7343
   57CHL1  H27C 6698   4.429   2.400   8.485  0.7953 -0.5704  0.7789
   58CHL1    C3 6699   0.140   1.134  10.077  0.4151 -0.5101  0.3183
   58CHL1    H3 6700   0.093   1.040  10.041 -0.7467 -0.6659  2.1226
   58CHL1    O3 6701   0.195   1.124  10.211 -0.2374  0.0882 -0.1012
   58CHL1   H3' 6702   0.120   1.149  10.266  1.7232  1.6129  2.0350
   58CHL1    C4 6703   0.248   1.175   9.982 -0.4164 -0.3803  0.2598
   58CHL1   H4A 6704   0.296   1.269  10.017  0.5383 -0.3713 -1.0226
   58CHL1   H4B 6705   0.321   1.091   9.983  1.8160  1.4737 -0.2597
   58CHL1    C5 6706   0.191   1.192   9.840 -0.0742 -0.6309 -0.6100
   58CHL1    C6 6707   0.252   1.125   9.739 -0.0531  0.1298  0.0236
   58CHL1    H6 6708   0.339   1.062   9.764 -1.7795 -1.8020  1.4670
   58CHL1    C7 6709   0.208   1.138   9.598  0.7631 -0.1731  0.3153
   58CHL1   H7A 6710   0.296   1.164   9.535  0.3458  3.4851  1.0037
   58CHL1   H7B 6711   0.178   1.037   9.561  0.7990  0.3140 -1.1048
   58CHL1    C8 6712   0.107   1.251   9.572 -0.1392 -0.3837  0.3069
   58CHL1    H8 6713   0.159   1.348   9.565  0.3701 -0.7548 -3.6125
   58CHL1   C14 6714   0.032   1.232   9.440 -0.5693 -0.3082  0.5376
   58CHL1   H14 6715  -0.031   1.142   9.453  0.8856 -1.3993  0.3336
   58CHL1   C15 6716   0.119   1.212   9.316  0.0553 -0.2904 -0.2442
   58CHL1  H15A 6717   0.212   1.272   9.309 -0.5806  0.7072 -0.2755
   58CHL1  H15B 6718   0.147   1.104   9.313  0.8874 -0.1555  1.5161
   58CHL1   C16 6719   0.022   1.237   9.197 -0.1494  0.0260 -0.2822
   58CHL1  H16A 6720   0.073   1.299   9.121 -0.7689 -1.4639 -1.9802
   58CHL1  H16B 6721   0.012   1.139   9.147 -2.1016 -1.0044  1.9137
   58CHL1   C17 6722  -0.104   1.313   9.258 -0.3487  0.4822 -0.0254
   58CHL1   H17 6723  -0.176   1.232   9.283  0.5577  0.2233  1.9047
   58CHL1   C13 6724  -0.054   1.352   9.402  0.7693 -0.1716 -0.2069
   58CHL1   C18 6725   0.009   1.489   9.406 -0.2819 -0.0162 -0.3054
   58CHL1  H18A 6726  -0.061   1.574   9.390 -0.0537  0.4550  1.1040
   58CHL1  H18B 6727   0.054   1.508   9.505 -0.6404 -0.2315 -0.0982
   58CHL1  H18C 6728   0.089   1.491   9.328 -0.5245  0.0962 -0.5545
   58CHL1   C12 6729  -0.164   1.361   9.505 -0.0874 -0.7632 -0.5249
   58CHL1  H12A 6730  -0.237   1.440   9.477  0.4928 -0.5319 -1.4350
   58CHL1  H12B 6731  -0.211   1.261   9.500  1.3282 -1.4696 -0.2146
   58CHL1   C11 6732  -0.114   1.375   9.649 -0.4155 -1.1200  0.1704
   58CHL1  H11A 6733  -0.084   1.481   9.665 -3.6549  0.1265 -1.1377
   58CHL1  H11B 6734  -0.195   1.356   9.723  0.8736  1.4310  2.4182
   58CHL1    C9 6735   0.000   1.271   9.683 -0.2210 -0.9862 -0.9890
   58CHL1    H9 6736  -0.046   1.171   9.698 -1.8503 -0.2696 -1.1032
   58CHL1   C10 6737   0.075   1.292   9.824  0.2389 -0.7838  0.1198
   58CHL1   C19 6738   0.113   1.439   9.849  0.2221  0.1786  0.1332
   58CHL1  H19A 6739   0.022   1.498   9.871 -0.3643 -1.1064  1.3001
   58CHL1  H19B 6740   0.173   1.445   9.942  1.3277 -1.5788 -0.4172
   58CHL1  H19C 6741   0.169   1.481   9.762  1.2024 -2.1677 -0.4341
   58CHL1    C1 6742  -0.026   1.264   9.938 -0.2886  0.1302 -0.8173
   58CHL1   H1A 6743  -0.113   1.333   9.938 -1.1769 -0.8608  1.5322
   58CHL1   H1B 6744  -0.071   1.164   9.917  0.4714 -0.6138  0.8702
   58CHL1    C2 6745   0.030   1.240  10.086 -0.2690  0.8017  0.3774
   58CHL1   H2A 6746  -0.063   1.202  10.135 -1.6705  1.2270 -1.8214
   58CHL1   H2B 6747   0.056   1.336  10.136 -0.7317  0.1627  1.9194
   58CHL1   C20 6748  -0.166   1.411   9.167  0.6739  0.1379  0.4816
   58CHL1   H20 6749  -0.097   1.497   9.151  0.9595 -0.4479 -1.6705
   58CHL1   C21 6750  -0.299   1.456   9.229  0.2865  0.4646  0.5210
   58CHL1  H21A 6751  -0.346   1.516   9.148 -0.4931 -0.0832  0.5542
   58CHL1  H21B 6752  -0.284   1.524   9.316  1.0199  1.8799 -0.6673
   58CHL1  H21C 6753  -0.363   1.369   9.255  0.4672  0.5306  1.2070
   58CHL1   C22 6754  -0.203   1.351   9.021 -0.8976 -0.6821 -0.6673
   58CHL1  H22A 6755  -0.105   1.348   8.968 -0.8389  2.8915 -0.9804
   58CHL1  H22B 6756  -0.246   1.249   9.033  0.5451 -1.2091  0.3736
   58CHL1   C23 6757  -0.297   1.431   8.929 -0.3412  0.2140 -0.4393
   58CHL1  H23A 6758  -0.401   1.419   8.966 -0.3686 -0.0829 -0.6160
   58CHL1  H23B 6759  -0.275   1.540   8.929 -0.7044  0.2906  0.1324
   58CHL1   C24 6760  -0.283   1.378   8.787 -0.4753  0.2827 -0.1702
   58CHL1  H24A 6761  -0.183   1.408   8.749 -0.0255 -0.0700  0.7207
   58CHL1  H24B 6762  -0.268   1.268   8.794 -0.2711  0.2976 -0.3571
   58CHL1   C25 6763  -0.398   1.411   8.694 -0.0786  0.5512 -0.5865
   58CHL1   H25 6764  -0.496   1.393   8.742 -0.9725  0.8017 -2.2324
   58CHL1   C26 6765  -0.394   1.557   8.654  0.7121 -0.0640 -0.0982
   58CHL1  H26A 6766  -0.492   1.581   8.608  0.8394  1.5237  0.4203
   58CHL1  H26B 6767  -0.381   1.617   8.746 -0.5840 -0.4343  0.3474
   58CHL1  H26C 6768  -0.311   1.594   8.590  0.5081  3.7313  1.5770
   58CHL1   C27 6769  -0.388   1.329   8.562  0.2814 -0.8292  0.5333
   58CHL1  H27A 6770  -0.363   1.221   8.574 -1.8855 -1.3074  1.3730
   58CHL1  H27B 6771  -0.493   1.322   8.525  0.5913  1.5252 -0.9421
   58CHL1  H27C 6772  -0.318   1.381   8.493 -1.0480  1.4930  0.8418
   59CHL1    C3 6773   6.502   2.605  10.128 -0.5537  0.3931 -0.1786
   59CHL1    H3 6774   6.423   2.663  10.075  0.2563  1.2115 -0.5099
   59CHL1    O3 6775   6.462   2.608  10.259  0.5104 -0.4858 -0.1542
   59CHL1   H3' 6776   6.519   2.543  10.300 -0.5465 -2.0567 -1.0595
   59CHL1    C4 6777   6.490   2.458  10.079  0.5127 -0.2617  0.7915
   59CHL1   H4A 6778   6.561   2.395  10.137  0.5464 -1.1621 -0.1992
   59CHL1   H4B 6779   6.386   2.425  10.102 -0.3066 -1.2508 -3.4203
   59CHL1    C5 6780   6.525   2.446   9.935 -0.6982 -0.6179 -0.0468
   59CHL1    C6 6781   6.444   2.386   9.845 -0.2634 -0.2910 -0.6294
   59CHL1    H6 6782   6.344   2.347   9.871 -0.7548 -1.9809 -4.2990
   59CHL1    C7 6783   6.468   2.359   9.699  0.1390 -0.3301 -0.0948
   59CHL1   H7A 6784   6.443   2.253   9.674 -1.2783  0.0012 -0.2116
   59CHL1   H7B 6785   6.395   2.425   9.648  0.7153 -1.2711 -2.2574
   59CHL1    C8 6786   6.619   2.380   9.665  0.0376 -0.3641  0.3323
   59CHL1    H8 6787   6.669   2.285   9.692  2.1957  0.2439 -1.3037
   59CHL1   C14 6788   6.627   2.400   9.514 -0.3458 -0.4940  0.1823
   59CHL1   H14 6789   6.572   2.496   9.501  1.2731  0.2020 -2.4938
   59CHL1   C15 6790   6.559   2.289   9.426 -1.1774 -0.4114 -0.2343
   59CHL1  H15A 6791   6.604   2.195   9.464  2.6193  0.7080 -1.5050
   59CHL1  H15B 6792   6.448   2.284   9.419 -1.4269  1.8625  1.0686
   59CHL1   C16 6793   6.614   2.328   9.287  0.9903  0.2693  0.3277
   59CHL1  H16A 6794   6.650   2.229   9.251  0.9804 -0.8938  3.2685
   59CHL1  H16B 6795   6.536   2.371   9.221 -2.0333 -2.7723  1.6013
   59CHL1   C17 6796   6.731   2.430   9.301 -0.0408 -0.9782  0.1558
   59CHL1   H17 6797   6.689   2.532   9.288 -1.0358 -1.4360 -0.3393
   59CHL1   C13 6798   6.765   2.420   9.453  0.0082  0.1917  0.3823
   59CHL1   C18 6799   6.858   2.299   9.479 -0.0324 -0.4560  0.7868
   59CHL1  H18A 6800   6.866   2.280   9.589 -0.4276  0.8086  1.0446
   59CHL1  H18B 6801   6.811   2.218   9.420  0.3402 -0.0706 -0.0461
   59CHL1  H18C 6802   6.962   2.308   9.443 -0.6425 -2.9225 -2.0674
   59CHL1   C12 6803   6.821   2.551   9.518  0.1917 -0.2550 -0.4669
   59CHL1  H12A 6804   6.927   2.571   9.490  0.2283 -0.1388 -0.2499
   59CHL1  H12B 6805   6.757   2.633   9.480 -2.8770 -2.3682 -0.2645
   59CHL1   C11 6806   6.810   2.547   9.672 -0.5700 -0.6249  0.2848
   59CHL1  H11A 6807   6.881   2.474   9.717  1.0324  0.6803 -0.0358
   59CHL1  H11B 6808   6.841   2.645   9.711 -0.2167 -0.3957 -0.5451
   59CHL1    C9 6809   6.673   2.509   9.731 -0.5270 -0.2563 -0.9404
   59CHL1    H9 6810   6.606   2.594   9.706  0.0064 -0.1884 -2.2260
   59CHL1   C10 6811   6.661   2.511   9.892 -0.4154  0.7325 -0.7700
   59CHL1   C19 6812   6.772   2.424   9.953 -1.1111 -0.2394 -0.1496
   59CHL1  H19A 6813   6.871   2.475   9.944 -1.3783  0.0909 -1.5700
   59CHL1  H19B 6814   6.761   2.418  10.063  2.6136 -2.2136  0.2697
   59CHL1  H19C 6815   6.781   2.325   9.902  0.6385 -0.6525  0.8466
   59CHL1    C1 6816   6.673   2.648   9.950 -0.3054  0.3347  0.0343
   59CHL1   H1A 6817   6.778   2.678   9.934  0.1391 -2.4053 -3.1905
   59CHL1   H1B 6818   6.605   2.712   9.891 -0.9650 -1.1538 -0.9006
   59CHL1    C2 6819   6.642   2.660  10.095  0.2658 -0.8619  0.2231
   59CHL1   H2A 6820   6.652   2.766  10.126 -0.8682 -0.7977  0.3955
   59CHL1   H2B 6821   6.723   2.607  10.149 -0.2316 -0.3337  1.5266
   59CHL1   C20 6822   6.836   2.420   9.189 -0.1276 -0.5252 -0.2504
   59CHL1   H20 6823   6.902   2.331   9.200  0.9475  0.2134 -0.5893
   59CHL1   C21 6824   6.919   2.540   9.188  0.0544 -0.3852  0.2493
   59CHL1  H21A 6825   6.860   2.634   9.181  3.2236  1.6638 -1.5599
   59CHL1  H21B 6826   6.994   2.539   9.106 -1.4761 -0.3940 -1.2211
   59CHL1  H21C 6827   6.985   2.542   9.277  0.6243  0.2834 -0.1718
   59CHL1   C22 6828   6.765   2.396   9.044  0.1939  0.2882  0.1410
   59CHL1  H22A 6829   6.713   2.298   9.042  1.1906 -0.3400  2.3458
   59CHL1  H22B 6830   6.695   2.481   9.030 -0.0039  0.1060  0.0230
   59CHL1   C23 6831   6.865   2.405   8.923 -0.3111  0.4445 -0.5140
   59CHL1  H23A 6832   6.811   2.380   8.830  2.2336  0.8815 -2.1878
   59CHL1  H23B 6833   6.909   2.502   8.893  0.6239 -0.0194 -0.6605
   59CHL1   C24 6834   6.981   2.303   8.935 -0.1957 -0.2959  0.3833
   59CHL1  H24A 6835   7.069   2.342   8.991  1.5022  0.0641 -2.3489
   59CHL1  H24B 6836   6.935   2.211   8.978  0.9712 -1.1944 -0.2129
   59CHL1   C25 6837   7.055   2.258   8.810 -0.5250 -0.5989 -0.4435
   59CHL1   H25 6838   6.971   2.223   8.746 -1.2514 -2.4025  1.3960
   59CHL1   C26 6839   7.132   2.371   8.737 -0.0495  0.7145  0.4977
   59CHL1  H26A 6840   7.067   2.454   8.703  1.9506  2.6863  1.1977
   59CHL1  H26B 6841   7.195   2.429   8.809  0.0765  1.9088 -0.5485
   59CHL1  H26C 6842   7.198   2.324   8.660  0.6457 -1.3274  2.2234
   59CHL1   C27 6843   7.145   2.137   8.833  0.1551 -0.2811 -0.2007
   59CHL1  H27A 6844   7.087   2.056   8.882 -0.1678 -0.1504 -0.3593
   59CHL1  H27B 6845   7.170   2.098   8.732 -0.2221 -0.1048 -0.3642
   59CHL1  H27C 6846   7.238   2.155   8.890 -1.4301 -0.8360  2.7521
   60CHL1    C3 6847   0.990   4.106  10.189 -0.1287 -0.6001  0.7539
   60CHL1    H3 6848   1.074   4.033  10.175  1.8688  0.6840  4.5519
   60CHL1    O3 6849   0.953   4.102  10.328 -0.1117  0.5433  0.5517
   60CHL1   H3' 6850   0.901   4.180  10.351  1.0085  0.7990  2.3937
   60CHL1    C4 6851   1.044   4.245  10.150  0.1425  0.3528 -0.7192
   60CHL1   H4A 6852   0.969   4.322  10.179 -0.5984 -0.6106  0.0005
   60CHL1   H4B 6853   1.135   4.256  10.213  0.0193  0.5696 -0.5762
   60CHL1    C5 6854   1.068   4.263  10.002 -0.9110 -0.4773 -0.8972
   60CHL1    C6 6855   1.182   4.313   9.956 -0.4000 -0.0781 -0.1877
   60CHL1    H6 6856   1.265   4.335  10.025  0.1954 -2.1353 -0.1799
   60CHL1    C7 6857   1.200   4.352   9.811 -0.0393  0.8168  0.7437
   60CHL1   H7A 6858   1.266   4.439   9.790  1.2882 -0.2870  0.1311
   60CHL1   H7B 6859   1.266   4.273   9.768 -0.8831 -0.9433  2.5321
   60CHL1    C8 6860   1.073   4.358   9.728 -0.2082 -0.2251 -0.1228
   60CHL1    H8 6861   1.019   4.451   9.755 -0.9186 -0.8849  0.7937
   60CHL1   C14 6862   1.104   4.346   9.578  0.0622  0.4931 -0.2274
   60CHL1   H14 6863   1.175   4.260   9.577  2.5966  2.3676  2.4487
   60CHL1   C15 6864   1.180   4.459   9.514  0.0185  0.3460 -0.2540
   60CHL1  H15A 6865   1.128   4.556   9.531  0.0532  0.7166 -2.0037
   60CHL1  H15B 6866   1.290   4.462   9.527  0.3675  0.6140 -2.7335
   60CHL1   C16 6867   1.165   4.431   9.357  1.0877  0.6623  0.0848
   60CHL1  H16A 6868   1.141   4.529   9.310  0.0101 -0.2495 -1.3542
   60CHL1  H16B 6869   1.253   4.387   9.306 -1.1616 -1.8944 -1.9351
   60CHL1   C17 6870   1.051   4.330   9.350  0.5705 -0.4032  0.8857
   60CHL1   H17 6871   1.093   4.227   9.352 -0.8249 -1.0043  0.3198
   60CHL1   C13 6872   0.984   4.323   9.491 -0.4258 -0.8007  0.6930
   60CHL1   C18 6873   0.877   4.437   9.499  0.0606  0.8754 -0.0167
   60CHL1  H18A 6874   0.861   4.458   9.607  0.1929  1.6843 -0.1447
   60CHL1  H18B 6875   0.914   4.535   9.461 -1.8757  1.5687 -0.2224
   60CHL1  H18C 6876   0.773   4.434   9.459  1.1433  0.2239 -3.0643
   60CHL1   C12 6877   0.919   4.183   9.526 -1.1607  0.5624  0.0464
   60CHL1  H12A 6878   0.826   4.170   9.466  0.1933  0.9147 -2.2635
   60CHL1  H12B 6879   0.986   4.099   9.499 -0.3533  1.1371  0.2201
   60CHL1   C11 6880   0.882   4.189   9.671  0.1251 -0.1197  0.7626
   60CHL1  H11A 6881   0.796   4.259   9.675  1.7912  2.0417  0.6054
   60CHL1  H11B 6882   0.842   4.090   9.704  1.5241 -1.6040 -1.6977
   60CHL1    C9 6883   0.992   4.229   9.765 -0.3119  0.6961  0.6285
   60CHL1    H9 6884   1.067   4.147   9.760 -1.0169  0.0645  0.2203
   60CHL1   C10 6885   0.942   4.231   9.916 -0.5240  0.6118  0.2499
   60CHL1   C19 6886   0.840   4.337   9.935  0.6560 -0.4624  0.1146
   60CHL1  H19A 6887   0.806   4.355  10.039 -3.2478  1.0102 -1.2431
   60CHL1  H19B 6888   0.874   4.437   9.900 -3.3068  0.8887 -0.3940
   60CHL1  H19C 6889   0.744   4.316   9.882  0.3863 -2.1689  1.1914
   60CHL1    C1 6890   0.892   4.089   9.956 -0.3896  0.6288  0.2420
   60CHL1   H1A 6891   0.809   4.055   9.890  0.4791  1.4768 -1.3216
   60CHL1   H1B 6892   0.974   4.020   9.927 -0.4778  0.8768 -0.5999
   60CHL1    C2 6893   0.864   4.079  10.101  0.8174  0.6463  0.1269
   60CHL1   H2A 6894   0.827   3.979  10.134 -0.6519  1.8126  2.2710
   60CHL1   H2B 6895   0.781   4.148  10.124 -1.0847 -1.4966  0.0696
   60CHL1   C20 6896   0.963   4.352   9.220 -0.5295  0.7188 -0.5385
   60CHL1   H20 6897   0.899   4.441   9.234 -2.1608 -0.4398 -0.3332
   60CHL1   C21 6898   0.876   4.225   9.194 -0.0515  0.1583  0.1911
   60CHL1  H21A 6899   0.929   4.129   9.214 -1.3550 -0.4368  0.9417
   60CHL1  H21B 6900   0.839   4.228   9.089 -0.3287  0.9401  0.3032
   60CHL1  H21C 6901   0.789   4.222   9.263  0.2947  0.8998  0.6779
   60CHL1   C22 6902   1.037   4.389   9.097 -0.6827  0.0044 -0.5219
   60CHL1  H22A 6903   1.111   4.471   9.108  0.9481 -1.5960  1.2651
   60CHL1  H22B 6904   1.111   4.310   9.073  0.5620  0.4799  1.5014
   60CHL1   C23 6905   0.951   4.437   8.982 -0.0275  0.3006 -0.2417
   60CHL1  H23A 6906   0.882   4.359   8.942 -0.5220  1.3442 -1.4959
   60CHL1  H23B 6907   0.883   4.513   9.025  0.5060  0.3495  0.5279
   60CHL1   C24 6908   1.024   4.505   8.863  0.5221 -0.5104 -0.3601
   60CHL1  H24A 6909   1.074   4.598   8.896 -0.8505 -0.3373  1.3439
   60CHL1  H24B 6910   1.112   4.445   8.833  1.3993  0.5545  0.0149
   60CHL1   C25 6911   0.933   4.537   8.742 -0.7533 -0.0093  0.6945
   60CHL1   H25 6912   0.899   4.441   8.699 -1.5522 -0.3126  1.9418
   60CHL1   C26 6913   0.815   4.632   8.772  0.4447  0.1786  0.1112
   60CHL1  H26A 6914   0.841   4.738   8.751 -0.6038  0.5536  0.6358
   60CHL1  H26B 6915   0.738   4.595   8.701 -0.4246  0.7329  0.7421
   60CHL1  H26C 6916   0.773   4.612   8.873  1.4704 -1.3508  0.2767
   60CHL1   C27 6917   1.026   4.602   8.635 -0.2337 -0.9028  0.1480
   60CHL1  H27A 6918   0.968   4.645   8.551 -1.6897 -0.8279  1.1721
   60CHL1  H27B 6919   1.087   4.679   8.686 -0.5580  0.5087 -1.5386
   60CHL1  H27C 6920   1.103   4.529   8.602  0.1502 -1.0048  1.2251
   61CHL1    C3 6921   0.220   0.350  10.358  0.5147  0.0107 -0.1103
   61CHL1    H3 6922   0.177   0.452  10.368  0.7212  0.0056  1.0931
   61CHL1    O3 6923   0.252   0.304  10.491 -0.2843  0.6871 -0.0331
   61CHL1   H3' 6924   0.194   0.231  10.512  0.7363  0.0042  0.4533
   61CHL1    C4 6925   0.125   0.242  10.297 -0.1378  0.4427  0.0930
   61CHL1   H4A 6926   0.181   0.147  10.311  0.3718  0.5965 -0.8004
   61CHL1   H4B 6927   0.039   0.245  10.367 -0.9429 -1.6006 -0.7040
   61CHL1    C5 6928   0.094   0.265  10.155  0.1835  0.7842  0.6694
   61CHL1    C6 6929  -0.034   0.257  10.106  0.0950 -0.0661  0.1550
   61CHL1    H6 6930  -0.116   0.240  10.178  0.3372 -0.4038  0.3496
   61CHL1    C7 6931  -0.079   0.273   9.963  0.8209  0.4878  0.6252
   61CHL1   H7A 6932  -0.165   0.209   9.932  1.5090 -0.2036  0.1223
   61CHL1   H7B 6933  -0.122   0.374   9.946 -0.5385 -0.2203 -0.3504
   61CHL1    C8 6934   0.051   0.260   9.865  0.6734 -0.0998 -0.1049
   61CHL1    H8 6935   0.094   0.158   9.856 -0.1689 -0.5511  0.8483
   61CHL1   C14 6936   0.026   0.307   9.720 -0.4046 -0.3008 -0.4654
   61CHL1   H14 6937  -0.011   0.411   9.738  0.7493  0.1122 -0.4152
   61CHL1   C15 6938  -0.084   0.237   9.659  0.6291 -0.2508  0.0273
   61CHL1  H15A 6939  -0.083   0.130   9.688  1.1231 -0.3669 -0.4010
   61CHL1  H15B 6940  -0.183   0.279   9.690 -0.1468 -0.1003 -2.4784
   61CHL1   C16 6941  -0.061   0.264   9.505 -0.4762 -0.3799  0.4537
   61CHL1  H16A 6942  -0.034   0.174   9.446  0.1096  1.0277 -1.5221
   61CHL1  H16B 6943  -0.151   0.313   9.464 -0.8873 -2.3345 -1.1040
   61CHL1   C17 6944   0.070   0.360   9.500  0.1865  0.3009  0.3726
   61CHL1   H17 6945   0.021   0.458   9.517 -1.4262  0.0999 -2.4231
   61CHL1   C13 6946   0.146   0.317   9.624  0.7830 -0.4724 -0.2982
   61CHL1   C18 6947   0.200   0.181   9.600  0.2659  0.0303 -0.2027
   61CHL1  H18A 6948   0.213   0.142   9.704 -3.9859  0.2741  0.6053
   61CHL1  H18B 6949   0.128   0.121   9.541  0.7069  0.1742 -0.9066
   61CHL1  H18C 6950   0.296   0.175   9.544  0.8303 -3.3304  0.8494
   61CHL1   C12 6951   0.247   0.410   9.683  0.3462  0.1581 -0.5424
   61CHL1  H12A 6952   0.336   0.412   9.616 -0.3631  0.5826 -1.5017
   61CHL1  H12B 6953   0.211   0.514   9.694  0.6312  0.3100 -0.9955
   61CHL1   C11 6954   0.285   0.355   9.827 -0.0806  0.1166  0.4612
   61CHL1  H11A 6955   0.346   0.263   9.815 -0.5205 -0.2836  1.2030
   61CHL1  H11B 6956   0.348   0.440   9.861 -0.7205  1.6580 -1.9547
   61CHL1    C9 6957   0.167   0.337   9.926 -0.5060 -0.3860  0.8010
   61CHL1    H9 6958   0.130   0.438   9.956  0.3316  0.3683 -0.6109
   61CHL1   C10 6959   0.214   0.286  10.064  0.3835  0.0217 -0.4550
   61CHL1   C19 6960   0.285   0.153  10.042 -0.4649 -0.1476 -0.6324
   61CHL1  H19A 6961   0.218   0.076   9.998 -0.1801  0.1706 -1.6511
   61CHL1  H19B 6962   0.374   0.162   9.976  0.1621 -0.8098  0.0971
   61CHL1  H19C 6963   0.330   0.113  10.136  1.9126  0.5711 -1.3917
   61CHL1    C1 6964   0.308   0.390  10.130 -0.1926  0.0158 -0.8816
   61CHL1   H1A 6965   0.400   0.397  10.068 -1.8413  1.4714 -3.3187
   61CHL1   H1B 6966   0.256   0.488  10.136 -1.0501 -0.4694 -0.2776
   61CHL1    C2 6967   0.349   0.359  10.279  0.2368  0.4781  0.1508
   61CHL1   H2A 6968   0.424   0.423  10.330 -0.5019  0.0085  1.9056
   61CHL1   H2B 6969   0.400   0.260  10.276  2.6829  1.6625 -0.0871
   61CHL1   C20 6970   0.147   0.358   9.360 -0.1110 -0.3643  0.0427
   61CHL1   H20 6971   0.179   0.253   9.343 -2.2462 -0.8934 -1.0200
   61CHL1   C21 6972   0.266   0.463   9.363  0.0274 -0.0749  0.0975
   61CHL1  H21A 6973   0.226   0.564   9.385  1.7044  0.4649  0.8122
   61CHL1  H21B 6974   0.306   0.474   9.260  0.2466  1.2718  0.3207
   61CHL1  H21C 6975   0.349   0.436   9.431  0.5972 -0.0624 -0.5856
   61CHL1   C22 6976   0.053   0.391   9.246 -0.1071 -0.2105 -0.2958
   61CHL1  H22A 6977  -0.043   0.337   9.256  0.1727 -0.7068 -0.2202
   61CHL1  H22B 6978   0.032   0.500   9.246 -0.8766 -0.3541 -0.6563
   61CHL1   C23 6979   0.105   0.356   9.102 -0.0136 -0.8633  0.6260
   61CHL1  H23A 6980   0.202   0.407   9.088  0.0030  0.2727  4.0795
   61CHL1  H23B 6981   0.113   0.245   9.104 -1.1286 -0.9667  3.4560
   61CHL1   C24 6982  -0.004   0.395   9.008 -1.5305 -0.1888 -0.1147
   61CHL1  H24A 6983  -0.097   0.345   9.043 -0.9805 -0.6223  0.7688
   61CHL1  H24B 6984  -0.019   0.503   9.029  2.8396  0.3582  1.2099
   61CHL1   C25 6985   0.025   0.369   8.858 -0.7956  0.1890  0.1162
   61CHL1   H25 6986   0.049   0.261   8.857  2.2046  0.7068 -2.8692
   61CHL1   C26 6987  -0.087   0.392   8.771  0.6393 -0.4135  0.2151
   61CHL1  H26A 6988  -0.106   0.501   8.770 -0.5853 -0.5561  2.0776
   61CHL1  H26B 6989  -0.051   0.352   8.674  1.6800 -0.0355  0.4303
   61CHL1  H26C 6990  -0.185   0.342   8.790  0.2185 -0.6075 -2.2084
   61CHL1   C27 6991   0.141   0.442   8.798 -0.0779  0.0827 -0.6827
   61CHL1  H27A 6992   0.148   0.550   8.822 -1.6374 -0.3065  1.8826
   61CHL1  H27B 6993   0.233   0.390   8.833 -0.7512 -1.3777 -1.0302
   61CHL1  H27C 6994   0.147   0.423   8.688 -1.2110 -0.4741 -0.6645
   62CHL1    C3 6995   3.496   1.124  10.104 -1.2868 -0.1290  0.6226
   62CHL1    H3 6996   3.566   1.056  10.051 -0.5950  0.7435  0.3922
   62CHL1    O3 6997   3.520   1.128  10.241 -0.0243 -0.3423  0.2233
   62CHL1   H3' 6998   3.488   1.210  10.277  0.5247 -1.6131  4.0569
   62CHL1    C4 6999   3.516   1.275  10.051  0.2467  0.1834 -0.8267
   62CHL1   H4A 7000   3.454   1.338  10.117 -0.1725 -2.4631  1.5048
   62CHL1   H4B 7001   3.617   1.316  10.068  0.2130  0.9298 -2.2317
   62CHL1    C5 7002   3.472   1.280   9.906  0.6011 -0.6840 -0.1475
   62CHL1    C6 7003   3.552   1.334   9.811  0.0765 -0.3370 -0.8305
   62CHL1    H6 7004   3.657   1.363   9.825 -0.1758  0.2427 -0.0730
   62CHL1    C7 7005   3.510   1.348   9.670  0.3464 -0.0133  0.5737
   62CHL1   H7A 7006   3.541   1.444   9.625  1.9917 -0.1679  1.3224
   62CHL1   H7B 7007   3.557   1.260   9.621 -0.3983  0.2989 -0.7443
   62CHL1    C8 7008   3.354   1.336   9.647  0.5397  0.1938 -0.1338
   62CHL1    H8 7009   3.305   1.426   9.689 -0.2277 -1.2226  2.2194
   62CHL1   C14 7010   3.326   1.314   9.507  0.1905  0.6114  0.4885
   62CHL1   H14 7011   3.385   1.229   9.465  0.8359  1.2659  0.0485
   62CHL1   C15 7012   3.369   1.432   9.418 -0.6522 -0.0528 -0.8161
   62CHL1  H15A 7013   3.358   1.530   9.467 -0.2669  0.7576 -2.2721
   62CHL1  H15B 7014   3.477   1.424   9.391 -0.7004  1.2955 -1.4592
   62CHL1   C16 7015   3.276   1.428   9.299 -0.0024  0.2392 -0.0365
   62CHL1  H16A 7016   3.213   1.518   9.280 -1.2601 -0.6431 -0.2072
   62CHL1  H16B 7017   3.336   1.425   9.205  1.5055  1.7475  0.8256
   62CHL1   C17 7018   3.177   1.310   9.317  0.9131  0.5080  0.3960
   62CHL1   H17 7019   3.223   1.218   9.274  0.7400  0.7863 -0.4080
   62CHL1   C13 7020   3.182   1.292   9.473 -0.0174 -0.0855 -0.5425
   62CHL1   C18 7021   3.090   1.408   9.537  0.7012  0.1641  0.0745
   62CHL1  H18A 7022   3.091   1.497   9.471 -2.1816  1.2367  1.3186
   62CHL1  H18B 7023   2.986   1.373   9.555  0.3050  2.2853  2.4929
   62CHL1  H18C 7024   3.120   1.450   9.635  3.5161  2.5931 -1.6621
   62CHL1   C12 7025   3.128   1.165   9.530  0.8722  0.2157 -0.1163
   62CHL1  H12A 7026   3.020   1.153   9.510  0.9792  0.3699 -0.7820
   62CHL1  H12B 7027   3.180   1.074   9.492 -1.1677 -2.0915  2.2281
   62CHL1   C11 7028   3.154   1.164   9.682 -0.3137  0.2451  0.2876
   62CHL1  H11A 7029   3.076   1.225   9.732 -1.2226  0.6072 -1.5150
   62CHL1  H11B 7030   3.125   1.064   9.722 -2.8010  1.2053  1.0900
   62CHL1    C9 7031   3.295   1.207   9.721  0.3262  0.4201  0.3194
   62CHL1    H9 7032   3.359   1.124   9.683  1.6522  1.1488  0.8836
   62CHL1   C10 7033   3.335   1.218   9.873 -0.4619 -0.1728 -0.6041
   62CHL1   C19 7034   3.228   1.320   9.926  0.4004  0.4467  0.2716
   62CHL1  H19A 7035   3.227   1.333  10.036 -0.2194  0.4402  0.2702
   62CHL1  H19B 7036   3.237   1.420   9.878  3.0051 -0.0044 -0.3478
   62CHL1  H19C 7037   3.129   1.276   9.904  1.0155 -1.5072  1.2244
   62CHL1    C1 7038   3.315   1.077   9.935  0.1704  0.5140  0.4302
   62CHL1   H1A 7039   3.208   1.049   9.927  0.1975  0.7067 -0.7733
   62CHL1   H1B 7040   3.358   0.998   9.869  0.1013  1.7821 -1.1851
   62CHL1    C2 7041   3.357   1.067  10.081 -0.8724 -0.2040 -0.2862
   62CHL1   H2A 7042   3.359   0.962  10.119 -0.3797 -0.7242 -1.6448
   62CHL1   H2B 7043   3.291   1.127  10.146 -2.2538 -0.5112 -1.3614
   62CHL1   C20 7044   3.040   1.332   9.241  0.1409 -0.4602 -0.7518
   62CHL1   H20 7045   2.989   1.416   9.291  1.1428 -0.1628 -0.1946
   62CHL1   C21 7046   2.952   1.204   9.245  0.4129  0.1720  0.0082
   62CHL1  H21A 7047   3.014   1.116   9.215  0.1127 -0.0817  0.1344
   62CHL1  H21B 7048   2.871   1.221   9.171  2.3007  2.0840 -1.7663
   62CHL1  H21C 7049   2.911   1.188   9.346  1.6955 -0.8083  0.4024
   62CHL1   C22 7050   3.062   1.376   9.100 -0.2582 -1.1670  0.9818
   62CHL1  H22A 7051   2.967   1.384   9.043 -0.8554 -1.8889  1.8420
   62CHL1  H22B 7052   3.089   1.484   9.097  2.2806 -1.7620  0.1329
   62CHL1   C23 7053   3.171   1.316   9.016 -0.3150 -0.2182 -0.5271
   62CHL1  H23A 7054   3.259   1.291   9.079 -1.2481  0.9496  1.3468
   62CHL1  H23B 7055   3.134   1.223   8.968  0.0275 -0.6560  0.0482
   62CHL1   C24 7056   3.204   1.412   8.900 -0.2473  0.8308 -0.6880
   62CHL1  H24A 7057   3.111   1.434   8.844 -0.2563  2.4283 -0.0784
   62CHL1  H24B 7058   3.242   1.508   8.940  0.8213 -0.3907  1.3892
   62CHL1   C25 7059   3.309   1.360   8.794 -0.5852 -0.1850  0.4581
   62CHL1   H25 7060   3.314   1.436   8.713  3.2477  0.6568  1.2865
   62CHL1   C26 7061   3.448   1.359   8.846  0.2607 -0.6371  0.0268
   62CHL1  H26A 7062   3.493   1.460   8.853  0.2381 -0.7211  2.5768
   62CHL1  H26B 7063   3.446   1.310   8.946  0.8646 -1.2616 -0.2611
   62CHL1  H26C 7064   3.516   1.304   8.777 -2.0348  1.1304 -3.9702
   62CHL1   C27 7065   3.273   1.219   8.745  0.1048  0.3797 -0.4730
   62CHL1  H27A 7066   3.310   1.146   8.820 -0.2637  0.3333 -0.3338
   62CHL1  H27B 7067   3.163   1.203   8.739  0.2102 -0.9836  0.6752
   62CHL1  H27C 7068   3.313   1.200   8.643  0.6405  1.0717 -0.3952
   63CHL1    C3 7069   5.496   3.744  10.199  0.5631  0.2354 -0.5128
   63CHL1    H3 7070   5.512   3.854  10.197  2.9307 -0.0081  1.3923
   63CHL1    O3 7071   5.474   3.708  10.334 -0.0111  0.1809  0.1743
   63CHL1   H3' 7072   5.490   3.614  10.329  2.0565  0.4826  0.1263
   63CHL1    C4 7073   5.374   3.696  10.121 -0.6128  0.9775 -0.6334
   63CHL1   H4A 7074   5.342   3.594  10.151 -0.5667  1.6910  2.0519
   63CHL1   H4B 7075   5.286   3.751  10.161  0.3960 -0.3053  3.8692
   63CHL1    C5 7076   5.401   3.717   9.970  0.1664 -0.7535  0.2377
   63CHL1    C6 7077   5.317   3.796   9.895  0.3364 -0.2469  0.9100
   63CHL1    H6 7078   5.225   3.834   9.942 -0.0122  0.9465 -0.6654
   63CHL1    C7 7079   5.319   3.803   9.742  0.0236  0.1304  0.7246
   63CHL1   H7A 7080   5.225   3.766   9.698  1.0607  0.8804 -2.3518
   63CHL1   H7B 7081   5.346   3.909   9.728  3.3337 -0.0923  3.8232
   63CHL1    C8 7082   5.424   3.708   9.678 -0.1125  0.7211 -0.3427
   63CHL1    H8 7083   5.370   3.611   9.678  0.0331  0.6375  0.2699
   63CHL1   C14 7084   5.466   3.749   9.536  0.0917  0.9672 -0.0300
   63CHL1   H14 7085   5.529   3.840   9.545 -0.4956  1.5019 -1.0984
   63CHL1   C15 7086   5.350   3.772   9.444  0.3404 -0.9030 -0.3576
   63CHL1  H15A 7087   5.274   3.696   9.473  2.2543 -2.6354  0.4523
   63CHL1  H15B 7088   5.316   3.877   9.454 -1.7855 -1.3641 -1.9711
   63CHL1   C16 7089   5.404   3.740   9.306 -0.7293  0.8621  0.3549
   63CHL1  H16A 7090   5.351   3.659   9.250 -0.5892  0.4986  0.7457
   63CHL1  H16B 7091   5.419   3.834   9.248  2.2138  1.3115  1.6607
   63CHL1   C17 7092   5.553   3.691   9.329 -0.2254 -0.7727 -0.3120
   63CHL1   H17 7093   5.612   3.785   9.340 -1.9119  0.3207 -0.1114
   63CHL1   C13 7094   5.552   3.635   9.472 -0.2354  0.8348 -0.0560
   63CHL1   C18 7095   5.490   3.493   9.457  0.5455  0.0245  0.0259
   63CHL1  H18A 7096   5.439   3.459   9.550 -0.0482 -0.2978 -0.4147
   63CHL1  H18B 7097   5.413   3.490   9.378  1.5450  0.5204 -0.9912
   63CHL1  H18C 7098   5.569   3.418   9.435 -1.2326 -1.3902 -1.8822
   63CHL1   C12 7099   5.682   3.639   9.556 -0.3858 -0.0714  0.5098
   63CHL1  H12A 7100   5.745   3.554   9.522 -0.0906  0.2051  0.3537
   63CHL1  H12B 7101   5.736   3.736   9.557 -0.2632 -0.1371  0.3674
   63CHL1   C11 7102   5.658   3.594   9.697 -0.0649 -0.5278 -0.0667
   63CHL1  H11A 7103   5.616   3.492   9.699 -0.8738 -0.2024  1.9533
   63CHL1  H11B 7104   5.752   3.587   9.755  0.2855 -1.4708 -0.7281
   63CHL1    C9 7105   5.552   3.686   9.768  0.0494  0.0709  0.6055
   63CHL1    H9 7106   5.593   3.789   9.765 -2.6190  1.2113  0.5691
   63CHL1   C10 7107   5.529   3.650   9.911  0.1793  0.1904 -0.1779
   63CHL1   C19 7108   5.514   3.493   9.929  0.5517 -0.3269  0.3657
   63CHL1  H19A 7109   5.611   3.440   9.916 -0.9295 -2.6660 -2.4890
   63CHL1  H19B 7110   5.482   3.464  10.031 -0.0009 -0.0053  0.2873
   63CHL1  H19C 7111   5.440   3.454   9.855  0.4099  0.2315  0.2072
   63CHL1    C1 7112   5.646   3.695  10.002 -0.3941  0.6224  0.6187
   63CHL1   H1A 7113   5.733   3.635   9.967 -1.1108 -0.6889  1.0218
   63CHL1   H1B 7114   5.663   3.802   9.981  0.3920  0.1947 -1.1208
   63CHL1    C2 7115   5.619   3.676  10.151 -0.2341  0.4244 -0.0423
   63CHL1   H2A 7116   5.701   3.698  10.223 -1.2053 -1.3113  1.7230
   63CHL1   H2B 7117   5.602   3.566  10.153 -2.3081  0.4754 -4.1298
   63CHL1   C20 7118   5.600   3.613   9.207 -0.1033  0.1451 -0.0709
   63CHL1   H20 7119   5.523   3.535   9.190 -0.0771  0.3521 -1.2644
   63CHL1   C21 7120   5.732   3.537   9.229  0.0687  0.0497 -0.3890
   63CHL1  H21A 7121   5.749   3.480   9.323  0.7940  0.4777 -0.2534
   63CHL1  H21B 7122   5.810   3.615   9.228 -1.8749  2.1014 -1.1297
   63CHL1  H21C 7123   5.743   3.463   9.147 -1.6674 -1.5485  0.7053
   63CHL1   C22 7124   5.610   3.696   9.078  0.7476 -0.6725 -0.1840
   63CHL1  H22A 7125   5.530   3.773   9.086  1.7892  0.4951 -0.7442
   63CHL1  H22B 7126   5.711   3.742   9.069  0.3892  0.4836  1.2174
   63CHL1   C23 7127   5.580   3.623   8.951  0.3444 -0.6185 -0.1315
   63CHL1  H23A 7128   5.668   3.560   8.925  0.2254  0.1705 -2.7452
   63CHL1  H23B 7129   5.494   3.556   8.971 -2.6216  3.3192  1.4238
   63CHL1   C24 7130   5.552   3.727   8.832  0.1232  0.2865 -0.0931
   63CHL1  H24A 7131   5.470   3.790   8.873  0.4159  0.3758  0.3733
   63CHL1  H24B 7132   5.635   3.791   8.797  0.6378 -0.5187 -0.3647
   63CHL1   C25 7133   5.507   3.639   8.708  0.4498 -0.2356  0.4721
   63CHL1   H25 7134   5.425   3.573   8.746 -0.4105 -0.5469 -1.7675
   63CHL1   C26 7135   5.454   3.726   8.592 -0.5748 -0.8965  0.5523
   63CHL1  H26A 7136   5.378   3.801   8.621  1.4310  1.5185 -0.0636
   63CHL1  H26B 7137   5.537   3.798   8.574 -1.1267  0.3994  2.7132
   63CHL1  H26C 7138   5.405   3.666   8.513 -0.1468 -2.7792  1.6432
   63CHL1   C27 7139   5.615   3.550   8.653 -0.6584 -0.3162 -0.6218
   63CHL1  H27A 7140   5.708   3.609   8.658 -0.4123 -0.6052  5.4295
   63CHL1  H27B 7141   5.639   3.447   8.688  0.1372  0.5305  1.4444
   63CHL1  H27C 7142   5.588   3.534   8.546 -1.7718  2.1294 -0.7666
   64CHL1    C3 7143   5.352   3.198  10.232  0.2252 -0.2458 -0.1966
   64CHL1    H3 7144   5.433   3.255  10.181  1.5309 -2.1220 -0.3371
   64CHL1    O3 7145   5.384   3.192  10.374  0.7126  0.4904  0.0922
   64CHL1   H3' 7146   5.300   3.159  10.405  1.1135 -0.0105  0.6888
   64CHL1    C4 7147   5.215   3.261  10.212  0.4581  0.2481  0.1677
   64CHL1   H4A 7148   5.129   3.205  10.255 -0.1495  0.2070 -1.0543
   64CHL1   H4B 7149   5.218   3.359  10.264 -1.4017  0.3806  0.0893
   64CHL1    C5 7150   5.186   3.286  10.061 -0.8047 -0.9013 -0.1557
   64CHL1    C6 7151   5.160   3.417  10.029 -0.4474  0.1364 -0.4317
   64CHL1    H6 7152   5.155   3.478  10.120  2.3745 -3.2353  2.3094
   64CHL1    C7 7153   5.135   3.456   9.886  1.0816  0.5019  0.7391
   64CHL1   H7A 7154   5.046   3.519   9.869  0.4942 -0.2672  0.9271
   64CHL1   H7B 7155   5.225   3.513   9.853  0.4663  1.1597  0.1765
   64CHL1    C8 7156   5.116   3.331   9.791 -0.3253 -0.2347 -0.1897
   64CHL1    H8 7157   5.016   3.284   9.789 -1.4061  1.8540 -3.1803
   64CHL1   C14 7158   5.135   3.388   9.650  0.2298  0.8200 -0.4564
   64CHL1   H14 7159   5.242   3.417   9.641  0.4987  0.4170  1.1069
   64CHL1   C15 7160   5.037   3.502   9.598 -0.2209  0.2397  1.0669
   64CHL1  H15A 7161   4.939   3.481   9.646  0.2752 -1.4363  1.4301
   64CHL1  H15B 7162   5.053   3.609   9.621  1.0401  0.4871 -0.7831
   64CHL1   C16 7163   5.043   3.479   9.445  0.1178 -0.0034  0.0801
   64CHL1  H16A 7164   4.941   3.456   9.407  0.3317 -2.1727  0.6804
   64CHL1  H16B 7165   5.083   3.572   9.399  2.8543 -0.1994  1.8310
   64CHL1   C17 7166   5.131   3.354   9.408  0.0718  0.7070 -0.5284
   64CHL1   H17 7167   5.236   3.389   9.410 -0.7482  3.3854  1.0079
   64CHL1   C13 7168   5.121   3.274   9.537  0.6948  0.3166 -0.0705
   64CHL1   C18 7169   4.982   3.201   9.529 -0.2075  0.7114 -0.3117
   64CHL1  H18A 7170   4.897   3.270   9.515 -1.1130 -0.2875  0.1076
   64CHL1  H18B 7171   4.979   3.121   9.452  0.0261  0.7490 -0.3607
   64CHL1  H18C 7172   4.952   3.162   9.628 -0.2459 -2.1663 -1.3340
   64CHL1   C12 7173   5.240   3.175   9.566  0.8124  0.3559  0.0546
   64CHL1  H12A 7174   5.224   3.085   9.503 -1.0998 -0.0332  1.0023
   64CHL1  H12B 7175   5.338   3.226   9.555  0.2969  0.8909 -3.4055
   64CHL1   C11 7176   5.228   3.111   9.707  0.3803  0.3936 -0.9867
   64CHL1  H11A 7177   5.129   3.060   9.705 -0.0411  1.2147 -1.5980
   64CHL1  H11B 7178   5.307   3.036   9.728 -0.7738 -0.6594 -0.3189
   64CHL1    C9 7179   5.221   3.221   9.819 -0.1449  0.9017  0.0045
   64CHL1    H9 7180   5.321   3.269   9.814  0.0268  0.3943 -3.0650
   64CHL1   C10 7181   5.207   3.173   9.963 -0.5577  0.6604  0.0772
   64CHL1   C19 7182   5.084   3.079   9.988  0.2638  0.9219  0.6405
   64CHL1  H19A 7183   4.988   3.136   9.985  0.3120  0.9666 -1.4082
   64CHL1  H19B 7184   5.096   3.008   9.903 -1.0147  3.2550 -1.6439
   64CHL1  H19C 7185   5.077   3.027  10.086 -0.5911 -0.5812 -0.1808
   64CHL1    C1 7186   5.338   3.093   9.999  0.1361  0.9492 -0.0154
   64CHL1   H1A 7187   5.341   2.996   9.945  0.4134 -0.0236  1.6933
   64CHL1   H1B 7188   5.414   3.163   9.956  0.3856  0.5319 -0.2655
   64CHL1    C2 7189   5.355   3.065  10.155  0.1288 -0.4201  0.2687
   64CHL1   H2A 7190   5.436   2.994  10.181 -1.7302 -2.2605  1.3616
   64CHL1   H2B 7191   5.262   3.010  10.183  0.5035 -0.6642  1.0396
   64CHL1   C20 7192   5.105   3.293   9.270 -0.1255 -0.3576 -0.0165
   64CHL1   H20 7193   4.997   3.269   9.260  0.0477 -0.8520 -0.7787
   64CHL1   C21 7194   5.194   3.165   9.243  0.0622  0.1239  0.4606
   64CHL1  H21A 7195   5.300   3.192   9.263  0.1924 -0.1777  0.1842
   64CHL1  H21B 7196   5.185   3.131   9.138  1.6165  3.1104 -0.7648
   64CHL1  H21C 7197   5.167   3.077   9.306 -1.2391  1.9487  2.5938
   64CHL1   C22 7198   5.122   3.402   9.161 -0.4127 -0.4745 -0.1172
   64CHL1  H22A 7199   5.049   3.485   9.174 -1.4120 -1.4006  0.3403
   64CHL1  H22B 7200   5.223   3.442   9.182 -0.1962 -0.8669 -0.4094
   64CHL1   C23 7201   5.102   3.351   9.023  0.7469 -0.0488  0.1534
   64CHL1  H23A 7202   5.181   3.285   8.980  0.6331 -0.2377  0.2332
   64CHL1  H23B 7203   5.003   3.300   9.022  1.0331 -0.6160 -0.0097
   64CHL1   C24 7204   5.095   3.465   8.916 -0.1722 -0.1837  0.2985
   64CHL1  H24A 7205   5.017   3.538   8.947  0.7147  0.6059  0.7255
   64CHL1  H24B 7206   5.190   3.522   8.906 -0.0924 -0.6203 -1.9089
   64CHL1   C25 7207   5.072   3.418   8.774  0.3405 -0.2175 -0.2584
   64CHL1   H25 7208   5.150   3.344   8.746  0.8691  1.0856 -2.5687
   64CHL1   C26 7209   4.935   3.360   8.755 -0.0008  0.1256 -0.4472
   64CHL1  H26A 7210   4.852   3.434   8.756 -0.7452 -0.6903 -0.9139
   64CHL1  H26B 7211   4.930   3.307   8.658  2.2362  2.3900 -1.9256
   64CHL1  H26C 7212   4.929   3.280   8.831 -0.6360  0.5470 -0.0475
   64CHL1   C27 7213   5.078   3.531   8.671 -0.3455  0.1735  0.2562
   64CHL1  H27A 7214   4.988   3.597   8.678 -1.1709 -0.6830 -1.5734
   64CHL1  H27B 7215   5.157   3.608   8.684 -1.0526  0.8069  0.9436
   64CHL1  H27C 7216   5.072   3.495   8.566  2.2349 -0.3884  0.2420
   65CHL1    C3 7217   1.175   0.688  10.053 -0.3935 -0.5388  0.3097
   65CHL1    H3 7218   1.134   0.586  10.066  2.2476 -1.5702  1.3452
   65CHL1    O3 7219   1.224   0.698  10.184  0.7201  0.4927 -0.4813
   65CHL1   H3' 7220   1.213   0.790  10.210 -3.0305  0.7857 -2.3500
   65CHL1    C4 7221   1.298   0.682   9.963 -0.4982 -0.2762  0.6157
   65CHL1   H4A 7222   1.354   0.775   9.987  1.6151 -1.5751  0.9968
   65CHL1   H4B 7223   1.366   0.599   9.992  3.2081  2.0225 -0.7456
   65CHL1    C5 7224   1.249   0.685   9.816  0.3071  0.1772 -0.1295
   65CHL1    C6 7225   1.295   0.595   9.729  0.3884 -0.4278 -0.4996
   65CHL1    H6 7226   1.375   0.527   9.763  2.4230  2.1626  0.2413
   65CHL1    C7 7227   1.256   0.588   9.583 -0.4901 -0.5733 -0.2756
   65CHL1   H7A 7228   1.343   0.571   9.515  0.0800  1.3935 -0.1136
   65CHL1   H7B 7229   1.187   0.504   9.561 -0.4865 -0.3323 -1.2791
   65CHL1    C8 7230   1.191   0.733   9.539 -0.8814  0.3664 -0.2969
   65CHL1    H8 7231   1.275   0.805   9.541 -0.5768  0.0087 -0.1723
   65CHL1   C14 7232   1.137   0.709   9.400  0.3121 -0.6821  0.2550
   65CHL1   H14 7233   1.067   0.624   9.416  2.4225 -2.4721  0.7099
   65CHL1   C15 7234   1.227   0.670   9.283 -0.0212  0.0555  0.4923
   65CHL1  H15A 7235   1.318   0.734   9.276  0.0807 -0.1434 -0.0511
   65CHL1  H15B 7236   1.242   0.560   9.284 -3.2072 -0.5168 -1.3616
   65CHL1   C16 7237   1.134   0.696   9.159 -0.0422  0.3662  0.1442
   65CHL1  H16A 7238   1.197   0.744   9.081  0.5256 -1.2258 -0.4024
   65CHL1  H16B 7239   1.102   0.599   9.116  0.3765  0.1922  0.2191
   65CHL1   C17 7240   1.015   0.773   9.210  0.1275 -0.0154  0.5390
   65CHL1   H17 7241   0.933   0.699   9.224  0.9002 -0.5878  2.2748
   65CHL1   C13 7242   1.059   0.823   9.350 -0.9212 -0.3670  0.0446
   65CHL1   C18 7243   1.147   0.952   9.333 -0.1791  0.2199  0.0821
   65CHL1  H18A 7244   1.082   1.042   9.333  0.4543  0.7003  1.0877
   65CHL1  H18B 7245   1.199   0.967   9.430 -0.3902 -0.8741  0.3671
   65CHL1  H18C 7246   1.219   0.971   9.251 -2.6448 -0.2304 -2.3238
   65CHL1   C12 7247   0.938   0.860   9.448  0.6008  0.1065  0.3194
   65CHL1  H12A 7248   0.861   0.931   9.412  0.3949 -0.4096 -0.2831
   65CHL1  H12B 7249   0.880   0.765   9.454 -0.0667  0.4537 -0.5375
   65CHL1   C11 7250   0.983   0.886   9.591 -0.1040 -0.7754  0.7789
   65CHL1  H11A 7251   1.025   0.989   9.594 -2.0995  0.1142  0.3751
   65CHL1  H11B 7252   0.897   0.882   9.662  0.3822  0.4559  1.4708
   65CHL1    C9 7253   1.077   0.766   9.637  0.4173 -0.1040 -1.5077
   65CHL1    H9 7254   1.023   0.669   9.643  0.3324  0.0110 -0.0405
   65CHL1   C10 7255   1.134   0.792   9.786 -0.4079  0.1818 -0.0345
   65CHL1   C19 7256   1.193   0.932   9.798 -0.1180 -0.3377  0.4719
   65CHL1  H19A 7257   1.117   1.013   9.808  1.4481  1.1312  0.9826
   65CHL1  H19B 7258   1.248   0.959   9.891  2.1158  0.1259 -0.9072
   65CHL1  H19C 7259   1.266   0.953   9.717 -1.4020 -3.3780 -1.6427
   65CHL1    C1 7260   1.017   0.769   9.883 -0.0530 -0.0030 -1.1840
   65CHL1   H1A 7261   0.932   0.834   9.854 -0.9056 -0.1231  0.8714
   65CHL1   H1B 7262   0.981   0.665   9.868  1.1603 -0.9999  1.9352
   65CHL1    C2 7263   1.063   0.785  10.030  0.1568  0.2182  0.3374
   65CHL1   H2A 7264   0.981   0.764  10.103 -1.6131  2.3893 -0.8906
   65CHL1   H2B 7265   1.102   0.888  10.049  0.7225 -0.2689  2.0337
   65CHL1   C20 7266   0.963   0.876   9.098  0.3815 -0.0585 -0.0898
   65CHL1   H20 7267   1.052   0.933   9.067 -0.3528  0.6046 -1.0418
   65CHL1   C21 7268   0.850   0.970   9.148  0.3092 -0.3212  0.0220
   65CHL1  H21A 7269   0.832   1.039   9.062  1.4948 -0.1279 -0.0919
   65CHL1  H21B 7270   0.887   1.030   9.234  0.5960  0.7080 -0.7931
   65CHL1  H21C 7271   0.748   0.928   9.162 -0.7524  2.1531  0.2601
   65CHL1   C22 7272   0.917   0.793   8.976  0.1671  0.5781  0.0921
   65CHL1  H22A 7273   0.984   0.711   8.946  1.0310  1.3191 -0.0516
   65CHL1  H22B 7274   0.815   0.751   8.992  0.0973  0.7848  0.2093
   65CHL1   C23 7275   0.923   0.879   8.847  0.2335  0.2940  0.0261
   65CHL1  H23A 7276   0.854   0.964   8.862 -0.7244 -0.4501 -0.1096
   65CHL1  H23B 7277   1.023   0.922   8.822  1.7340 -3.1434 -0.6087
   65CHL1   C24 7278   0.875   0.810   8.719  0.2753  0.0358  0.1262
   65CHL1  H24A 7279   0.955   0.744   8.680 -1.3043 -2.1382  0.3307
   65CHL1  H24B 7280   0.788   0.750   8.754  1.3432 -1.5399  0.1642
   65CHL1   C25 7281   0.831   0.910   8.602 -0.0656  0.3418 -1.0381
   65CHL1   H25 7282   0.790   1.001   8.649  3.8859  1.1620  1.3171
   65CHL1   C26 7283   0.944   0.961   8.515 -1.0556  0.0266  0.2790
   65CHL1  H26A 7284   0.897   1.039   8.450  1.2516  1.5440  0.3227
   65CHL1  H26B 7285   1.029   1.004   8.572 -1.1341 -0.3250  0.6625
   65CHL1  H26C 7286   0.974   0.875   8.452 -0.4620 -0.0300  0.6346
   65CHL1   C27 7287   0.728   0.848   8.516 -0.6280  1.1970 -0.2737
   65CHL1  H27A 7288   0.764   0.756   8.465 -1.5265  1.2629 -1.0490
   65CHL1  H27B 7289   0.647   0.823   8.588  0.2472  4.4122  2.0475
   65CHL1  H27C 7290   0.690   0.908   8.431 -2.7705 -1.9690 -1.7526
   66CHL1    C3 7291   5.559   4.812  10.395 -0.7003 -0.3798 -0.1378
   66CHL1    H3 7292   5.469   4.878  10.401 -0.8211 -0.0398 -3.4876
   66CHL1    O3 7293   5.608   4.802  10.526 -0.0431 -0.2568  0.1145
   66CHL1   H3' 7294   5.702   4.780  10.521 -0.1563 -0.8993  0.6996
   66CHL1    C4 7295   5.539   4.669  10.342  0.3593 -0.4258  0.3493
   66CHL1   H4A 7296   5.633   4.610  10.353  0.3976 -0.6138 -0.8348
   66CHL1   H4B 7297   5.451   4.632  10.399 -0.1504  1.1824  0.6457
   66CHL1    C5 7298   5.513   4.670  10.194 -0.1615  0.3643 -0.0071
   66CHL1    C6 7299   5.415   4.604  10.135  0.8577  0.1609  0.3230
   66CHL1    H6 7300   5.346   4.539  10.191 -2.2941  0.5691 -2.7362
   66CHL1    C7 7301   5.401   4.577   9.985 -0.2315 -0.2027 -0.9016
   66CHL1   H7A 7302   5.388   4.467   9.969  3.5132 -1.7292  3.9142
   66CHL1   H7B 7303   5.311   4.631   9.949 -0.0306  1.0730  0.4338
   66CHL1    C8 7304   5.519   4.633   9.898 -0.9659 -0.1606  0.1631
   66CHL1    H8 7305   5.601   4.559   9.906  0.1094  1.0360  0.4561
   66CHL1   C14 7306   5.473   4.665   9.764  0.3030  0.2178 -0.4972
   66CHL1   H14 7307   5.397   4.744   9.783  0.2168 -0.3931  2.0452
   66CHL1   C15 7308   5.402   4.561   9.681 -0.4261 -0.2725 -0.1691
   66CHL1  H15A 7309   5.455   4.464   9.693 -0.1489  0.1589  2.7694
   66CHL1  H15B 7310   5.299   4.559   9.722 -0.7221 -3.6177 -0.7751
   66CHL1   C16 7311   5.419   4.614   9.539  0.3223  0.5372  0.0302
   66CHL1  H16A 7312   5.449   4.527   9.478  2.2760  1.1094  0.1151
   66CHL1  H16B 7313   5.321   4.646   9.497 -0.2279 -0.6813  0.3674
   66CHL1   C17 7314   5.534   4.721   9.539 -0.3563  0.1602  0.1391
   66CHL1   H17 7315   5.484   4.819   9.525 -0.5772 -0.2052 -1.9272
   66CHL1   C13 7316   5.590   4.719   9.678  0.5989 -0.3006 -0.3079
   66CHL1   C18 7317   5.710   4.618   9.685  0.3032  0.3863 -0.5908
   66CHL1  H18A 7318   5.675   4.522   9.641 -0.4911  1.5507 -2.6418
   66CHL1  H18B 7319   5.795   4.663   9.629 -0.5837  0.7362 -1.6871
   66CHL1  H18C 7320   5.738   4.611   9.793 -0.4021  1.2893 -0.3317
   66CHL1   C12 7321   5.633   4.863   9.723  0.0028 -0.1221  0.1028
   66CHL1  H12A 7322   5.718   4.916   9.675  0.1969 -0.5732 -0.0631
   66CHL1  H12B 7323   5.543   4.925   9.703  0.6894  0.7396 -0.4066
   66CHL1   C11 7324   5.663   4.859   9.873  0.5148  0.0054  0.2643
   66CHL1  H11A 7325   5.770   4.833   9.886 -0.0863 -2.2152  1.1602
   66CHL1  H11B 7326   5.644   4.960   9.915  2.0194  0.6553 -0.5311
   66CHL1    C9 7327   5.566   4.772   9.962  0.5541 -0.0805 -0.0768
   66CHL1    H9 7328   5.470   4.826   9.956  0.1317 -0.8540 -0.5035
   66CHL1   C10 7329   5.609   4.754  10.107  0.3179 -0.3679 -0.0717
   66CHL1   C19 7330   5.742   4.684  10.113 -0.5938 -0.5983 -0.4973
   66CHL1  H19A 7331   5.782   4.678  10.216  1.6678  1.2244 -1.1872
   66CHL1  H19B 7332   5.727   4.581  10.074 -0.4706 -0.1134 -1.8812
   66CHL1  H19C 7333   5.827   4.729  10.058 -0.1494 -1.4888 -0.5493
   66CHL1    C1 7334   5.619   4.897  10.170 -0.4651  0.0012 -1.0620
   66CHL1   H1A 7335   5.685   4.971  10.121  0.1638  0.4714  0.4496
   66CHL1   H1B 7336   5.519   4.942  10.156 -1.8100 -1.6881  1.9275
   66CHL1    C2 7337   5.659   4.893  10.315  0.3321 -0.6850  0.7722
   66CHL1   H2A 7338   5.658   5.000  10.343 -0.3172 -0.6279  0.5515
   66CHL1   H2B 7339   5.763   4.856  10.326  0.9923  1.2217  1.4217
   66CHL1   C20 7340   5.624   4.714   9.416  0.1035 -0.6676 -0.1385
   66CHL1   H20 7341   5.689   4.625   9.429  0.9761 -0.4716 -2.6861
   66CHL1   C21 7342   5.714   4.840   9.418 -0.6598 -0.1263 -0.2621
   66CHL1  H21A 7343   5.769   4.851   9.322 -0.2979 -0.4821 -0.0972
   66CHL1  H21B 7344   5.792   4.826   9.496 -0.7263 -0.3325 -0.2333
   66CHL1  H21C 7345   5.654   4.931   9.443  0.1064  0.1422  0.6889
   66CHL1   C22 7346   5.552   4.712   9.274  0.7806  0.0750 -0.6444
   66CHL1  H22A 7347   5.488   4.621   9.279  2.8924 -1.4572 -0.1018
   66CHL1  H22B 7348   5.491   4.802   9.254  0.6561  0.5590  1.6807
   66CHL1   C23 7349   5.647   4.687   9.154 -0.4661  0.3894  0.4157
   66CHL1  H23A 7350   5.579   4.709   9.068 -0.4741  0.0661  0.3383
   66CHL1  H23B 7351   5.732   4.759   9.155 -1.9351  2.2432  2.3151
   66CHL1   C24 7352   5.691   4.535   9.144 -0.3145  0.4644  0.5706
   66CHL1  H24A 7353   5.758   4.508   9.228  2.1205 -0.4412 -1.5609
   66CHL1  H24B 7354   5.601   4.469   9.146 -1.5077  2.0384  1.3234
   66CHL1   C25 7355   5.792   4.480   9.026  0.7848 -0.3099 -0.8445
   66CHL1   H25 7356   5.789   4.369   9.031  0.2033 -0.2620 -0.0448
   66CHL1   C26 7357   5.745   4.531   8.889  0.2547  0.3284  0.0441
   66CHL1  H26A 7358   5.666   4.471   8.839 -0.8186  1.2850  0.5672
   66CHL1  H26B 7359   5.722   4.638   8.906 -2.0224 -0.2953  1.1961
   66CHL1  H26C 7360   5.832   4.536   8.820 -0.6724  0.7336 -1.1177
   66CHL1   C27 7361   5.940   4.509   9.056 -0.8202  0.2487  0.5676
   66CHL1  H27A 7362   6.003   4.463   8.977 -0.9412 -1.1229  1.2239
   66CHL1  H27B 7363   5.950   4.619   9.057 -0.7250  0.2409  0.4734
   66CHL1  H27C 7364   5.968   4.461   9.152  0.2161 -0.3146  0.0002
   67CHL1    C3 7365   4.179   6.177  10.187 -1.0025 -0.9407  0.4627
   67CHL1    H3 7366   4.087   6.165  10.126  0.7803 -0.4527 -2.5798
   67CHL1    O3 7367   4.159   6.091  10.295 -0.7737 -0.3986  0.3532
   67CHL1   H3' 7368   4.125   6.149  10.364  3.1209  2.7906 -0.0325
   67CHL1    C4 7369   4.297   6.136  10.103 -0.2390  1.0749 -0.5605
   67CHL1   H4A 7370   4.385   6.140  10.170 -0.4015 -0.2341 -0.2487
   67CHL1   H4B 7371   4.286   6.027  10.083  1.7140  0.7066  0.1947
   67CHL1    C5 7372   4.316   6.214   9.975  0.0140  0.1496 -0.1290
   67CHL1    C6 7373   4.320   6.150   9.857 -0.2800  0.3291 -0.1105
   67CHL1    H6 7374   4.329   6.041   9.850  1.3020  0.4162  0.1817
   67CHL1    C7 7375   4.359   6.233   9.733  0.3530  0.7515 -0.5216
   67CHL1   H7A 7376   4.442   6.185   9.678 -1.0182 -1.4740 -0.7960
   67CHL1   H7B 7377   4.278   6.227   9.657 -0.0960 -1.9952  0.0624
   67CHL1    C8 7378   4.391   6.379   9.749 -0.5874 -0.3351  0.2933
   67CHL1    H8 7379   4.497   6.400   9.773 -0.7910  1.5041 -0.2635
   67CHL1   C14 7380   4.352   6.457   9.621  0.2738  1.4869  0.6303
   67CHL1   H14 7381   4.242   6.441   9.621  0.4432 -0.1588  2.8207
   67CHL1   C15 7382   4.395   6.410   9.484  0.5832 -0.4373  0.7095
   67CHL1  H15A 7383   4.505   6.391   9.482  0.1548 -3.2270  0.1634
   67CHL1  H15B 7384   4.350   6.320   9.439  1.7711 -1.1866  0.9632
   67CHL1   C16 7385   4.358   6.526   9.385 -0.4594  0.3245 -0.2656
   67CHL1  H16A 7386   4.453   6.560   9.338 -0.4510  0.4051 -0.1899
   67CHL1  H16B 7387   4.289   6.495   9.304  0.2524 -1.9944 -0.0730
   67CHL1   C17 7388   4.305   6.640   9.475  0.2764 -0.2822 -0.6483
   67CHL1   H17 7389   4.195   6.638   9.487  0.1295  1.8515 -1.1329
   67CHL1   C13 7390   4.368   6.607   9.617  0.4397  0.1523 -0.2604
   67CHL1   C18 7391   4.521   6.644   9.616  0.1059 -0.0301  0.4782
   67CHL1  H18A 7392   4.562   6.607   9.519  1.0014 -1.7036  1.4587
   67CHL1  H18B 7393   4.533   6.754   9.625  1.3740 -0.3212  3.4238
   67CHL1  H18C 7394   4.586   6.605   9.697 -1.3953  0.9280  2.2150
   67CHL1   C12 7395   4.291   6.664   9.730  0.3094 -0.5266  0.4275
   67CHL1  H12A 7396   4.307   6.773   9.748  0.8715 -0.9119  2.5433
   67CHL1  H12B 7397   4.184   6.655   9.704  0.7007 -0.3630 -1.4430
   67CHL1   C11 7398   4.325   6.600   9.866  0.4232  0.9967  0.0173
   67CHL1  H11A 7399   4.426   6.633   9.900  0.8694  1.2403 -1.4862
   67CHL1  H11B 7400   4.261   6.647   9.943 -1.2229 -1.9304  0.6167
   67CHL1    C9 7401   4.309   6.444   9.862 -0.1124 -0.1108 -0.1328
   67CHL1    H9 7402   4.201   6.428   9.838 -0.0312  1.3891 -1.7098
   67CHL1   C10 7403   4.325   6.367   9.991  0.5155 -1.1014 -0.1844
   67CHL1   C19 7404   4.459   6.408  10.058  0.6029  0.3209  0.0255
   67CHL1  H19A 7405   4.479   6.351  10.152  2.0000  0.2032 -0.3255
   67CHL1  H19B 7406   4.537   6.393   9.980  1.6832 -2.0472  1.4195
   67CHL1  H19C 7407   4.459   6.516  10.082  2.2638  0.5997 -1.0465
   67CHL1    C1 7408   4.204   6.401  10.092 -0.8451 -0.4481  0.1454
   67CHL1   H1A 7409   4.227   6.505  10.124 -2.5817  0.4985 -1.4898
   67CHL1   H1B 7410   4.105   6.389  10.043 -1.1359 -3.5565  1.2925
   67CHL1    C2 7411   4.203   6.323  10.220 -0.2347 -0.4952 -0.4916
   67CHL1   H2A 7412   4.124   6.355  10.292  0.3749 -1.6518  0.7319
   67CHL1   H2B 7413   4.292   6.335  10.286 -1.5393 -0.5717  1.3514
   67CHL1   C20 7414   4.316   6.780   9.408 -0.3038 -0.7832  0.4464
   67CHL1   H20 7415   4.421   6.814   9.390 -1.4182  1.9671 -1.5314
   67CHL1   C21 7416   4.273   6.882   9.512  0.2297 -0.7960 -0.5538
   67CHL1  H21A 7417   4.171   6.863   9.552  0.7078 -0.1326  1.0230
   67CHL1  H21B 7418   4.278   6.987   9.476 -2.9890  0.6588  2.6167
   67CHL1  H21C 7419   4.348   6.879   9.594  0.7537 -0.4174 -1.0064
   67CHL1   C22 7420   4.246   6.799   9.276  0.6118 -0.3440  1.0540
   67CHL1  H22A 7421   4.270   6.712   9.211  0.4444  0.9198 -0.7905
   67CHL1  H22B 7422   4.139   6.778   9.294  0.1772  0.4530 -0.4522
   67CHL1   C23 7423   4.281   6.931   9.197 -0.1898  0.0123  0.6398
   67CHL1  H23A 7424   4.267   7.018   9.264 -1.7623  0.8173 -0.6701
   67CHL1  H23B 7425   4.384   6.924   9.156  0.0045 -0.3491  1.1736
   67CHL1   C24 7426   4.182   6.948   9.081  0.6486 -0.4631 -0.2938
   67CHL1  H24A 7427   4.186   6.857   9.018  1.5982 -1.8569  1.6829
   67CHL1  H24B 7428   4.081   6.955   9.126  0.0658  0.4012 -1.6733
   67CHL1   C25 7429   4.214   7.078   9.000 -0.0482 -0.9074 -0.0211
   67CHL1   H25 7430   4.321   7.069   8.970  0.2381  1.8466 -0.0280
   67CHL1   C26 7431   4.126   7.085   8.869 -0.4983 -0.1563 -0.5456
   67CHL1  H26A 7432   4.161   7.016   8.789  0.6115 -2.7125  1.9535
   67CHL1  H26B 7433   4.020   7.083   8.900 -0.2832 -1.4450  0.2320
   67CHL1  H26C 7434   4.157   7.179   8.819 -2.1686  1.1261  0.7113
   67CHL1   C27 7435   4.197   7.210   9.083 -0.3692 -0.5998 -0.3703
   67CHL1  H27A 7436   4.260   7.205   9.175 -0.0387  0.4920 -0.5205
   67CHL1  H27B 7437   4.229   7.300   9.027  1.2850 -0.8093  0.1856
   67CHL1  H27C 7438   4.089   7.227   9.107  0.2548  0.3129  2.1306
   68CHL1    C3 7439   1.522   6.101  10.176  0.2584 -0.5315  0.0063
   68CHL1    H3 7440   1.611   6.051  10.133  1.3536  1.0228  0.3824
   68CHL1    O3 7441   1.522   6.093  10.320 -0.4026  0.0478  0.1109
   68CHL1   H3' 7442   1.465   6.166  10.347  0.5529  1.0955 -0.6114
   68CHL1    C4 7443   1.531   6.253  10.146  1.0035 -0.3210 -0.5792
   68CHL1   H4A 7444   1.454   6.308  10.204  1.1597  0.4855 -1.1249
   68CHL1   H4B 7445   1.630   6.281  10.187  1.0108 -0.2929 -0.6156
   68CHL1    C5 7446   1.517   6.275   9.999  0.2578 -0.0775 -0.3587
   68CHL1    C6 7447   1.624   6.335   9.942  0.0207  0.3760  0.8619
   68CHL1    H6 7448   1.709   6.365  10.004  0.7732 -1.3063  0.7099
   68CHL1    C7 7449   1.628   6.374   9.793  0.0575 -0.0953  0.1085
   68CHL1   H7A 7450   1.663   6.479   9.777 -1.1014  0.3641  0.5440
   68CHL1   H7B 7451   1.706   6.312   9.743  1.5008  1.5033  0.2520
   68CHL1    C8 7452   1.483   6.368   9.735 -0.0915  0.2541  0.7669
   68CHL1    H8 7453   1.432   6.460   9.770  0.4910  1.3449 -1.1309
   68CHL1   C14 7454   1.473   6.366   9.584 -0.5057  0.5975  0.0579
   68CHL1   H14 7455   1.516   6.267   9.558 -2.3492  0.0561 -1.1176
   68CHL1   C15 7456   1.551   6.479   9.512 -0.2664 -0.4247 -0.4458
   68CHL1  H15A 7457   1.539   6.568   9.576  0.5548 -1.2219  0.8784
   68CHL1  H15B 7458   1.656   6.443   9.521 -0.0600 -0.3909 -2.2386
   68CHL1   C16 7459   1.492   6.477   9.372 -0.2275  0.5314  0.0597
   68CHL1  H16A 7460   1.442   6.564   9.325 -2.5850 -1.9023 -2.3132
   68CHL1  H16B 7461   1.571   6.434   9.306  0.5759 -0.5468  1.6460
   68CHL1   C17 7462   1.374   6.373   9.371  0.9673 -0.1823 -0.0205
   68CHL1   H17 7463   1.412   6.278   9.330 -0.5299 -0.3468 -1.1242
   68CHL1   C13 7464   1.334   6.358   9.518 -0.5104 -0.7122 -0.1075
   68CHL1   C18 7465   1.256   6.486   9.555 -0.4706  0.7644  0.0758
   68CHL1  H18A 7466   1.162   6.467   9.499 -0.0898  0.1095 -0.3511
   68CHL1  H18B 7467   1.235   6.501   9.663 -0.8239  1.3956 -0.0795
   68CHL1  H18C 7468   1.294   6.581   9.512  1.6659  0.4099  1.0479
   68CHL1   C12 7469   1.268   6.229   9.556  0.1740 -0.7624 -0.1967
   68CHL1  H12A 7470   1.162   6.216   9.526 -0.3682  0.4533  1.0519
   68CHL1  H12B 7471   1.333   6.145   9.524  1.6290 -0.1430  0.9789
   68CHL1   C11 7472   1.267   6.208   9.708 -1.0000  0.2740 -0.7296
   68CHL1  H11A 7473   1.197   6.278   9.758 -1.4265 -0.0192 -0.9187
   68CHL1  H11B 7474   1.240   6.103   9.728 -1.6648  0.2665 -1.6149
   68CHL1    C9 7475   1.405   6.235   9.777  0.2301 -0.1220 -0.7156
   68CHL1    H9 7476   1.472   6.152   9.745  1.7335  0.3729  0.9528
   68CHL1   C10 7477   1.396   6.222   9.927  0.4479 -0.1845 -0.4936
   68CHL1   C19 7478   1.280   6.314   9.985 -0.0716 -0.3751 -0.1980
   68CHL1  H19A 7479   1.177   6.273   9.974 -1.5695  2.9802 -0.1213
   68CHL1  H19B 7480   1.287   6.351  10.089  1.7234 -1.0094 -0.0718
   68CHL1  H19C 7481   1.276   6.406   9.923  1.5285 -1.0737 -1.3964
   68CHL1    C1 7482   1.369   6.080   9.972 -0.0641  0.1164  0.0852
   68CHL1   H1A 7483   1.263   6.052   9.954  0.0266 -0.1866  0.0210
   68CHL1   H1B 7484   1.441   6.014   9.920 -0.2411  0.0218 -0.0387
   68CHL1    C2 7485   1.388   6.044  10.120 -0.1456 -0.5813  0.1257
   68CHL1   H2A 7486   1.398   5.935  10.139  2.2001 -0.4488  0.0353
   68CHL1   H2B 7487   1.297   6.078  10.174  0.7468 -2.2716  2.8754
   68CHL1   C20 7488   1.268   6.410   9.262  0.1033 -0.1631  0.2370
   68CHL1   H20 7489   1.216   6.507   9.278  0.2375  0.3060 -1.8755
   68CHL1   C21 7490   1.164   6.288   9.261 -0.0444 -0.4868  0.6706
   68CHL1  H21A 7491   1.107   6.280   9.356 -1.2166  2.2923  0.2910
   68CHL1  H21B 7492   1.220   6.195   9.240  2.1810  0.9712 -0.2017
   68CHL1  H21C 7493   1.094   6.306   9.177  0.8917  0.5192  0.0862
   68CHL1   C22 7494   1.342   6.421   9.130  0.1325  0.2840  0.0974
   68CHL1  H22A 7495   1.430   6.488   9.134 -0.1441  0.5974  1.9699
   68CHL1  H22B 7496   1.382   6.321   9.105 -1.7187 -1.2367  2.6925
   68CHL1   C23 7497   1.251   6.456   9.017 -0.1576 -0.2890  0.4783
   68CHL1  H23A 7498   1.144   6.428   9.027  0.1830 -1.6580  0.5770
   68CHL1  H23B 7499   1.251   6.563   8.990 -1.4572 -0.4442 -0.2092
   68CHL1   C24 7500   1.294   6.385   8.886 -0.1714 -0.2079  0.9592
   68CHL1  H24A 7501   1.404   6.400   8.880 -0.1316 -0.9282 -2.2976
   68CHL1  H24B 7502   1.264   6.278   8.883 -0.4568 -0.1128 -0.1938
   68CHL1   C25 7503   1.250   6.438   8.746  0.4263 -0.2291 -0.3279
   68CHL1   H25 7504   1.289   6.364   8.672 -1.4892 -3.4577  1.6183
   68CHL1   C26 7505   1.091   6.426   8.734 -0.2419  0.2941  0.2509
   68CHL1  H26A 7506   1.038   6.506   8.790 -0.8127  0.4697 -0.5337
   68CHL1  H26B 7507   1.067   6.435   8.626 -1.0119 -1.2779  0.2635
   68CHL1  H26C 7508   1.064   6.324   8.769  1.2510 -1.3598 -2.9477
   68CHL1   C27 7509   1.284   6.583   8.702 -0.4057  0.4535 -0.7410
   68CHL1  H27A 7510   1.394   6.594   8.702  0.0203 -2.2882  2.2025
   68CHL1  H27B 7511   1.233   6.600   8.605 -1.1835  2.5111 -0.0372
   68CHL1  H27C 7512   1.237   6.641   8.785 -0.7863  0.9591 -1.3011
   69CHL1    C3 7513   4.563   5.229   6.921 -0.1361  0.1382 -0.3545
   69CHL1    H3 7514   4.661   5.251   6.968 -1.2119  2.1082  1.1527
   69CHL1    O3 7515   4.599   5.222   6.784 -0.0779 -0.3640  0.2843
   69CHL1   H3' 7516   4.524   5.175   6.744 -0.5404  1.3161 -0.9305
   69CHL1    C4 7517   4.502   5.103   6.984 -0.3256 -0.4407 -0.0134
   69CHL1   H4A 7518   4.407   5.077   6.932 -0.6896  1.7082 -0.5306
   69CHL1   H4B 7519   4.577   5.024   6.963 -1.2390 -1.3479  0.0782
   69CHL1    C5 7520   4.470   5.121   7.130  0.2838 -0.2908  0.0892
   69CHL1    C6 7521   4.523   5.027   7.206  0.0330 -0.5225  0.6900
   69CHL1    H6 7522   4.582   4.943   7.166 -0.4698 -0.8703  0.6743
   69CHL1    C7 7523   4.498   5.022   7.355  0.1132 -0.2368  0.6399
   69CHL1   H7A 7524   4.489   4.917   7.390  1.0115  0.2766  2.5964
   69CHL1   H7B 7525   4.595   5.064   7.391 -0.7974 -0.2337  3.3664
   69CHL1    C8 7526   4.386   5.123   7.401  0.6778 -0.1476 -0.2627
   69CHL1    H8 7527   4.289   5.073   7.377 -0.2407  0.8098  1.3080
   69CHL1   C14 7528   4.407   5.155   7.554  0.3016 -0.0428  0.9377
   69CHL1   H14 7529   4.508   5.200   7.566  1.5018 -1.5130 -2.3341
   69CHL1   C15 7530   4.407   5.033   7.646 -0.0026 -0.2220  0.1001
   69CHL1  H15A 7531   4.321   4.969   7.619  0.0653  0.2292 -1.2475
   69CHL1  H15B 7532   4.503   4.977   7.642 -0.6563 -1.5599  1.9382
   69CHL1   C16 7533   4.380   5.093   7.783  0.7215  0.1689 -0.4977
   69CHL1  H16A 7534   4.303   5.027   7.828  1.6887 -1.2970 -0.9203
   69CHL1  H16B 7535   4.469   5.086   7.849 -0.5766 -1.3413  1.1943
   69CHL1   C17 7536   4.327   5.237   7.763 -0.0781 -0.3441 -0.0981
   69CHL1   H17 7537   4.419   5.298   7.773  0.6097 -1.3836  0.0871
   69CHL1   C13 7538   4.296   5.240   7.609 -0.0199  0.9407  0.0488
   69CHL1   C18 7539   4.156   5.168   7.593  0.3096 -0.3036  0.5559
   69CHL1  H18A 7540   4.137   5.073   7.648  1.7218 -0.0851  1.5000
   69CHL1  H18B 7541   4.080   5.241   7.627 -0.0781 -1.0988  1.4735
   69CHL1  H18C 7542   4.149   5.146   7.485  1.1894  1.0646  0.1945
   69CHL1   C12 7543   4.311   5.380   7.532  0.1132 -0.2273 -0.2135
   69CHL1  H12A 7544   4.232   5.449   7.568  0.9699  0.9298 -0.4725
   69CHL1  H12B 7545   4.408   5.431   7.550  0.6246 -1.2469 -0.0259
   69CHL1   C11 7546   4.289   5.370   7.382 -0.1395 -0.1709  0.4215
   69CHL1  H11A 7547   4.185   5.341   7.357 -0.4200  2.6706 -2.2114
   69CHL1  H11B 7548   4.318   5.466   7.336  2.7239 -1.0822  0.1263
   69CHL1    C9 7549   4.388   5.259   7.322  0.5818 -0.0728 -0.2372
   69CHL1    H9 7550   4.483   5.314   7.336  1.5212 -0.0605 -4.8497
   69CHL1   C10 7551   4.384   5.244   7.163  0.7824  0.5383 -0.2911
   69CHL1   C19 7552   4.239   5.222   7.108  0.2855  0.3314  0.6901
   69CHL1  H19A 7553   4.243   5.204   6.998 -0.0124  2.0229  0.3802
   69CHL1  H19B 7554   4.192   5.135   7.159  0.4276 -0.7273 -0.8987
   69CHL1  H19C 7555   4.181   5.312   7.137  1.6163  1.3491  0.3325
   69CHL1    C1 7556   4.447   5.371   7.103  0.1804 -0.0491  0.7174
   69CHL1   H1A 7557   4.397   5.465   7.137  0.3467  0.0452  0.7030
   69CHL1   H1B 7558   4.542   5.399   7.154  0.3870  0.1955  0.2043
   69CHL1    C2 7559   4.477   5.355   6.945 -0.5109  0.3136  0.0853
   69CHL1   H2A 7560   4.515   5.450   6.901  0.1866 -0.2597 -0.5686
   69CHL1   H2B 7561   4.387   5.347   6.880  1.1501  0.8491 -2.4363
   69CHL1   C20 7562   4.231   5.290   7.873 -0.1589  0.7393  0.5777
   69CHL1   H20 7563   4.137   5.230   7.871 -1.2645  2.3135 -3.2747
   69CHL1   C21 7564   4.173   5.426   7.849 -0.7699  0.1212  0.0686
   69CHL1  H21A 7565   4.257   5.498   7.850 -0.1743 -0.5366 -0.8049
   69CHL1  H21B 7566   4.100   5.460   7.926 -0.0755 -0.0191  0.8080
   69CHL1  H21C 7567   4.121   5.454   7.755 -0.5246  0.0182 -0.0974
   69CHL1   C22 7568   4.295   5.259   8.015  0.9104  0.1474 -0.2175
   69CHL1  H22A 7569   4.322   5.153   8.034 -0.5036 -0.5992 -1.9976
   69CHL1  H22B 7570   4.396   5.306   8.016  0.7396  0.5282 -0.4575
   69CHL1   C23 7571   4.207   5.320   8.127 -0.1609 -0.0993 -0.4980
   69CHL1  H23A 7572   4.185   5.428   8.140  2.3354  0.4237  0.0314
   69CHL1  H23B 7573   4.115   5.258   8.123  0.9296 -1.9962  1.4072
   69CHL1   C24 7574   4.260   5.284   8.268 -0.0572  0.1672 -0.4442
   69CHL1  H24A 7575   4.256   5.173   8.282 -1.0525  0.2778  0.2692
   69CHL1  H24B 7576   4.366   5.308   8.286 -0.3582  1.0723  0.1721
   69CHL1   C25 7577   4.171   5.337   8.392 -0.2010 -0.0403 -1.0289
   69CHL1   H25 7578   4.182   5.448   8.386  0.1897 -0.1043 -1.5595
   69CHL1   C26 7579   4.019   5.308   8.382 -0.2677 -0.4041  0.7984
   69CHL1  H26A 7580   3.985   5.375   8.301 -0.9479  0.8465  2.0687
   69CHL1  H26B 7581   3.994   5.200   8.372 -0.1002 -0.4419  0.7901
   69CHL1  H26C 7582   3.974   5.350   8.475  1.0594  1.2397  0.7384
   69CHL1   C27 7583   4.218   5.288   8.525 -0.4869 -0.0555  0.7771
   69CHL1  H27A 7584   4.216   5.178   8.536 -0.3274 -0.1335  0.0918
   69CHL1  H27B 7585   4.322   5.325   8.542 -0.2891 -0.8759  1.3818
   69CHL1  H27C 7586   4.156   5.335   8.605 -0.2399 -1.5196  1.8755
   70CHL1    C3 7587   4.050   3.444   7.004 -1.0657 -0.4332 -0.1132
   70CHL1    H3 7588   4.004   3.344   6.987 -1.0613 -0.7240  1.4203
   70CHL1    O3 7589   4.044   3.519   6.885  0.3917  0.3661 -0.2397
   70CHL1   H3' 7590   4.031   3.448   6.822  4.3845  0.3079 -1.2112
   70CHL1    C4 7591   3.962   3.518   7.104  0.3010  0.1750 -0.1962
   70CHL1   H4A 7592   3.985   3.627   7.104  1.6146 -0.0786 -0.0661
   70CHL1   H4B 7593   3.862   3.502   7.058  1.1596 -1.3760 -1.6580
   70CHL1    C5 7594   3.983   3.456   7.243  0.1385  0.6810  0.5925
   70CHL1    C6 7595   3.878   3.401   7.305 -0.4656  0.5250  0.3809
   70CHL1    H6 7596   3.781   3.410   7.253 -0.3457  2.4565  0.4384
   70CHL1    C7 7597   3.880   3.343   7.444 -0.6734 -0.2184  0.8889
   70CHL1   H7A 7598   3.800   3.370   7.516  1.1689 -0.0792  2.9924
   70CHL1   H7B 7599   3.879   3.232   7.437  0.2962 -0.3822  2.7262
   70CHL1    C8 7600   4.008   3.378   7.516  0.4915  0.2863 -0.3132
   70CHL1    H8 7601   4.010   3.485   7.548 -0.4939 -0.1107  1.1807
   70CHL1   C14 7602   4.024   3.283   7.637 -0.3412  0.2257 -0.0088
   70CHL1   H14 7603   4.014   3.180   7.597  0.1837 -0.0125  0.4535
   70CHL1   C15 7604   3.914   3.279   7.752 -0.2312  0.2692  0.6167
   70CHL1  H15A 7605   3.887   3.385   7.769  1.6858  0.5100  2.4605
   70CHL1  H15B 7606   3.823   3.223   7.722  0.5531  0.1639 -1.7869
   70CHL1   C16 7607   3.989   3.223   7.874  0.0618 -0.6858  0.5739
   70CHL1  H16A 7608   3.989   3.314   7.939  0.7450  0.7265 -1.2951
   70CHL1  H16B 7609   3.946   3.131   7.918  2.2765 -1.0417  2.1427
   70CHL1   C17 7610   4.135   3.191   7.826  0.0184  0.1471 -0.3120
   70CHL1   H17 7611   4.129   3.092   7.778  2.0816  0.5115 -1.4231
   70CHL1   C13 7612   4.156   3.284   7.706 -1.0300 -0.4915 -0.8688
   70CHL1   C18 7613   4.180   3.435   7.759  0.1586 -0.0417 -0.2413
   70CHL1  H18A 7614   4.183   3.514   7.682 -0.8494 -0.8133 -1.1011
   70CHL1  H18B 7615   4.102   3.468   7.831  1.4517  1.2506  0.6303
   70CHL1  H18C 7616   4.277   3.435   7.814  0.9178  0.3116 -1.5455
   70CHL1   C12 7617   4.269   3.249   7.608  0.4591  0.2939 -0.7870
   70CHL1  H12A 7618   4.362   3.271   7.665 -0.5938 -0.9325  1.5958
   70CHL1  H12B 7619   4.260   3.139   7.590 -2.9096  0.0740  1.2037
   70CHL1   C11 7620   4.262   3.349   7.495  0.4250  0.3392  0.1252
   70CHL1  H11A 7621   4.284   3.452   7.532  1.7670  0.1522 -0.0949
   70CHL1  H11B 7622   4.342   3.311   7.428  0.2580  1.0549 -0.5058
   70CHL1    C9 7623   4.130   3.361   7.421  0.0135  0.0958 -0.1807
   70CHL1    H9 7624   4.120   3.256   7.386  1.6496 -0.3704  0.6368
   70CHL1   C10 7625   4.125   3.449   7.295 -0.3954  0.0726 -0.4527
   70CHL1   C19 7626   4.169   3.588   7.332 -0.4500 -0.2675  0.3435
   70CHL1  H19A 7627   4.121   3.635   7.420  0.6511  1.1426  0.2269
   70CHL1  H19B 7628   4.277   3.594   7.359 -0.0783 -0.6072 -0.9953
   70CHL1  H19C 7629   4.160   3.648   7.238 -0.7804  0.3608  0.7705
   70CHL1    C1 7630   4.207   3.374   7.189  0.1384 -0.4179  0.4197
   70CHL1   H1A 7631   4.315   3.375   7.215  0.3615  1.4733 -0.4113
   70CHL1   H1B 7632   4.172   3.269   7.176 -2.3964  0.2143  1.5829
   70CHL1    C2 7633   4.200   3.442   7.047 -0.2177 -0.5414 -0.9232
   70CHL1   H2A 7634   4.251   3.383   6.968 -0.8875  0.1089 -1.8760
   70CHL1   H2B 7635   4.240   3.545   7.045 -0.4230 -0.4682 -2.5835
   70CHL1   C20 7636   4.235   3.182   7.945  0.0827 -0.2022 -0.4772
   70CHL1   H20 7637   4.229   3.288   7.978  1.4899 -0.1986 -0.1865
   70CHL1   C21 7638   4.377   3.150   7.895  0.1117 -0.2025 -0.7877
   70CHL1  H21A 7639   4.423   3.223   7.826  2.8558  0.5760  1.6691
   70CHL1  H21B 7640   4.374   3.049   7.849 -2.4076 -1.3882  1.6599
   70CHL1  H21C 7641   4.449   3.141   7.979 -0.8590 -1.1783 -0.0228
   70CHL1   C22 7642   4.186   3.099   8.064 -0.7512  0.1662  0.0055
   70CHL1  H22A 7643   4.091   3.142   8.101 -0.7619 -1.4704  2.0826
   70CHL1  H22B 7644   4.169   2.994   8.034  1.4208 -0.6848  1.4749
   70CHL1   C23 7645   4.280   3.084   8.185  0.2768  0.0312 -0.6993
   70CHL1  H23A 7646   4.377   3.045   8.149  0.5436 -0.5123  0.5394
   70CHL1  H23B 7647   4.293   3.188   8.221  0.2223  0.8697 -2.9653
   70CHL1   C24 7648   4.227   2.977   8.290 -0.1224 -0.3844  0.0843
   70CHL1  H24A 7649   4.122   3.003   8.317  0.0506 -0.6933  1.1197
   70CHL1  H24B 7650   4.230   2.881   8.234  2.3398  0.3869 -1.2378
   70CHL1   C25 7651   4.316   2.954   8.416  0.3223 -0.0510  0.6348
   70CHL1   H25 7652   4.262   2.889   8.488 -0.8423  1.0235  0.7461
   70CHL1   C26 7653   4.451   2.885   8.376 -0.2481  0.7168 -0.3448
   70CHL1  H26A 7654   4.514   2.883   8.467 -0.8466 -1.5186  0.0853
   70CHL1  H26B 7655   4.440   2.777   8.353  2.3542 -0.1982  2.1294
   70CHL1  H26C 7656   4.488   2.930   8.282 -0.9126  0.1262 -0.9045
   70CHL1   C27 7657   4.349   3.078   8.501  0.0596  0.4356  0.1728
   70CHL1  H27A 7658   4.256   3.125   8.539  0.0290  0.3783  0.1672
   70CHL1  H27B 7659   4.415   3.057   8.588  1.8274 -0.1198 -1.2339
   70CHL1  H27C 7660   4.396   3.155   8.435  2.4245  1.3238  2.6775
   71CHL1    C3 7661   1.853   2.325   6.888  1.0265  0.9713 -0.1317
   71CHL1    H3 7662   1.776   2.403   6.909  0.9133  1.5515 -2.4572
   71CHL1    O3 7663   1.883   2.316   6.751  0.2863  0.0323 -0.5299
   71CHL1   H3' 7664   1.966   2.268   6.754 -0.6777 -1.7100  0.0249
   71CHL1    C4 7665   1.973   2.369   6.962  0.0648 -0.0683  0.7324
   71CHL1   H4A 7666   2.050   2.289   6.953  0.0158 -0.0985  0.5810
   71CHL1   H4B 7667   2.011   2.466   6.924 -0.5570  0.6291  1.8434
   71CHL1    C5 7668   1.953   2.371   7.109  0.0972 -0.2448  0.0506
   71CHL1    C6 7669   1.980   2.488   7.179 -0.4404  0.1695 -0.7902
   71CHL1    H6 7670   2.018   2.576   7.126  0.9997 -0.4674 -0.8760
   71CHL1    C7 7671   1.965   2.506   7.328  0.1003  0.2529  0.4380
   71CHL1   H7A 7672   2.065   2.535   7.367  0.3281 -1.4096  1.1694
   71CHL1   H7B 7673   1.890   2.587   7.342 -0.1622  0.0302  0.3437
   71CHL1    C8 7674   1.919   2.385   7.401 -0.7106 -0.0497  0.4859
   71CHL1    H8 7675   2.010   2.327   7.429 -0.7749 -0.3012  0.1779
   71CHL1   C14 7676   1.843   2.419   7.533  0.0386  0.2203  0.9359
   71CHL1   H14 7677   1.748   2.465   7.498 -0.1955 -0.5780  0.4861
   71CHL1   C15 7678   1.911   2.516   7.627 -0.0826 -0.4478 -0.8877
   71CHL1  H15A 7679   2.022   2.506   7.623 -0.1437 -0.7358 -2.2687
   71CHL1  H15B 7680   1.873   2.612   7.586 -1.3933 -0.3291  0.5054
   71CHL1   C16 7681   1.843   2.494   7.765  0.7150  0.2561 -0.2864
   71CHL1  H16A 7682   1.921   2.469   7.840 -0.5267 -2.6928  0.1812
   71CHL1  H16B 7683   1.793   2.589   7.794  2.8977  2.4181 -3.0059
   71CHL1   C17 7684   1.748   2.375   7.734  0.1944 -0.3879 -0.5503
   71CHL1   H17 7685   1.657   2.426   7.696 -0.5070 -0.9828  0.2666
   71CHL1   C13 7686   1.798   2.301   7.613 -0.1422  0.1123 -0.0992
   71CHL1   C18 7687   1.918   2.215   7.655 -0.1430  0.1054 -0.2335
   71CHL1  H18A 7688   1.970   2.187   7.561 -0.7559  0.2311 -0.6150
   71CHL1  H18B 7689   1.986   2.271   7.723 -0.9052 -0.5978  1.1429
   71CHL1  H18C 7690   1.892   2.120   7.707  1.0542 -1.0657 -1.6663
   71CHL1   C12 7691   1.690   2.224   7.528 -0.7361 -0.0394  0.2692
   71CHL1  H12A 7692   1.640   2.142   7.583 -2.6114 -0.7711 -2.3357
   71CHL1  H12B 7693   1.607   2.296   7.512 -0.3899 -0.3393 -3.7536
   71CHL1   C11 7694   1.749   2.177   7.396  0.1488 -0.5647  0.5315
   71CHL1  H11A 7695   1.825   2.098   7.415  1.7498  0.2074 -2.2126
   71CHL1  H11B 7696   1.668   2.139   7.330 -0.5128  0.8241  0.5071
   71CHL1    C9 7697   1.823   2.293   7.320  0.5954 -0.4052  0.4642
   71CHL1    H9 7698   1.741   2.364   7.294  0.3737 -1.7011 -2.9404
   71CHL1   C10 7699   1.881   2.252   7.175 -0.0906  0.1957  0.4160
   71CHL1   C19 7700   1.991   2.145   7.203  0.5939 -0.5689 -0.2547
   71CHL1  H19A 7701   1.957   2.046   7.240  0.4218 -0.3930  0.0577
   71CHL1  H19B 7702   2.042   2.126   7.106  0.8904 -1.4150  0.0582
   71CHL1  H19C 7703   2.069   2.192   7.267 -1.6855  2.6667  0.3771
   71CHL1    C1 7704   1.768   2.187   7.089  0.4171  0.1287  0.0008
   71CHL1   H1A 7705   1.747   2.083   7.124  1.5413 -0.8010 -1.9162
   71CHL1   H1B 7706   1.685   2.259   7.107  1.1784  0.5109  2.2484
   71CHL1    C2 7707   1.810   2.181   6.935  0.0935 -0.2277 -0.2271
   71CHL1   H2A 7708   1.726   2.141   6.873 -0.2946  0.5248 -0.1917
   71CHL1   H2B 7709   1.900   2.117   6.922  0.3966  0.1191  0.1361
   71CHL1   C20 7710   1.723   2.291   7.868  0.1616  0.1338 -0.1572
   71CHL1   H20 7711   1.814   2.228   7.886  0.6836  1.0596  0.5221
   71CHL1   C21 7712   1.602   2.199   7.848  0.2776  0.4219 -0.1516
   71CHL1  H21A 7713   1.632   2.118   7.778 -0.0167  1.3171 -1.3383
   71CHL1  H21B 7714   1.517   2.256   7.807  1.4780  1.6349 -1.0282
   71CHL1  H21C 7715   1.560   2.145   7.936 -0.2215 -1.0704 -1.2710
   71CHL1   C22 7716   1.702   2.379   8.000 -0.4140 -0.2998  0.8011
   71CHL1  H22A 7717   1.778   2.459   8.019  0.5522 -1.0405  0.1446
   71CHL1  H22B 7718   1.601   2.425   7.993  0.7758  2.4027  0.1356
   71CHL1   C23 7719   1.708   2.315   8.143 -0.1660  0.2109  0.2304
   71CHL1  H23A 7720   1.633   2.233   8.149 -0.1584  0.0916 -1.0252
   71CHL1  H23B 7721   1.805   2.262   8.157  0.4233  0.2798 -2.9700
   71CHL1   C24 7722   1.688   2.418   8.264 -1.0320  0.4770  0.2701
   71CHL1  H24A 7723   1.780   2.481   8.259  0.8282 -1.9122  1.6595
   71CHL1  H24B 7724   1.600   2.483   8.246 -0.1105  1.8072  0.4659
   71CHL1   C25 7725   1.685   2.343   8.398 -0.5756 -0.1108  0.0021
   71CHL1   H25 7726   1.597   2.278   8.417  0.3285 -0.6116  2.8812
   71CHL1   C26 7727   1.801   2.250   8.432  0.4113  0.5019 -0.0252
   71CHL1  H26A 7728   1.783   2.196   8.527  1.3838 -0.0841 -0.1649
   71CHL1  H26B 7729   1.826   2.170   8.360  1.9671  0.0929  0.9218
   71CHL1  H26C 7730   1.893   2.311   8.449  0.9381 -0.3365  0.1504
   71CHL1   C27 7731   1.664   2.454   8.504  0.7317  0.9672  0.2684
   71CHL1  H27A 7732   1.566   2.502   8.490  0.9656  0.5199 -4.7502
   71CHL1  H27B 7733   1.667   2.394   8.598  0.2069 -2.3891 -1.6692
   71CHL1  H27C 7734   1.741   2.533   8.491 -0.8127  2.2280 -1.9639
   72CHL1    C3 7735   4.494   4.235   7.068 -0.0175  0.2399 -0.2637
   72CHL1    H3 7736   4.561   4.301   7.127 -2.5349 -0.6821  4.0361
   72CHL1    O3 7737   4.456   4.295   6.949 -0.0300 -0.5240  0.0086
   72CHL1   H3' 7738   4.507   4.254   6.879  0.7728  0.3293  0.0643
   72CHL1    C4 7739   4.563   4.097   7.044  0.0441 -0.2862 -0.1626
   72CHL1   H4A 7740   4.484   4.034   6.998  1.4295 -0.6663 -2.1146
   72CHL1   H4B 7741   4.646   4.118   6.973 -0.3144 -0.1300 -0.5353
   72CHL1    C5 7742   4.611   4.038   7.176 -0.1803 -1.1214  0.1199
   72CHL1    C6 7743   4.741   4.010   7.211  0.0533  0.2088 -0.7677
   72CHL1    H6 7744   4.823   4.022   7.140  1.7641 -1.0973  0.8667
   72CHL1    C7 7745   4.774   3.936   7.344 -0.2105 -0.2063  0.0315
   72CHL1   H7A 7746   4.845   3.854   7.319  0.3722 -0.1119  1.3045
   72CHL1   H7B 7747   4.825   4.008   7.410 -2.2543  0.0883  1.3844
   72CHL1    C8 7748   4.645   3.873   7.410 -0.2233  0.0950  1.3608
   72CHL1    H8 7749   4.610   3.791   7.344  0.5193  0.1258  0.9112
   72CHL1   C14 7750   4.674   3.832   7.551  0.1205  0.6396 -1.4159
   72CHL1   H14 7751   4.695   3.928   7.603  1.6272  0.2333 -1.2366
   72CHL1   C15 7752   4.797   3.742   7.570 -0.1115 -0.1832  0.1078
   72CHL1  H15A 7753   4.792   3.654   7.503 -0.3788 -0.6804  0.7759
   72CHL1  H15B 7754   4.886   3.799   7.535 -1.8753  1.7154 -1.6027
   72CHL1   C16 7755   4.790   3.690   7.713  0.2888 -0.3753 -0.5305
   72CHL1  H16A 7756   4.804   3.582   7.692 -0.1393 -0.2014 -1.8287
   72CHL1  H16B 7757   4.871   3.714   7.786 -0.9578 -1.4666  1.2729
   72CHL1   C17 7758   4.641   3.731   7.757 -0.2105  0.0951 -0.0638
   72CHL1   H17 7759   4.656   3.827   7.811  1.1221  0.3067 -0.7657
   72CHL1   C13 7760   4.564   3.764   7.631 -0.1036 -0.6921 -0.1651
   72CHL1   C18 7761   4.519   3.633   7.561  0.1563  0.2271  0.2761
   72CHL1  H18A 7762   4.601   3.561   7.538 -0.0120 -0.0057  0.4065
   72CHL1  H18B 7763   4.441   3.584   7.623  0.4123  0.6729  0.9682
   72CHL1  H18C 7764   4.483   3.654   7.458  0.0155 -0.8008  0.1121
   72CHL1   C12 7765   4.451   3.861   7.642  0.5536 -0.8806 -0.2289
   72CHL1  H12A 7766   4.352   3.824   7.677  0.4113 -0.3251 -0.0399
   72CHL1  H12B 7767   4.481   3.941   7.713  0.3149 -1.2302  0.2694
   72CHL1   C11 7768   4.416   3.921   7.504 -0.1895 -0.2358  0.4834
   72CHL1  H11A 7769   4.366   3.833   7.457  2.2839 -1.7211  0.4410
   72CHL1  H11B 7770   4.334   3.995   7.516 -1.5782 -1.7619  0.6898
   72CHL1    C9 7771   4.531   3.975   7.417  0.0646  0.3364  0.4573
   72CHL1    H9 7772   4.578   4.062   7.467 -1.0513  1.4804 -0.4252
   72CHL1   C10 7773   4.493   4.019   7.276  0.7155  0.4240  0.2848
   72CHL1   C19 7774   4.381   3.924   7.226  0.7286  0.2917  0.1295
   72CHL1  H19A 7775   4.296   3.946   7.295  1.5153  1.6557  0.7066
   72CHL1  H19B 7776   4.343   3.937   7.122  1.9295 -0.4645 -0.4188
   72CHL1  H19C 7777   4.411   3.817   7.228  2.2414  0.6172 -1.9025
   72CHL1    C1 7778   4.422   4.155   7.293  0.5604  0.7249 -0.3538
   72CHL1   H1A 7779   4.324   4.143   7.345  0.8719 -2.1629 -0.3007
   72CHL1   H1B 7780   4.497   4.213   7.350  1.4426  0.0112 -0.7639
   72CHL1    C2 7781   4.371   4.221   7.165  0.3762  0.3204 -0.3304
   72CHL1   H2A 7782   4.316   4.317   7.176 -0.9351 -0.3467 -0.7712
   72CHL1   H2B 7783   4.297   4.160   7.109  0.0559  1.0399 -0.7020
   72CHL1   C20 7784   4.571   3.633   7.854  0.8710  0.2447 -0.1515
   72CHL1   H20 7785   4.542   3.539   7.803  1.4721 -0.8687  1.4917
   72CHL1   C21 7786   4.437   3.702   7.909 -0.5615  0.7070 -0.1584
   72CHL1  H21A 7787   4.455   3.807   7.938  0.2413  0.5022  0.1244
   72CHL1  H21B 7788   4.400   3.647   7.998 -0.9542  1.1661 -0.0325
   72CHL1  H21C 7789   4.355   3.704   7.834 -0.2027 -1.8090 -0.7011
   72CHL1   C22 7790   4.662   3.599   7.970  0.0540  0.6956 -0.4955
   72CHL1  H22A 7791   4.743   3.535   7.928 -1.0983 -0.3860 -1.1619
   72CHL1  H22B 7792   4.697   3.687   8.027 -3.1613 -0.1449  3.2117
   72CHL1   C23 7793   4.616   3.491   8.073 -0.1340 -0.1608  0.4473
   72CHL1  H23A 7794   4.522   3.524   8.120 -0.0425  1.7332 -0.6326
   72CHL1  H23B 7795   4.587   3.403   8.011  0.7287  0.6026 -1.0924
   72CHL1   C24 7796   4.721   3.449   8.181 -0.1079 -0.9166  0.6991
   72CHL1  H24A 7797   4.812   3.423   8.123 -0.0005 -2.3805  1.4711
   72CHL1  H24B 7798   4.741   3.543   8.236  0.2358  0.3039 -1.4149
   72CHL1   C25 7799   4.689   3.331   8.273 -0.0945  0.0588 -0.4492
   72CHL1   H25 7800   4.605   3.362   8.338  0.0539 -0.0050 -0.2294
   72CHL1   C26 7801   4.648   3.208   8.197  0.5024 -0.0912 -0.0259
   72CHL1  H26A 7802   4.560   3.230   8.133  0.9352  0.3545 -0.4699
   72CHL1  H26B 7803   4.736   3.184   8.133  1.5498  0.2005  1.2502
   72CHL1  H26C 7804   4.631   3.125   8.269 -0.4274  0.6257  0.6014
   72CHL1   C27 7805   4.806   3.301   8.364  0.3667 -0.5836 -0.0365
   72CHL1  H27A 7806   4.895   3.276   8.303  0.8142  0.7067  0.0522
   72CHL1  H27B 7807   4.837   3.390   8.423 -1.9330 -0.7524  1.5530
   72CHL1  H27C 7808   4.784   3.221   8.438 -1.1935 -0.5079 -0.3987
   73CHL1    C3 7809   1.857   4.980   6.842  0.2350 -0.1044  0.6148
   73CHL1    H3 7810   1.944   5.048   6.857  0.0757  0.2969 -0.2014
   73CHL1    O3 7811   1.814   4.969   6.706  0.1403 -0.8145 -0.2803
   73CHL1   H3' 7812   1.746   4.902   6.718 -0.7425  0.2829  1.3193
   73CHL1    C4 7813   1.902   4.841   6.880 -0.1129 -0.1712 -0.9245
   73CHL1   H4A 7814   1.820   4.767   6.863  1.5766 -2.1463 -0.9337
   73CHL1   H4B 7815   1.990   4.801   6.826 -0.8154 -0.9205 -1.5523
   73CHL1    C5 7816   1.938   4.830   7.026 -0.0958 -0.2001 -0.8402
   73CHL1    C6 7817   2.057   4.787   7.078  0.5669  0.4966 -0.2109
   73CHL1    H6 7818   2.112   4.729   7.002 -1.2110  0.3765 -1.4794
   73CHL1    C7 7819   2.097   4.784   7.220 -0.0860  0.2102 -0.3842
   73CHL1   H7A 7820   2.144   4.687   7.246 -1.6303 -0.4159  0.2048
   73CHL1   H7B 7821   2.173   4.865   7.226  0.5286 -0.4601  1.5125
   73CHL1    C8 7822   1.973   4.800   7.319 -0.8332 -0.4454  0.0472
   73CHL1    H8 7823   1.901   4.715   7.319 -2.5882  0.9599 -1.7218
   73CHL1   C14 7824   2.023   4.842   7.462 -0.8573  0.0370  0.7459
   73CHL1   H14 7825   2.080   4.937   7.451 -0.1607 -0.6182 -1.9031
   73CHL1   C15 7826   2.134   4.754   7.528  0.7996 -0.2522 -0.4769
   73CHL1  H15A 7827   2.115   4.648   7.498  0.5128 -0.6768  1.1300
   73CHL1  H15B 7828   2.235   4.772   7.484 -0.5155  0.9049 -3.2784
   73CHL1   C16 7829   2.119   4.781   7.680 -0.0280 -0.2202  1.0361
   73CHL1  H16A 7830   2.107   4.682   7.731 -1.8111 -0.3884  0.3438
   73CHL1  H16B 7831   2.213   4.828   7.716  1.5735 -0.3413 -2.5640
   73CHL1   C17 7832   1.994   4.870   7.687 -0.4413  0.5776  0.2366
   73CHL1   H17 7833   2.022   4.977   7.677  0.0489  0.4433  0.1649
   73CHL1   C13 7834   1.913   4.845   7.559 -0.0545 -0.4280  0.4952
   73CHL1   C18 7835   1.835   4.710   7.576  0.1944 -0.1832 -0.1658
   73CHL1  H18A 7836   1.769   4.710   7.665 -1.1206  1.7541 -1.0594
   73CHL1  H18B 7837   1.771   4.693   7.487  0.5218  2.2811 -0.9507
   73CHL1  H18C 7838   1.897   4.619   7.587 -0.7931 -1.1001 -1.8981
   73CHL1   C12 7839   1.817   4.962   7.509 -0.9353  0.3504  0.3918
   73CHL1  H12A 7840   1.729   4.978   7.575 -2.4730 -0.6525 -1.3324
   73CHL1  H12B 7841   1.871   5.058   7.493  1.2501 -0.2964  3.0854
   73CHL1   C11 7842   1.760   4.938   7.367  0.1401  0.5284 -0.9296
   73CHL1  H11A 7843   1.691   4.855   7.390  0.9338  0.1545  0.2204
   73CHL1  H11B 7844   1.699   5.027   7.341 -0.1257  0.0921 -1.8354
   73CHL1    C9 7845   1.876   4.907   7.266 -0.7506  0.1047  0.2459
   73CHL1    H9 7846   1.933   5.002   7.264  0.7812 -0.8005 -1.6549
   73CHL1   C10 7847   1.828   4.887   7.121  0.5562  0.1095  0.3681
   73CHL1   C19 7848   1.712   4.780   7.114 -0.4556  0.2517 -0.2604
   73CHL1  H19A 7849   1.672   4.770   7.011  0.7435 -0.6613 -0.6553
   73CHL1  H19B 7850   1.744   4.683   7.158 -4.6804 -0.7817  0.9813
   73CHL1  H19C 7851   1.632   4.821   7.180  1.3913  1.7625  1.1762
   73CHL1    C1 7852   1.780   5.025   7.071 -0.1281 -0.6125 -0.3705
   73CHL1   H1A 7853   1.692   5.061   7.129  0.9109  1.7426 -0.1847
   73CHL1   H1B 7854   1.859   5.096   7.101 -0.1413 -1.8809  3.2649
   73CHL1    C2 7855   1.738   5.037   6.922  0.1356  0.1163 -0.3375
   73CHL1   H2A 7856   1.710   5.137   6.883  0.4215  0.8282  1.1972
   73CHL1   H2B 7857   1.654   4.966   6.906  0.3877 -0.1878 -0.3260
   73CHL1   C20 7858   1.934   4.857   7.825 -0.0627  0.0206 -0.0611
   73CHL1   H20 7859   1.899   4.753   7.842 -0.6508  0.0263 -1.1578
   73CHL1   C21 7860   1.817   4.947   7.843 -0.0362 -0.6633 -0.1198
   73CHL1  H21A 7861   1.766   4.935   7.941 -1.9518  3.0297 -0.4527
   73CHL1  H21B 7862   1.745   4.942   7.759 -0.0874  1.6756 -0.2966
   73CHL1  H21C 7863   1.862   5.049   7.845 -0.8690 -0.2354 -1.5779
   73CHL1   C22 7864   2.041   4.888   7.936  0.2688 -0.0672  0.9021
   73CHL1  H22A 7865   2.142   4.845   7.922  0.2074  0.2598 -0.7105
   73CHL1  H22B 7866   2.053   4.998   7.931 -0.6917  0.0109 -0.1427
   73CHL1   C23 7867   2.000   4.858   8.075 -0.2824 -0.0721 -0.1921
   73CHL1  H23A 7868   1.931   4.934   8.118 -0.6195  0.0160 -0.8826
   73CHL1  H23B 7869   1.953   4.757   8.074  0.4903 -0.5023  2.0348
   73CHL1   C24 7870   2.118   4.845   8.169  0.2768 -1.0557  0.4606
   73CHL1  H24A 7871   2.206   4.789   8.133  1.3909  1.3599 -0.7985
   73CHL1  H24B 7872   2.138   4.949   8.204 -1.1518 -0.4593 -0.3978
   73CHL1   C25 7873   2.083   4.775   8.300 -0.0498  0.0609 -0.2864
   73CHL1   H25 7874   2.037   4.676   8.280 -1.2004  0.4904  0.0887
   73CHL1   C26 7875   2.199   4.758   8.400 -0.3400 -1.0349 -0.0075
   73CHL1  H26A 7876   2.165   4.703   8.491 -1.0079  0.7324  0.8651
   73CHL1  H26B 7877   2.285   4.697   8.363 -1.8949 -3.4877  0.2213
   73CHL1  H26C 7878   2.248   4.851   8.437 -1.1847 -0.0206 -1.3757
   73CHL1   C27 7879   1.976   4.848   8.383  0.2561 -0.2657 -0.0136
   73CHL1  H27A 7880   1.952   4.773   8.461  2.8659 -0.4620  0.7097
   73CHL1  H27B 7881   2.019   4.944   8.418 -0.3328  1.2176 -3.0205
   73CHL1  H27C 7882   1.891   4.880   8.319 -1.5672  0.5422  2.6346
   74CHL1    C3 7883   1.669   6.005   6.767 -0.5294  0.0719  0.7069
   74CHL1    H3 7884   1.563   6.024   6.741 -0.5756  0.1007  0.9233
   74CHL1    O3 7885   1.743   5.989   6.647  0.2750  0.9507  0.2298
   74CHL1   H3' 7886   1.834   6.014   6.665  0.1019  2.8997 -1.3174
   74CHL1    C4 7887   1.726   6.124   6.843  0.4997 -0.0488 -0.2514
   74CHL1   H4A 7888   1.836   6.109   6.845  0.3782 -1.1547  2.4953
   74CHL1   H4B 7889   1.717   6.215   6.781 -0.0281 -0.5253 -0.8831
   74CHL1    C5 7890   1.683   6.144   6.984 -0.0099  0.1633  0.6546
   74CHL1    C6 7891   1.640   6.259   7.035  0.4552 -0.0331  1.2489
   74CHL1    H6 7892   1.652   6.344   6.965 -0.0363 -0.2677  0.8796
   74CHL1    C7 7893   1.604   6.286   7.177  0.2340  0.4095 -0.0457
   74CHL1   H7A 7894   1.671   6.368   7.211 -0.6160  1.1877 -0.1996
   74CHL1   H7B 7895   1.497   6.315   7.186  0.0974 -0.0761 -0.1207
   74CHL1    C8 7896   1.629   6.166   7.270  0.0758  0.0599 -0.5936
   74CHL1    H8 7897   1.738   6.166   7.292 -0.1631  0.7163  0.6550
   74CHL1   C14 7898   1.543   6.180   7.396  0.2285 -0.0202 -0.1359
   74CHL1   H14 7899   1.439   6.189   7.359  0.6868 -0.5122 -1.6113
   74CHL1   C15 7900   1.560   6.314   7.476  0.1655  0.4914 -0.1926
   74CHL1  H15A 7901   1.669   6.336   7.468  0.2618  0.1952  0.2935
   74CHL1  H15B 7902   1.493   6.394   7.437 -0.4149 -0.0221 -0.2740
   74CHL1   C16 7903   1.507   6.274   7.614 -0.7662  0.0631 -0.1902
   74CHL1  H16A 7904   1.582   6.294   7.694  0.5557 -0.2649 -1.3186
   74CHL1  H16B 7905   1.421   6.337   7.646  0.7531  0.7166  3.1002
   74CHL1   C17 7906   1.449   6.130   7.608 -0.3795  0.3554 -0.2172
   74CHL1   H17 7907   1.345   6.136   7.570 -1.0367 -1.2003  1.1900
   74CHL1   C13 7908   1.543   6.066   7.497  0.0482  0.4148  0.0163
   74CHL1   C18 7909   1.683   6.047   7.561  0.4467 -0.5477  0.2735
   74CHL1  H18A 7910   1.670   5.956   7.624  3.6269 -2.2122 -1.2885
   74CHL1  H18B 7911   1.754   6.024   7.480 -0.6386 -1.6871 -0.3855
   74CHL1  H18C 7912   1.720   6.133   7.622 -4.0217  0.5249  1.9076
   74CHL1   C12 7913   1.504   5.940   7.413 -0.8800  0.1760 -0.0351
   74CHL1  H12A 7914   1.504   5.854   7.484  1.7536 -1.6281 -2.0430
   74CHL1  H12B 7915   1.398   5.951   7.381 -0.6103  2.0640 -0.3719
   74CHL1   C11 7916   1.596   5.909   7.290 -0.2780  0.1194  0.4770
   74CHL1  H11A 7917   1.694   5.885   7.336  0.9435  0.9187 -1.5709
   74CHL1  H11B 7918   1.572   5.818   7.230 -0.7161  0.4586  0.1280
   74CHL1    C9 7919   1.597   6.031   7.193 -0.0553 -0.5330  0.6050
   74CHL1    H9 7920   1.489   6.037   7.166 -0.2689 -1.0858  1.2959
   74CHL1   C10 7921   1.675   6.013   7.059  0.1754 -0.2337 -0.2847
   74CHL1   C19 7922   1.825   5.971   7.097  1.0067  0.3120 -0.1216
   74CHL1  H19A 7923   1.881   5.968   7.001 -0.2600  0.0996 -0.8730
   74CHL1  H19B 7924   1.870   6.046   7.167  2.3212 -1.6014  1.1827
   74CHL1  H19C 7925   1.815   5.876   7.153 -3.1782  1.9165  2.3471
   74CHL1    C1 7926   1.608   5.897   6.976 -0.2069 -0.1724 -0.1084
   74CHL1   H1A 7927   1.634   5.808   7.037 -1.4491  0.4919  1.4823
   74CHL1   H1B 7928   1.498   5.915   6.982 -0.3193 -0.4878 -1.0481
   74CHL1    C2 7929   1.674   5.869   6.840  0.5221 -0.2577  0.3317
   74CHL1   H2A 7930   1.614   5.796   6.782  0.2323  0.2983 -0.0760
   74CHL1   H2B 7931   1.779   5.834   6.853  0.1699 -1.3328  0.3616
   74CHL1   C20 7932   1.440   6.067   7.745  0.3999 -0.4355 -0.3485
   74CHL1   H20 7933   1.537   6.022   7.776  0.2316 -2.3937 -2.4627
   74CHL1   C21 7934   1.348   5.946   7.744  0.2007 -0.4345 -0.0344
   74CHL1  H21A 7935   1.367   5.886   7.652  2.5358  1.1174 -0.6739
   74CHL1  H21B 7936   1.244   5.986   7.749  0.0005 -1.1294  2.4688
   74CHL1  H21C 7937   1.365   5.878   7.830 -0.2458 -2.9306 -1.7901
   74CHL1   C22 7938   1.383   6.159   7.852 -0.4979  0.2184 -0.6928
   74CHL1  H22A 7939   1.449   6.248   7.864 -0.1439 -0.1668  0.3926
   74CHL1  H22B 7940   1.285   6.207   7.833 -1.6349 -1.7082  0.0344
   74CHL1   C23 7941   1.383   6.105   7.996 -0.2043 -0.6265 -0.6130
   74CHL1  H23A 7942   1.299   6.035   8.015 -1.2051  1.2753  2.8052
   74CHL1  H23B 7943   1.484   6.062   8.016  0.2839  0.1221 -1.3841
   74CHL1   C24 7944   1.354   6.212   8.108 -0.1535 -0.1836  0.1567
   74CHL1  H24A 7945   1.435   6.288   8.115 -0.1664 -0.2587  1.2439
   74CHL1  H24B 7946   1.273   6.269   8.056  0.6578 -1.6899 -3.0164
   74CHL1   C25 7947   1.321   6.140   8.246  0.5412 -0.8764 -0.2921
   74CHL1   H25 7948   1.232   6.080   8.219  0.2071 -0.2955 -0.5177
   74CHL1   C26 7949   1.440   6.061   8.291  0.5794  0.2278 -0.3034
   74CHL1  H26A 7950   1.460   5.969   8.232  0.2460 -0.3514  0.4655
   74CHL1  H26B 7951   1.531   6.124   8.301  0.0496  0.6785  2.6604
   74CHL1  H26C 7952   1.408   6.025   8.391 -0.8108  0.2698 -0.7172
   74CHL1   C27 7953   1.292   6.250   8.355  0.5248  0.5405  0.9556
   74CHL1  H27A 7954   1.380   6.316   8.357 -1.2442  3.0700  0.0758
   74CHL1  H27B 7955   1.202   6.311   8.331  1.1186  0.9585 -0.2772
   74CHL1  H27C 7956   1.283   6.204   8.456 -0.9793 -0.4367  0.4220
   75CHL1    C3 7957   5.472   3.476   6.902  0.6249 -0.5933 -0.5861
   75CHL1    H3 7958   5.462   3.574   6.851  0.5892 -1.0049 -1.3904
   75CHL1    O3 7959   5.416   3.377   6.815  0.5417  0.1944  0.8567
   75CHL1   H3' 7960   5.478   3.364   6.743  1.5886  0.2069  1.7235
   75CHL1    C4 7961   5.615   3.442   6.921  0.4724 -0.2232  0.2032
   75CHL1   H4A 7962   5.625   3.331   6.929 -0.3718 -0.5250 -2.0458
   75CHL1   H4B 7963   5.669   3.453   6.824 -1.1012  3.0101 -0.4295
   75CHL1    C5 7964   5.690   3.508   7.040 -0.3074 -0.1602  0.1577
   75CHL1    C6 7965   5.805   3.582   7.034  0.0786 -0.0053 -0.0319
   75CHL1    H6 7966   5.846   3.601   6.933 -1.5702 -1.4611 -1.0553
   75CHL1    C7 7967   5.885   3.634   7.145 -0.1258  0.3635  0.3597
   75CHL1   H7A 7968   5.992   3.617   7.119  0.0976  0.2081  1.3238
   75CHL1   H7B 7969   5.875   3.744   7.149  3.7417  0.8197  1.9382
   75CHL1    C8 7970   5.843   3.562   7.283  0.9900 -0.2305 -0.1630
   75CHL1    H8 7971   5.886   3.460   7.279 -1.0934 -1.1273 -2.0154
   75CHL1   C14 7972   5.904   3.646   7.395  0.6048  0.7392 -0.2561
   75CHL1   H14 7973   5.855   3.746   7.391  0.9788  1.1037  2.4454
   75CHL1   C15 7974   6.050   3.669   7.404 -0.2572  0.2956 -0.4258
   75CHL1  H15A 7975   6.105   3.574   7.385 -2.3547 -0.8569 -1.0146
   75CHL1  H15B 7976   6.074   3.750   7.331 -0.9271  2.0604  1.2222
   75CHL1   C16 7977   6.082   3.722   7.540 -0.2523 -0.0646  0.3352
   75CHL1  H16A 7978   6.169   3.664   7.579 -0.3426 -2.3259 -2.5481
   75CHL1  H16B 7979   6.108   3.830   7.548 -0.1090 -0.0031 -0.8159
   75CHL1   C17 7980   5.952   3.696   7.623 -0.0729  0.3235 -0.1891
   75CHL1   H17 7981   5.904   3.796   7.630  0.4453  0.7206 -1.8014
   75CHL1   C13 7982   5.863   3.596   7.537 -0.1154 -0.4786 -0.0818
   75CHL1   C18 7983   5.912   3.458   7.560 -0.3896 -0.5635  1.0972
   75CHL1  H18A 7984   6.021   3.480   7.566  0.0341 -1.4134 -1.8941
   75CHL1  H18B 7985   5.875   3.411   7.653 -0.0568  0.1851  1.6165
   75CHL1  H18C 7986   5.887   3.391   7.474 -1.6079  1.9007 -0.5945
   75CHL1   C12 7987   5.710   3.601   7.549  0.5084 -0.1518 -0.3197
   75CHL1  H12A 7988   5.676   3.567   7.649  0.5737  1.4872  0.3013
   75CHL1  H12B 7989   5.668   3.702   7.527 -2.8990 -1.0888  1.2556
   75CHL1   C11 7990   5.639   3.522   7.441  0.0611 -0.0344  0.8552
   75CHL1  H11A 7991   5.662   3.414   7.460 -0.7954 -0.4613 -0.4140
   75CHL1  H11B 7992   5.529   3.537   7.451 -0.0789 -0.8094  0.5616
   75CHL1    C9 7993   5.687   3.559   7.295 -0.4364  0.3820  0.1414
   75CHL1    H9 7994   5.666   3.666   7.275  1.8315  0.9051  0.2670
   75CHL1   C10 7995   5.616   3.481   7.177 -0.7527  1.1603  0.1167
   75CHL1   C19 7996   5.633   3.330   7.210  0.1858 -0.3570 -0.2407
   75CHL1  H19A 7997   5.739   3.298   7.208  0.5636  0.8519 -0.3040
   75CHL1  H19B 7998   5.585   3.319   7.310  0.2828 -0.1241 -0.1684
   75CHL1  H19C 7999   5.576   3.272   7.134  0.6135  0.2671 -1.0570
   75CHL1    C1 8000   5.471   3.533   7.156  0.1154  0.3407 -0.3106
   75CHL1   H1A 8001   5.417   3.516   7.252  1.9770 -1.2570  0.5401
   75CHL1   H1B 8002   5.471   3.644   7.149  1.2324  0.5836  2.3138
   75CHL1    C2 8003   5.395   3.467   7.035 -0.1727 -0.0350 -0.4904
   75CHL1   H2A 8004   5.299   3.520   7.020  0.4869  2.0819  1.9923
   75CHL1   H2B 8005   5.375   3.359   7.049 -2.5784  0.0313 -2.7626
   75CHL1   C20 8006   5.972   3.652   7.775  0.5895 -0.8165 -0.0499
   75CHL1   H20 8007   6.033   3.560   7.767 -0.4863 -1.5504 -0.0019
   75CHL1   C21 8008   5.841   3.640   7.850  0.3451 -0.2637  0.6125
   75CHL1  H21A 8009   5.770   3.560   7.821  0.0900 -0.3902  1.5743
   75CHL1  H21B 8010   5.787   3.736   7.854 -1.0623 -0.9629 -0.7296
   75CHL1  H21C 8011   5.863   3.611   7.955 -1.2225 -1.2074  0.7009
   75CHL1   C22 8012   6.039   3.764   7.847  0.1026 -0.1088 -0.2986
   75CHL1  H22A 8013   6.121   3.806   7.785  0.2631 -1.8528 -1.3328
   75CHL1  H22B 8014   5.969   3.845   7.875  0.6998  1.2183 -2.3966
   75CHL1   C23 8015   6.120   3.713   7.973  0.6190  0.3125  0.4169
   75CHL1  H23A 8016   6.038   3.672   8.035  2.2038 -0.6279  1.9632
   75CHL1  H23B 8017   6.180   3.621   7.957 -1.4443 -0.9706 -0.4081
   75CHL1   C24 8018   6.191   3.822   8.058  0.0738  0.4784 -0.1490
   75CHL1  H24A 8019   6.229   3.769   8.148  0.2102 -0.1977 -0.5954
   75CHL1  H24B 8020   6.283   3.849   8.002  1.4161 -2.6598  0.3154
   75CHL1   C25 8021   6.106   3.935   8.111  0.1941  0.6722  0.8111
   75CHL1   H25 8022   6.052   3.983   8.026 -0.7388 -1.2654  0.2551
   75CHL1   C26 8023   6.003   3.904   8.212 -0.4519  0.2575 -0.5259
   75CHL1  H26A 8024   5.951   3.812   8.180  0.2020 -0.9536  1.6709
   75CHL1  H26B 8025   6.049   3.879   8.311 -1.8905  1.0655  0.3753
   75CHL1  H26C 8026   5.930   3.986   8.224 -0.9037 -0.0346 -1.2553
   75CHL1   C27 8027   6.201   4.039   8.172 -0.2029 -0.2406  0.1037
   75CHL1  H27A 8028   6.147   4.134   8.192  1.4493  1.1610 -1.6612
   75CHL1  H27B 8029   6.254   4.010   8.265  2.2713 -0.0169 -1.1334
   75CHL1  H27C 8030   6.279   4.067   8.097 -1.2694  0.3764 -0.8043
   76CHL1    C3 8031   3.898   0.812   7.052 -0.1977 -0.3598 -0.5790
   76CHL1    H3 8032   3.869   0.706   7.066  0.1183 -1.1043 -4.4907
   76CHL1    O3 8033   3.890   0.846   6.920 -0.0602 -0.0468 -0.0126
   76CHL1   H3' 8034   3.928   0.934   6.913  1.4563 -0.2855  3.2369
   76CHL1    C4 8035   3.793   0.901   7.128 -0.0944 -0.0920  0.2894
   76CHL1   H4A 8036   3.817   1.006   7.101 -1.7035 -0.0377 -1.1486
   76CHL1   H4B 8037   3.696   0.876   7.079  0.3070 -3.0757  0.8591
   76CHL1    C5 8038   3.795   0.883   7.280  0.9326 -0.0561 -0.3724
   76CHL1    C6 8039   3.685   0.848   7.351  0.7275  0.8672 -0.0328
   76CHL1    H6 8040   3.588   0.833   7.301  0.8408 -2.1736  0.4650
   76CHL1    C7 8041   3.686   0.832   7.497  0.5972  0.0827  0.0836
   76CHL1   H7A 8042   3.599   0.893   7.530 -0.0548 -0.8486  0.1179
   76CHL1   H7B 8043   3.679   0.726   7.531 -0.6340 -0.0948 -0.6564
   76CHL1    C8 8044   3.812   0.899   7.567 -0.0158  0.3533 -0.3120
   76CHL1    H8 8045   3.802   1.009   7.561  0.0929  0.5298  1.8957
   76CHL1   C14 8046   3.833   0.853   7.708  0.2900  0.0097  0.1298
   76CHL1   H14 8047   3.851   0.743   7.713 -1.1754 -0.2046  1.3801
   76CHL1   C15 8048   3.714   0.874   7.807  1.3104  0.3842  0.1457
   76CHL1  H15A 8049   3.679   0.979   7.809 -1.0973 -0.3433  2.1080
   76CHL1  H15B 8050   3.635   0.799   7.784  3.4598 -1.0014 -3.6785
   76CHL1   C16 8051   3.783   0.858   7.946 -0.3029 -0.0967  0.4685
   76CHL1  H16A 8052   3.740   0.928   8.021  0.2421 -0.1693  0.8589
   76CHL1  H16B 8053   3.766   0.758   7.992  0.4880 -0.3818  0.1710
   76CHL1   C17 8054   3.936   0.868   7.931  0.2193  0.0904 -0.8555
   76CHL1   H17 8055   3.978   0.765   7.926  1.2255  0.3200  1.5137
   76CHL1   C13 8056   3.951   0.912   7.779 -0.4937 -0.3218 -0.1335
   76CHL1   C18 8057   3.954   1.064   7.774  0.0613 -0.6004  0.0117
   76CHL1  H18A 8058   4.050   1.106   7.810  1.0383 -2.4395 -0.3504
   76CHL1  H18B 8059   3.941   1.104   7.671 -0.3516 -2.4698 -0.6949
   76CHL1  H18C 8060   3.875   1.106   7.840 -1.0269  2.3819 -2.8824
   76CHL1   C12 8061   4.079   0.843   7.717 -0.4651  0.6122  0.1030
   76CHL1  H12A 8062   4.169   0.888   7.763  0.6262 -1.3091 -0.0325
   76CHL1  H12B 8063   4.089   0.733   7.728  0.2623  0.6662  0.0723
   76CHL1   C11 8064   4.078   0.881   7.565 -0.3694 -0.3850 -0.3247
   76CHL1  H11A 8065   4.106   0.989   7.558 -0.7460 -0.3689 -2.2453
   76CHL1  H11B 8066   4.144   0.808   7.514  0.7325 -1.1113  2.0021
   76CHL1    C9 8067   3.941   0.859   7.487  0.3898 -0.3590  0.6390
   76CHL1    H9 8068   3.925   0.749   7.487 -1.0235 -0.1815 -0.6536
   76CHL1   C10 8069   3.936   0.902   7.339 -0.2599 -0.1674 -0.2080
   76CHL1   C19 8070   3.986   1.047   7.331  0.4749  0.3158 -0.2504
   76CHL1  H19A 8071   3.943   1.110   7.411  3.1389 -1.5802  2.9191
   76CHL1  H19B 8072   4.097   1.050   7.336  0.5707 -0.3927 -1.5829
   76CHL1  H19C 8073   3.959   1.083   7.229  0.1086  0.1494 -0.2119
   76CHL1    C1 8074   4.039   0.819   7.259 -0.0768  0.1825  0.4501
   76CHL1   H1A 8075   4.142   0.847   7.291 -0.2354  1.4702 -0.1358
   76CHL1   H1B 8076   4.026   0.711   7.285 -0.3134  0.0764 -0.1118
   76CHL1    C2 8077   4.035   0.835   7.105 -0.3393  0.7625  0.5518
   76CHL1   H2A 8078   4.106   0.767   7.053  1.2376  2.3862  0.4781
   76CHL1   H2B 8079   4.070   0.939   7.087 -1.4675  0.8919 -1.1613
   76CHL1   C20 8080   4.012   0.952   8.043  0.2243  0.4495  0.1758
   76CHL1   H20 8081   3.999   1.061   8.027 -1.0167  0.3018  0.0570
   76CHL1   C21 8082   4.164   0.918   8.047  0.3720 -0.0161 -0.2412
   76CHL1  H21A 8083   4.183   0.812   8.074  2.7838  0.1552 -1.0543
   76CHL1  H21B 8084   4.212   0.977   8.128  0.7835 -2.4487  1.4131
   76CHL1  H21C 8085   4.215   0.941   7.952 -0.7140  0.3816 -0.7457
   76CHL1   C22 8086   3.956   0.936   8.184 -0.5787  0.4755  0.4838
   76CHL1  H22A 8087   3.846   0.928   8.193 -0.7051  0.8014 -0.6293
   76CHL1  H22B 8088   4.002   0.844   8.226  0.6162  0.6640 -0.3615
   76CHL1   C23 8089   4.009   1.036   8.290 -0.6251  0.4120 -0.7449
   76CHL1  H23A 8090   3.992   1.009   8.396 -1.4962  0.3129 -0.9004
   76CHL1  H23B 8091   4.120   1.037   8.290 -0.6190  0.1093 -1.2822
   76CHL1   C24 8092   3.973   1.183   8.268 -0.2281  0.1844  0.3493
   76CHL1  H24A 8093   4.003   1.250   8.351  0.9878 -0.9305  0.8560
   76CHL1  H24B 8094   4.034   1.218   8.182  2.7927  0.0564  2.2766
   76CHL1   C25 8095   3.824   1.214   8.235 -0.7031  0.7263 -0.5392
   76CHL1   H25 8096   3.807   1.144   8.151  0.5777 -0.6250  0.2789
   76CHL1   C26 8097   3.727   1.169   8.347  0.0669 -0.4338  0.0243
   76CHL1  H26A 8098   3.634   1.230   8.344 -0.0899 -0.6922 -1.7280
   76CHL1  H26B 8099   3.702   1.061   8.338  0.0767 -0.4679  0.4034
   76CHL1  H26C 8100   3.778   1.197   8.441  2.3410  0.8539 -1.4986
   76CHL1   C27 8101   3.805   1.365   8.193  0.0204  0.1353 -0.0298
   76CHL1  H27A 8102   3.878   1.396   8.115  0.2059 -1.1082 -0.3631
   76CHL1  H27B 8103   3.710   1.381   8.137  0.7643  2.0978 -0.8322
   76CHL1  H27C 8104   3.812   1.442   8.273  0.0959 -0.1687  0.2578
   77CHL1    C3 8105   3.698   5.086   6.901  0.5731 -0.4076  0.6330
   77CHL1    H3 8106   3.621   5.010   6.929 -1.2453  1.4058  0.8227
   77CHL1    O3 8107   3.714   5.098   6.763  0.5575 -0.3894  0.7745
   77CHL1   H3' 8108   3.789   5.156   6.747 -0.9590  2.1922  2.3622
   77CHL1    C4 8109   3.660   5.221   6.952  0.0505  0.4289 -0.2129
   77CHL1   H4A 8110   3.736   5.299   6.930 -0.6446  0.5763 -2.3182
   77CHL1   H4B 8111   3.581   5.262   6.885  1.0632  2.1171 -0.4520
   77CHL1    C5 8112   3.627   5.208   7.104 -0.1726  0.2728 -0.0747
   77CHL1    C6 8113   3.503   5.229   7.153 -0.0257  0.2407 -0.0268
   77CHL1    H6 8114   3.415   5.251   7.091 -0.0533 -0.3304 -0.1957
   77CHL1    C7 8115   3.469   5.223   7.302 -0.4325  0.1673 -0.2676
   77CHL1   H7A 8116   3.408   5.314   7.322 -0.3565 -0.1110  1.3948
   77CHL1   H7B 8117   3.408   5.137   7.338  0.4017  0.7323  2.8269
   77CHL1    C8 8118   3.604   5.230   7.384 -0.7380 -0.7758 -0.1460
   77CHL1    H8 8119   3.634   5.337   7.383 -0.5121 -0.8424 -1.3607
   77CHL1   C14 8120   3.574   5.177   7.527  0.1093  0.2783 -0.7846
   77CHL1   H14 8121   3.547   5.070   7.511 -2.1784  0.7696 -0.4973
   77CHL1   C15 8122   3.454   5.231   7.615 -0.5469 -0.0593 -0.3151
   77CHL1  H15A 8123   3.448   5.341   7.606 -0.3697 -0.1661 -2.1693
   77CHL1  H15B 8124   3.363   5.179   7.577 -0.5444 -0.1838 -0.1524
   77CHL1   C16 8125   3.481   5.189   7.758 -0.0201  0.2168 -0.2230
   77CHL1  H16A 8126   3.465   5.270   7.832  0.6202  0.3209 -0.1918
   77CHL1  H16B 8127   3.409   5.110   7.788  1.2004 -0.8329  0.0057
   77CHL1   C17 8128   3.623   5.128   7.758  0.1045  0.3953  0.3115
   77CHL1   H17 8129   3.609   5.019   7.737 -2.8022  1.2388 -3.1961
   77CHL1   C13 8130   3.693   5.172   7.629  0.8730  0.5366  0.6495
   77CHL1   C18 8131   3.746   5.310   7.641  0.8916  0.4665  0.2874
   77CHL1  H18A 8132   3.760   5.349   7.538  2.2870  0.6940  0.5410
   77CHL1  H18B 8133   3.676   5.377   7.697 -0.4531  0.5776 -1.4393
   77CHL1  H18C 8134   3.850   5.317   7.679  1.1952  2.0222 -0.7175
   77CHL1   C12 8135   3.792   5.079   7.564 -0.7340  0.2674  0.9152
   77CHL1  H12A 8136   3.888   5.092   7.618 -0.2426 -0.3433  0.2140
   77CHL1  H12B 8137   3.761   4.973   7.578 -1.2390  0.6382  2.8493
   77CHL1   C11 8138   3.825   5.107   7.419  0.2523 -0.0103  0.0002
   77CHL1  H11A 8139   3.888   5.199   7.417  0.4855 -0.0764  2.0867
   77CHL1  H11B 8140   3.897   5.030   7.386 -0.4394 -1.3736  1.5648
   77CHL1    C9 8141   3.711   5.138   7.325  0.7401 -0.2910  0.3135
   77CHL1    H9 8142   3.657   5.041   7.323  0.9418 -0.4292 -2.6802
   77CHL1   C10 8143   3.750   5.176   7.188 -0.9185  0.3304 -0.4969
   77CHL1   C19 8144   3.836   5.303   7.189 -0.1575 -0.3144 -1.1493
   77CHL1  H19A 8145   3.935   5.268   7.226 -0.7682 -0.3952  0.5025
   77CHL1  H19B 8146   3.853   5.352   7.091  0.6256 -0.7080 -1.2237
   77CHL1  H19C 8147   3.799   5.379   7.261  4.1691  1.9714 -0.9776
   77CHL1    C1 8148   3.821   5.052   7.120  0.2905  0.3197  1.0285
   77CHL1   H1A 8149   3.918   5.035   7.173  0.6588 -0.0415  0.2444
   77CHL1   H1B 8150   3.763   4.959   7.136  0.5473 -0.0105  0.1131
   77CHL1    C2 8151   3.834   5.055   6.963  0.1989 -0.4224 -0.7130
   77CHL1   H2A 8152   3.865   4.959   6.917  1.1584  0.0695 -1.1024
   77CHL1   H2B 8153   3.905   5.133   6.929  0.4228 -0.9572 -1.4814
   77CHL1   C20 8154   3.691   5.153   7.890 -0.1539 -0.2641  0.0117
   77CHL1   H20 8155   3.696   5.263   7.902  0.2408 -0.0999 -1.5004
   77CHL1   C21 8156   3.842   5.104   7.875  1.4256 -0.3436 -0.5251
   77CHL1  H21A 8157   3.831   5.000   7.840 -4.5044 -0.3625  0.3494
   77CHL1  H21B 8158   3.883   5.107   7.979  1.4297 -3.3071 -0.3626
   77CHL1  H21C 8159   3.908   5.170   7.815 -0.7046  0.5392 -2.0299
   77CHL1   C22 8160   3.625   5.081   8.008 -0.3201 -0.4344 -0.4539
   77CHL1  H22A 8161   3.514   5.081   8.003 -0.3843  1.9593 -0.1776
   77CHL1  H22B 8162   3.660   4.976   8.014  0.5363 -0.0839  1.3946
   77CHL1   C23 8163   3.653   5.141   8.146 -0.1368 -0.0356 -0.0618
   77CHL1  H23A 8164   3.758   5.168   8.171  0.2818 -0.9695 -0.7967
   77CHL1  H23B 8165   3.610   5.243   8.163 -0.0365 -0.0451  0.2733
   77CHL1   C24 8166   3.589   5.061   8.259  0.0995  0.1402  0.2751
   77CHL1  H24A 8167   3.480   5.080   8.266  0.0860  0.3861 -0.4676
   77CHL1  H24B 8168   3.606   4.953   8.237  0.1362  0.1821  0.0883
   77CHL1   C25 8169   3.643   5.098   8.399 -1.0142 -0.4554  0.1246
   77CHL1   H25 8170   3.753   5.095   8.383 -1.0406 -0.5594 -0.0379
   77CHL1   C26 8171   3.613   5.239   8.442  0.8895 -0.3725 -0.2649
   77CHL1  H26A 8172   3.505   5.248   8.465  1.6524  1.3767  3.3822
   77CHL1  H26B 8173   3.661   5.259   8.540 -0.2888 -0.4154  0.3309
   77CHL1  H26C 8174   3.651   5.324   8.381 -2.6598  1.7015  0.1386
   77CHL1   C27 8175   3.592   5.000   8.500  0.1317  0.5598 -0.3290
   77CHL1  H27A 8176   3.620   4.894   8.482 -1.5854  0.1197 -0.5929
   77CHL1  H27B 8177   3.622   5.024   8.605  0.0566 -0.9061  0.0442
   77CHL1  H27C 8178   3.481   4.994   8.503  0.1468  0.3784 -0.1003
   78CHL1    C3 8179   5.805   0.951   6.987 -0.9955  0.5848 -0.2423
   78CHL1    H3 8180   5.760   1.045   7.026 -2.2329 -1.2422  3.1710
   78CHL1    O3 8181   5.813   0.942   6.844 -0.1523 -0.3541  0.3378
   78CHL1   H3' 8182   5.737   0.995   6.819 -0.8953 -2.0289 -1.1515
   78CHL1    C4 8183   5.950   0.934   7.054 -0.1657  0.4435  0.9410
   78CHL1   H4A 8184   5.992   0.838   7.019 -0.1243  0.9824 -0.5799
   78CHL1   H4B 8185   6.013   1.017   7.017 -0.1305 -1.0296 -2.6532
   78CHL1    C5 8186   5.941   0.936   7.206  0.7748  1.1157  0.6415
   78CHL1    C6 8187   6.006   1.027   7.276  0.6691  0.2242  0.5334
   78CHL1    H6 8188   6.067   1.096   7.215 -0.3976  0.8723  0.1674
   78CHL1    C7 8189   6.015   1.033   7.423  0.1350 -0.1918 -0.0445
   78CHL1   H7A 8190   6.121   1.038   7.454  0.6502 -1.5189 -1.4945
   78CHL1   H7B 8191   5.973   1.129   7.460 -0.2336  0.0169 -0.9856
   78CHL1    C8 8192   5.950   0.903   7.485  0.2504 -0.7019  0.2561
   78CHL1    H8 8193   6.028   0.824   7.481  1.0051  0.0073  0.6444
   78CHL1   C14 8194   5.929   0.931   7.633 -0.2656 -0.6770 -0.3376
   78CHL1   H14 8195   5.849   1.008   7.634 -0.0067 -0.3935 -0.9648
   78CHL1   C15 8196   6.053   0.981   7.721 -0.3022 -0.3646 -0.1164
   78CHL1  H15A 8197   6.145   0.928   7.691 -0.5049 -2.1701  2.2174
   78CHL1  H15B 8198   6.069   1.090   7.704  0.2993 -0.4371 -0.0233
   78CHL1   C16 8199   6.023   0.941   7.867 -0.6651  0.0663 -0.2875
   78CHL1  H16A 8200   6.099   0.867   7.900 -2.0370 -0.8892  0.9202
   78CHL1  H16B 8201   6.015   1.021   7.944  2.6702 -0.8538  1.1999
   78CHL1   C17 8202   5.891   0.860   7.855 -0.3461  0.6164  0.2819
   78CHL1   H17 8203   5.809   0.935   7.862  0.3974  1.3189  2.5243
   78CHL1   C13 8204   5.877   0.806   7.711  0.2677  0.1653 -0.2383
   78CHL1   C18 8205   5.973   0.690   7.696  0.2589 -0.0557 -0.3655
   78CHL1  H18A 8206   6.061   0.698   7.764 -0.0277  1.4806 -0.1399
   78CHL1  H18B 8207   5.918   0.606   7.743 -2.5648  0.7161 -2.0626
   78CHL1  H18C 8208   5.996   0.656   7.592 -1.1947 -0.0223 -0.7131
   78CHL1   C12 8209   5.733   0.781   7.654 -0.3142  0.6704 -0.1224
   78CHL1  H12A 8210   5.701   0.682   7.695  0.4029  0.4265 -0.1414
   78CHL1  H12B 8211   5.668   0.862   7.692  0.4132  0.0084  2.7947
   78CHL1   C11 8212   5.738   0.749   7.498 -0.0058 -0.2679 -0.1972
   78CHL1  H11A 8213   5.776   0.647   7.476 -0.1882 -0.2135 -0.7767
   78CHL1  H11B 8214   5.633   0.735   7.466 -0.1802  0.0055  0.2433
   78CHL1    C9 8215   5.821   0.858   7.421  0.2689  0.0306  0.0449
   78CHL1    H9 8216   5.752   0.945   7.430  0.7885  0.2818  1.9173
   78CHL1   C10 8217   5.845   0.829   7.263  0.0463 -0.2381 -0.0902
   78CHL1   C19 8218   5.898   0.689   7.242 -0.0205 -0.6016 -1.0265
   78CHL1  H19A 8219   5.955   0.679   7.148  2.1650  2.8940 -0.2842
   78CHL1  H19B 8220   5.972   0.677   7.324 -0.3145  3.9187  0.2120
   78CHL1  H19C 8221   5.809   0.623   7.251 -0.6042  0.0392 -1.9220
   78CHL1    C1 8222   5.704   0.842   7.198  0.1188  0.3212 -0.4693
   78CHL1   H1A 8223   5.633   0.761   7.225  1.1358 -0.4185  0.0464
   78CHL1   H1B 8224   5.662   0.938   7.235  0.1448 -0.7013  2.4846
   78CHL1    C2 8225   5.706   0.843   7.039 -0.2674 -0.4683  0.8534
   78CHL1   H2A 8226   5.603   0.859   7.002  0.3190 -1.0733 -1.1929
   78CHL1   H2B 8227   5.730   0.743   6.995  1.9445 -0.1370  1.2062
   78CHL1   C20 8228   5.861   0.765   7.970  0.6782 -0.6912  0.2534
   78CHL1   H20 8229   5.925   0.675   7.953 -0.7461 -1.4489 -1.3197
   78CHL1   C21 8230   5.707   0.731   7.987  0.1112  0.3471 -0.2646
   78CHL1  H21A 8231   5.648   0.825   7.987  0.8788  0.8377  0.0916
   78CHL1  H21B 8232   5.683   0.685   8.085  0.4643  2.9200  1.1121
   78CHL1  H21C 8233   5.678   0.670   7.899  0.3545 -0.6715  0.3428
   78CHL1   C22 8234   5.899   0.818   8.113  0.2838 -0.7751 -0.8753
   78CHL1  H22A 8235   6.000   0.864   8.112 -0.0324 -0.0735 -1.0110
   78CHL1  H22B 8236   5.820   0.892   8.137 -0.8031 -2.4380  0.9684
   78CHL1   C23 8237   5.905   0.706   8.223  0.6235 -0.1788 -0.2336
   78CHL1  H23A 8238   5.813   0.645   8.236 -0.3882  1.5882  1.4190
   78CHL1  H23B 8239   5.989   0.640   8.192  0.2000 -0.5737 -0.5538
   78CHL1   C24 8240   5.909   0.774   8.363  0.3683 -0.3792 -0.2197
   78CHL1  H24A 8241   5.986   0.854   8.369  0.2812 -0.3067 -0.0331
   78CHL1  H24B 8242   5.817   0.836   8.377 -1.3115 -1.8510 -3.5807
   78CHL1   C25 8243   5.911   0.675   8.474  0.0096  0.4313 -1.0332
   78CHL1   H25 8244   5.986   0.593   8.468  0.2184  0.0556  3.3555
   78CHL1   C26 8245   5.964   0.739   8.608 -0.3078 -0.0683 -0.1232
   78CHL1  H26A 8246   6.056   0.799   8.589 -1.5909  1.6649 -1.1834
   78CHL1  H26B 8247   5.891   0.807   8.656 -0.3434  0.3021 -0.6877
   78CHL1  H26C 8248   6.004   0.662   8.677  3.2828 -1.8016 -3.6635
   78CHL1   C27 8249   5.781   0.605   8.504 -0.2715  0.0976  0.1205
   78CHL1  H27A 8250   5.780   0.519   8.574 -0.3213  1.2155  1.5408
   78CHL1  H27B 8251   5.715   0.685   8.546 -0.8119 -0.3931  0.2246
   78CHL1  H27C 8252   5.743   0.570   8.406  0.0246 -0.0253  0.0494
   79CHL1    C3 8253   3.991   6.570   7.105 -0.2195 -0.3106  0.1948
   79CHL1    H3 8254   4.041   6.471   7.117 -1.7854 -1.1656  0.0008
   79CHL1    O3 8255   3.950   6.590   6.970  0.1985  0.1013 -0.2249
   79CHL1   H3' 8256   4.011   6.657   6.939  2.8035  0.4067  4.6788
   79CHL1    C4 8257   3.854   6.570   7.183  0.4955  0.3757  0.1762
   79CHL1   H4A 8258   3.798   6.661   7.152 -0.0443  0.0112  0.0743
   79CHL1   H4B 8259   3.797   6.485   7.140  0.5681  2.0564 -3.6485
   79CHL1    C5 8260   3.882   6.558   7.332  0.5308 -0.2526  0.2923
   79CHL1    C6 8261   3.826   6.455   7.405 -0.5544  0.4689 -0.3672
   79CHL1    H6 8262   3.749   6.392   7.357  0.0078  0.1771 -0.9029
   79CHL1    C7 8263   3.853   6.441   7.558  0.5641  0.0855  0.2464
   79CHL1   H7A 8264   3.771   6.405   7.625  1.4463  0.4690  1.5871
   79CHL1   H7B 8265   3.943   6.381   7.580  0.7239  0.9621  2.2691
   79CHL1    C8 8266   3.888   6.578   7.623 -0.3995 -0.2806 -0.6314
   79CHL1    H8 8267   3.798   6.643   7.625  0.1389  0.5351  2.3896
   79CHL1   C14 8268   3.932   6.570   7.766  0.1882 -0.1034  0.0577
   79CHL1   H14 8269   4.011   6.492   7.765 -1.3453 -1.7197 -0.8361
   79CHL1   C15 8270   3.830   6.514   7.861  0.7215 -0.9943  0.5519
   79CHL1  H15A 8271   3.732   6.556   7.827  1.7071 -0.6704 -2.1566
   79CHL1  H15B 8272   3.838   6.405   7.843  1.4098 -0.8308 -0.2106
   79CHL1   C16 8273   3.880   6.555   7.998  0.0983 -0.3097 -0.2639
   79CHL1  H16A 8274   3.795   6.604   8.051  1.6630 -0.7654  2.8497
   79CHL1  H16B 8275   3.915   6.468   8.057 -0.5551  0.6003  1.5328
   79CHL1   C17 8276   4.001   6.660   7.976 -0.2632 -0.4113  0.0317
   79CHL1   H17 8277   4.099   6.608   7.980  1.1947  2.1027 -0.8203
   79CHL1   C13 8278   3.979   6.698   7.832 -0.6966 -0.3805  0.3005
   79CHL1   C18 8279   3.862   6.802   7.831  0.3533 -0.8529 -0.0011
   79CHL1  H18A 8280   3.769   6.771   7.884  0.0943  0.5455  0.4230
   79CHL1  H18B 8281   3.878   6.900   7.881 -2.3249 -0.7215  0.7786
   79CHL1  H18C 8282   3.829   6.819   7.727 -0.0484  0.4423  0.3156
   79CHL1   C12 8283   4.102   6.747   7.763  0.3701 -0.1740 -0.0477
   79CHL1  H12A 8284   4.136   6.843   7.808 -0.9645 -0.4769  1.7158
   79CHL1  H12B 8285   4.182   6.672   7.776  0.0346 -0.3996  0.7786
   79CHL1   C11 8286   4.073   6.766   7.614  0.1447  0.1389  0.1556
   79CHL1  H11A 8287   4.003   6.851   7.615 -1.8341 -1.4269  1.1357
   79CHL1  H11B 8288   4.169   6.797   7.567  0.9894  3.3448  3.5587
   79CHL1    C9 8289   4.004   6.646   7.544 -0.2255  0.0991  0.1913
   79CHL1    H9 8290   4.086   6.571   7.550 -1.0128 -0.6468  3.0059
   79CHL1   C10 8291   3.963   6.667   7.396  0.8604 -0.4393 -0.1414
   79CHL1   C19 8292   3.871   6.795   7.385  0.4111  0.0451  0.7077
   79CHL1  H19A 8293   3.839   6.821   7.282  2.1946  0.6979  0.2854
   79CHL1  H19B 8294   3.788   6.795   7.460 -1.6232  3.5374 -1.3036
   79CHL1  H19C 8295   3.933   6.885   7.405  1.5427 -0.0802 -1.8284
   79CHL1    C1 8296   4.092   6.696   7.312 -0.0701 -0.1920  0.3601
   79CHL1   H1A 8297   4.142   6.789   7.346 -0.2691 -0.2892  0.9162
   79CHL1   H1B 8298   4.160   6.611   7.332  0.1034  0.1102  1.0671
   79CHL1    C2 8299   4.071   6.694   7.154 -0.5379 -0.2035 -0.4003
   79CHL1   H2A 8300   4.174   6.690   7.112 -1.0911 -0.6189 -1.7762
   79CHL1   H2B 8301   4.029   6.791   7.121 -1.7742  0.6538  3.2451
   79CHL1   C20 8302   4.001   6.757   8.097  0.0950 -0.1011 -0.1024
   79CHL1   H20 8303   3.904   6.811   8.096 -0.2286 -0.6722 -0.7260
   79CHL1   C21 8304   4.115   6.857   8.069  0.6087  0.1244  0.1869
   79CHL1  H21A 8305   4.203   6.801   8.029 -1.0478 -2.9355  0.5466
   79CHL1  H21B 8306   4.150   6.912   8.159  0.3879  0.7603 -0.1103
   79CHL1  H21C 8307   4.091   6.933   7.992 -0.8712 -0.9150 -0.4175
   79CHL1   C22 8308   4.006   6.692   8.235  0.0883  0.4022  0.1866
   79CHL1  H22A 8309   3.936   6.606   8.247 -2.0837  2.0887  0.1806
   79CHL1  H22B 8310   4.108   6.649   8.232 -0.0298  0.1806 -0.8347
   79CHL1   C23 8311   3.992   6.789   8.356  0.6131  0.5873 -0.3364
   79CHL1  H23A 8312   4.031   6.737   8.447  1.4534  0.8860 -0.5117
   79CHL1  H23B 8313   4.060   6.875   8.370 -1.1428  1.7579  1.5706
   79CHL1   C24 8314   3.841   6.826   8.383 -0.3583 -0.2295 -0.4476
   79CHL1  H24A 8315   3.825   6.923   8.333  1.9106 -0.8536 -2.5607
   79CHL1  H24B 8316   3.769   6.750   8.345  0.8267 -1.9262  0.5705
   79CHL1   C25 8317   3.814   6.850   8.527  0.5513 -0.5259 -0.2249
   79CHL1   H25 8318   3.895   6.914   8.568  0.2244  1.2029 -2.1000
   79CHL1   C26 8319   3.680   6.926   8.549  0.0841  0.1708 -0.5997
   79CHL1  H26A 8320   3.684   7.004   8.470 -0.0936 -0.6101 -1.4037
   79CHL1  H26B 8321   3.592   6.862   8.531  0.0868  0.0533 -0.2079
   79CHL1  H26C 8322   3.670   6.964   8.653 -0.3208 -0.2072 -0.4991
   79CHL1   C27 8323   3.805   6.713   8.608  0.1358 -0.8305  0.3714
   79CHL1  H27A 8324   3.900   6.656   8.603  0.5762 -0.1239  0.6799
   79CHL1  H27B 8325   3.794   6.737   8.715 -1.8077  0.2879 -0.0356
   79CHL1  H27C 8326   3.727   6.643   8.568  0.5169 -0.4514 -1.1107
   80CHL1    C3 8327   2.193   5.170   7.028 -0.4053  0.3441 -0.0530
   80CHL1    H3 8328   2.135   5.085   7.071  1.9743 -0.5471  1.6163
   80CHL1    O3 8329   2.167   5.193   6.895  0.2527  0.4079  0.6148
   80CHL1   H3' 8330   2.195   5.110   6.854  1.4000  0.4797  1.1925
   80CHL1    C4 8331   2.168   5.303   7.109  0.3375  0.9619 -0.3846
   80CHL1   H4A 8332   2.220   5.390   7.065  0.9170  0.1822 -1.2844
   80CHL1   H4B 8333   2.061   5.331   7.098 -0.0102 -0.6200 -1.4552
   80CHL1    C5 8334   2.197   5.273   7.256  0.2804 -0.2794  0.4563
   80CHL1    C6 8335   2.100   5.289   7.348 -0.1104  0.5636 -0.7857
   80CHL1    H6 8336   2.002   5.323   7.312 -1.1121  0.8976  1.9937
   80CHL1    C7 8337   2.114   5.270   7.498  0.3609  0.2510 -0.0234
   80CHL1   H7A 8338   2.078   5.368   7.535 -1.7632 -0.2091 -0.7206
   80CHL1   H7B 8339   2.057   5.184   7.538 -0.7414  1.7132  1.7130
   80CHL1    C8 8340   2.266   5.264   7.533 -0.0415 -0.5788  1.0268
   80CHL1    H8 8341   2.305   5.368   7.532 -1.2339 -0.1205  0.3656
   80CHL1   C14 8342   2.279   5.208   7.672  0.3616  0.3064 -0.3166
   80CHL1   H14 8343   2.254   5.101   7.652  2.8478 -0.2212 -1.0541
   80CHL1   C15 8344   2.188   5.248   7.794  0.5382  0.2318  0.4455
   80CHL1  H15A 8345   2.164   5.355   7.778  0.2467  0.0626 -0.2755
   80CHL1  H15B 8346   2.089   5.200   7.779  0.9282 -0.5878  0.4098
   80CHL1   C16 8347   2.263   5.217   7.923  0.4184 -0.0021  0.8838
   80CHL1  H16A 8348   2.277   5.312   7.979 -0.8665 -0.4142  1.9536
   80CHL1  H16B 8349   2.212   5.154   7.999 -0.0680 -2.0737 -1.0718
   80CHL1   C17 8350   2.396   5.149   7.867 -0.6310  0.5956 -0.2293
   80CHL1   H17 8351   2.365   5.044   7.845  1.5818 -0.1547  0.0282
   80CHL1   C13 8352   2.421   5.213   7.727  0.6954  0.8196 -0.0473
   80CHL1   C18 8353   2.464   5.358   7.741 -0.1474  0.5673 -0.3323
   80CHL1  H18A 8354   2.506   5.395   7.645  2.7734  2.3604  1.4773
   80CHL1  H18B 8355   2.381   5.427   7.770  0.3923  2.6257 -3.2727
   80CHL1  H18C 8356   2.549   5.373   7.811  0.4106 -1.2120 -0.6049
   80CHL1   C12 8357   2.506   5.127   7.635 -0.3981  0.1734 -0.8877
   80CHL1  H12A 8358   2.607   5.117   7.680 -0.1186 -2.9691 -1.9601
   80CHL1  H12B 8359   2.466   5.024   7.636  0.4903 -0.2387 -2.7737
   80CHL1   C11 8360   2.499   5.173   7.492  0.3469 -0.1970  0.7960
   80CHL1  H11A 8361   2.540   5.276   7.487  0.7759 -0.3362  1.3729
   80CHL1  H11B 8362   2.563   5.108   7.429 -0.3311  0.9064 -1.1045
   80CHL1    C9 8363   2.350   5.181   7.433 -0.2971  0.4968 -0.1530
   80CHL1    H9 8364   2.312   5.078   7.445  1.1058  0.2089  2.8473
   80CHL1   C10 8365   2.340   5.225   7.285  0.6939  0.0935 -0.6283
   80CHL1   C19 8366   2.434   5.339   7.249  0.3353 -0.0228 -0.3510
   80CHL1  H19A 8367   2.538   5.324   7.283  0.4515  2.6640  0.7214
   80CHL1  H19B 8368   2.433   5.358   7.139  1.1564 -0.1027 -0.3738
   80CHL1  H19C 8369   2.411   5.438   7.295  1.6632 -0.2992  0.9701
   80CHL1    C1 8370   2.374   5.100   7.191  0.3005 -0.1944 -0.1958
   80CHL1   H1A 8371   2.483   5.075   7.195 -0.1062 -1.8690  1.8838
   80CHL1   H1B 8372   2.307   5.023   7.235 -0.8373  2.4665  3.1795
   80CHL1    C2 8373   2.339   5.124   7.041  0.7775  0.1371  0.1695
   80CHL1   H2A 8374   2.361   5.028   6.989  0.9189  1.0077 -1.4263
   80CHL1   H2B 8375   2.402   5.204   6.996  1.5543 -0.3752  0.3075
   80CHL1   C20 8376   2.508   5.128   7.973  0.3954 -0.1261 -0.1699
   80CHL1   H20 8377   2.604   5.110   7.919 -0.0984 -1.0412 -0.7621
   80CHL1   C21 8378   2.463   5.018   8.072 -0.5877 -0.0992  0.1344
   80CHL1  H21A 8379   2.355   4.996   8.081 -0.3777 -0.8568  0.9871
   80CHL1  H21B 8380   2.484   5.059   8.173  0.6179 -1.5665  0.5278
   80CHL1  H21C 8381   2.513   4.918   8.070  0.1829  0.2682 -2.2029
   80CHL1   C22 8382   2.531   5.260   8.061 -0.2062  0.2725 -0.6231
   80CHL1  H22A 8383   2.555   5.346   7.995  2.3388 -1.1069 -1.6149
   80CHL1  H22B 8384   2.433   5.279   8.112 -0.0990  1.4617 -0.8405
   80CHL1   C23 8385   2.648   5.271   8.160 -0.6068  0.3590  0.6182
   80CHL1  H23A 8386   2.641   5.182   8.227 -0.1952 -0.2482 -0.1321
   80CHL1  H23B 8387   2.749   5.262   8.114 -0.4753  0.1509  0.9426
   80CHL1   C24 8388   2.636   5.393   8.253 -0.1304 -0.6350  0.4721
   80CHL1  H24A 8389   2.633   5.486   8.192  4.0283 -0.1187  0.7711
   80CHL1  H24B 8390   2.535   5.390   8.301 -1.0787 -0.3718 -1.4166
   80CHL1   C25 8391   2.734   5.411   8.372 -0.4919  0.4635 -0.0345
   80CHL1   H25 8392   2.832   5.376   8.331 -1.3666 -2.6290  0.2945
   80CHL1   C26 8393   2.729   5.552   8.427  0.3726 -0.0745 -0.4113
   80CHL1  H26A 8394   2.799   5.551   8.513  1.2507 -1.3282 -1.1048
   80CHL1  H26B 8395   2.757   5.636   8.359  3.9652  1.1555  2.3040
   80CHL1  H26C 8396   2.631   5.557   8.479  1.2501  1.5974  1.1812
   80CHL1   C27 8397   2.706   5.319   8.491  0.0590 -0.1729 -0.1561
   80CHL1  H27A 8398   2.605   5.352   8.521  0.9504  0.9768  1.7323
   80CHL1  H27B 8399   2.713   5.213   8.458 -2.2393 -0.1226 -0.9672
   80CHL1  H27C 8400   2.775   5.333   8.577  1.0718 -0.5283 -0.8847
   81CHL1    C3 8401   6.793   5.232   6.774 -0.3503 -0.2108 -0.0055
   81CHL1    H3 8402   6.846   5.137   6.753 -2.7260 -1.7254  0.4267
   81CHL1    O3 8403   6.752   5.289   6.651 -0.8693 -0.3747 -0.2862
   81CHL1   H3' 8404   6.827   5.327   6.603 -1.5915  1.0080 -0.3819
   81CHL1    C4 8405   6.673   5.180   6.846  0.2157 -0.6554 -0.0867
   81CHL1   H4A 8406   6.607   5.269   6.848  2.4331  1.0755 -0.2723
   81CHL1   H4B 8407   6.625   5.101   6.785 -0.8733 -1.6924  1.9746
   81CHL1    C5 8408   6.698   5.136   6.988  0.4024  0.0639 -0.3163
   81CHL1    C6 8409   6.678   5.010   7.027 -0.4680 -0.0067 -0.1603
   81CHL1    H6 8410   6.638   4.932   6.960 -2.8269 -1.4088  2.6531
   81CHL1    C7 8411   6.709   4.966   7.171  0.0014  0.3763  0.3593
   81CHL1   H7A 8412   6.634   4.893   7.210  0.4671  0.4457  1.4053
   81CHL1   H7B 8413   6.806   4.913   7.180 -0.1570 -0.2221 -1.1873
   81CHL1    C8 8414   6.727   5.082   7.274 -0.4766  0.8387 -0.1971
   81CHL1    H8 8415   6.626   5.123   7.292 -0.6285  0.5404 -0.3486
   81CHL1   C14 8416   6.782   5.025   7.403 -0.0466  0.8085  0.1324
   81CHL1   H14 8417   6.880   4.983   7.373 -0.9320 -1.0590 -0.2661
   81CHL1   C15 8418   6.709   4.916   7.468  0.2354 -0.4208  0.0267
   81CHL1  H15A 8419   6.601   4.940   7.470  0.5602  1.1649  1.8025
   81CHL1  H15B 8420   6.734   4.817   7.426 -1.0413 -1.8500  2.4264
   81CHL1   C16 8421   6.765   4.915   7.615  0.0060 -0.9931 -0.1796
   81CHL1  H16A 8422   6.680   4.926   7.686  1.2805  0.0047  1.2684
   81CHL1  H16B 8423   6.825   4.825   7.637 -1.2573 -2.3747 -2.1154
   81CHL1   C17 8424   6.872   5.040   7.623  0.6429  0.5501 -0.0102
   81CHL1   H17 8425   6.972   5.000   7.594  0.9696 -1.3313  3.1709
   81CHL1   C13 8426   6.819   5.131   7.503 -0.3202 -0.1989  0.1327
   81CHL1   C18 8427   6.686   5.204   7.560 -0.6722 -0.7862  0.0348
   81CHL1  H18A 8428   6.636   5.265   7.482 -0.0817  0.9945  0.9844
   81CHL1  H18B 8429   6.604   5.138   7.595 -0.4768 -1.1707 -0.2205
   81CHL1  H18C 8430   6.723   5.277   7.635 -1.1101  1.6618 -2.0103
   81CHL1   C12 8431   6.922   5.223   7.448  0.8436 -0.4652  0.3972
   81CHL1  H12A 8432   6.950   5.305   7.518 -0.8939 -0.3062  0.9517
   81CHL1  H12B 8433   7.014   5.172   7.414 -0.2132 -0.8954 -2.0327
   81CHL1   C11 8434   6.866   5.290   7.317 -0.2020 -0.5056 -0.7972
   81CHL1  H11A 8435   6.782   5.348   7.360  0.6492 -0.7034  1.2736
   81CHL1  H11B 8436   6.939   5.357   7.267 -0.7916  1.3203  0.6876
   81CHL1    C9 8437   6.825   5.188   7.216  0.1860  1.0484 -0.0694
   81CHL1    H9 8438   6.922   5.138   7.197  1.3314  3.5975 -1.4642
   81CHL1   C10 8439   6.781   5.240   7.076  0.3214  0.0060  0.1253
   81CHL1   C19 8440   6.682   5.358   7.110 -0.4083 -0.3769  0.7208
   81CHL1  H19A 8441   6.596   5.327   7.174  0.1225 -1.3724  0.9726
   81CHL1  H19B 8442   6.737   5.442   7.158  0.3213 -0.2958 -0.2296
   81CHL1  H19C 8443   6.649   5.411   7.018  0.7498 -0.2918  0.3444
   81CHL1    C1 8444   6.901   5.278   6.993  0.1019 -0.7908 -0.2724
   81CHL1   H1A 8445   6.955   5.362   7.042 -0.1130 -0.7742 -0.0619
   81CHL1   H1B 8446   6.985   5.205   6.991  0.0125 -0.9697  1.3341
   81CHL1    C2 8447   6.875   5.334   6.856  0.0631 -0.1834 -0.5962
   81CHL1   H2A 8448   6.972   5.343   6.801 -0.5231 -1.1664 -1.8598
   81CHL1   H2B 8449   6.840   5.439   6.853 -0.0982 -0.2636 -2.2108
   81CHL1   C20 8450   6.894   5.102   7.764  0.6827 -0.0132 -0.0244
   81CHL1   H20 8451   6.799   5.150   7.798 -0.1759 -0.1688 -2.0794
   81CHL1   C21 8452   7.001   5.214   7.759 -0.2454  0.8454 -0.6492
   81CHL1  H21A 8453   7.081   5.188   7.687  1.0843 -0.0279  1.0840
   81CHL1  H21B 8454   7.043   5.240   7.858  2.0738  2.3951 -1.9566
   81CHL1  H21C 8455   6.957   5.313   7.734 -0.1264  1.1822  0.4326
   81CHL1   C22 8456   6.920   5.000   7.880  0.0385  0.6103  0.7596
   81CHL1  H22A 8457   6.910   5.057   7.975 -0.2658  0.4764  0.8112
   81CHL1  H22B 8458   6.844   4.918   7.886 -1.4737  1.6759 -2.1698
   81CHL1   C23 8459   7.055   4.926   7.868  0.1723 -0.9972 -0.4950
   81CHL1  H23A 8460   7.047   4.849   7.788  0.0977  0.3462 -1.8399
   81CHL1  H23B 8461   7.124   5.009   7.841 -1.5506  1.4750  2.1406
   81CHL1   C24 8462   7.116   4.845   7.992 -0.1276  0.9946 -0.1460
   81CHL1  H24A 8463   7.038   4.771   8.019  0.3230  0.9736  1.1612
   81CHL1  H24B 8464   7.202   4.778   7.970  0.0794  0.8279  1.0931
   81CHL1   C25 8465   7.156   4.929   8.114 -0.4514 -0.3262  0.5853
   81CHL1   H25 8466   7.064   4.972   8.158 -0.7846 -0.7309  0.2921
   81CHL1   C26 8467   7.216   4.834   8.226 -0.2598 -0.8430  0.8614
   81CHL1  H26A 8468   7.244   4.890   8.318  2.6357 -0.3463 -0.2055
   81CHL1  H26B 8469   7.144   4.753   8.247  0.1285 -1.5284 -0.3422
   81CHL1  H26C 8470   7.304   4.783   8.182  0.1913 -0.6959  1.5701
   81CHL1   C27 8471   7.253   5.044   8.072  0.2041 -0.3478 -0.6736
   81CHL1  H27A 8472   7.275   5.109   8.159 -0.6277 -2.3934  1.1728
   81CHL1  H27B 8473   7.352   5.003   8.043  0.9260  0.7697  0.1607
   81CHL1  H27C 8474   7.212   5.104   7.987  1.7430  0.8212 -0.6390
   82CHL1    C3 8475   2.754   5.337   6.965  0.3661 -0.3023 -0.7594
   82CHL1    H3 8476   2.666   5.291   7.015  0.6338  1.3976  1.4360
   82CHL1    O3 8477   2.730   5.357   6.828 -0.1434 -0.6906  0.4405
   82CHL1   H3' 8478   2.808   5.403   6.796  0.1362 -1.4620 -0.0054
   82CHL1    C4 8479   2.806   5.467   7.028 -0.0749 -0.0157  0.5556
   82CHL1   H4A 8480   2.903   5.488   6.979  0.9327  0.9826  2.7925
   82CHL1   H4B 8481   2.739   5.550   6.997 -1.2651 -0.5875  1.4946
   82CHL1    C5 8482   2.814   5.455   7.175 -0.5712 -0.1081  0.4755
   82CHL1    C6 8483   2.742   5.534   7.258 -0.3513 -0.0026  0.2742
   82CHL1    H6 8484   2.669   5.604   7.217 -1.0056 -0.2924  0.9211
   82CHL1    C7 8485   2.757   5.536   7.412 -0.0308  0.5553  0.2634
   82CHL1   H7A 8486   2.771   5.641   7.447 -1.7128  0.7428  0.4593
   82CHL1   H7B 8487   2.660   5.508   7.459  0.8260 -2.5890  0.3198
   82CHL1    C8 8488   2.871   5.440   7.460 -0.0821  0.2352 -0.9166
   82CHL1    H8 8489   2.961   5.506   7.457 -0.0298  0.2506  0.3695
   82CHL1   C14 8490   2.853   5.402   7.604  0.1625  0.7488  0.1320
   82CHL1   H14 8491   2.757   5.346   7.604 -0.4904  1.8366  0.9398
   82CHL1   C15 8492   2.834   5.514   7.716 -0.1821 -0.2637 -0.0907
   82CHL1  H15A 8493   2.909   5.592   7.691 -0.4486  0.4554  1.2866
   82CHL1  H15B 8494   2.735   5.563   7.713 -0.4788 -0.8745 -0.7431
   82CHL1   C16 8495   2.873   5.444   7.846  0.4695  0.2629  0.0511
   82CHL1  H16A 8496   2.963   5.502   7.876  0.9307 -0.1586 -0.4966
   82CHL1  H16B 8497   2.795   5.447   7.925 -0.8505  0.4535 -1.2277
   82CHL1   C17 8498   2.910   5.299   7.805 -0.0551  0.0781 -0.6534
   82CHL1   H17 8499   2.812   5.245   7.800 -0.3219 -0.0683  2.9841
   82CHL1   C13 8500   2.961   5.315   7.662  1.0028 -0.0497  0.0771
   82CHL1   C18 8501   3.098   5.378   7.659 -0.1657  0.4522 -0.0797
   82CHL1  H18A 8502   3.128   5.401   7.555 -1.1122 -3.3981 -1.3817
   82CHL1  H18B 8503   3.112   5.468   7.723 -1.3572 -0.1737  1.1123
   82CHL1  H18C 8504   3.171   5.300   7.690  0.0684  0.7660  0.1621
   82CHL1   C12 8505   2.964   5.186   7.582 -0.2803  0.1394 -0.2634
   82CHL1  H12A 8506   3.042   5.123   7.630  1.0888  0.8509 -1.4839
   82CHL1  H12B 8507   2.870   5.131   7.602  0.2080 -1.0676 -1.1374
   82CHL1   C11 8508   2.991   5.212   7.436 -0.8628 -0.1563  0.3529
   82CHL1  H11A 8509   3.095   5.236   7.405  0.0609 -1.7947  1.9864
   82CHL1  H11B 8510   2.954   5.125   7.377 -0.6631  1.0847 -1.6953
   82CHL1    C9 8511   2.887   5.318   7.377 -0.3646 -0.0723  0.4041
   82CHL1    H9 8512   2.790   5.265   7.381 -0.0255 -0.6485  1.7424
   82CHL1   C10 8513   2.911   5.343   7.221  0.2038 -0.1138  0.0453
   82CHL1   C19 8514   3.052   5.397   7.200  0.1114 -0.3643  0.2138
   82CHL1  H19A 8515   3.080   5.432   7.098  2.6137 -1.7620  0.3457
   82CHL1  H19B 8516   3.075   5.484   7.266  1.6270 -0.2629 -0.4043
   82CHL1  H19C 8517   3.131   5.321   7.216  2.8397  1.2506 -3.9025
   82CHL1    C1 8518   2.890   5.213   7.135  0.2658 -0.1009 -0.3714
   82CHL1   H1A 8519   2.972   5.139   7.147 -0.5896 -0.8391  1.1251
   82CHL1   H1B 8520   2.793   5.167   7.163  0.3225 -0.8022 -1.2852
   82CHL1    C2 8521   2.859   5.233   6.982 -0.8588 -0.1121 -0.6993
   82CHL1   H2A 8522   2.840   5.134   6.935 -0.1931 -1.4549  1.6359
   82CHL1   H2B 8523   2.945   5.279   6.929 -0.4992 -1.2737 -1.1746
   82CHL1   C20 8524   2.993   5.213   7.895 -0.1099  0.1960 -1.1364
   82CHL1   H20 8525   3.079   5.181   7.832 -0.7138 -0.9192 -1.4333
   82CHL1   C21 8526   2.914   5.085   7.942 -0.1035 -0.0984  0.6269
   82CHL1  H21A 8527   2.869   5.033   7.856  0.4736 -1.7909  1.3115
   82CHL1  H21B 8528   2.839   5.089   8.024 -0.2521 -1.0146  0.5410
   82CHL1  H21C 8529   2.984   5.002   7.964  2.3410  1.6761  0.0285
   82CHL1   C22 8530   3.065   5.294   8.011  0.0880  0.1802 -0.2332
   82CHL1  H22A 8531   3.113   5.382   7.963 -0.6474  1.1839  0.8139
   82CHL1  H22B 8532   2.984   5.333   8.077  0.8919  2.5307 -0.5502
   82CHL1   C23 8533   3.181   5.231   8.090  1.6352 -0.1677  0.1780
   82CHL1  H23A 8534   3.144   5.137   8.137 -0.9382 -0.2519 -1.7963
   82CHL1  H23B 8535   3.264   5.191   8.027  1.6743  0.1524  0.0263
   82CHL1   C24 8536   3.243   5.317   8.194 -0.1432  0.2164 -0.6380
   82CHL1  H24A 8537   3.336   5.272   8.236 -0.5699  0.6698  0.8889
   82CHL1  H24B 8538   3.277   5.413   8.150 -1.0892 -0.2518 -2.4624
   82CHL1   C25 8539   3.152   5.339   8.316 -0.0613 -0.2168  0.1285
   82CHL1   H25 8540   3.062   5.392   8.276 -0.0592 -0.2915  0.0251
   82CHL1   C26 8541   3.107   5.212   8.395  0.2145 -0.5294 -0.4788
   82CHL1  H26A 8542   3.198   5.167   8.440  0.1335 -0.2382 -0.0206
   82CHL1  H26B 8543   3.050   5.247   8.483  0.2219  1.3065 -1.1651
   82CHL1  H26C 8544   3.048   5.138   8.336  0.4304 -0.9880 -0.1298
   82CHL1   C27 8545   3.221   5.437   8.409 -0.0905 -0.6110 -0.1325
   82CHL1  H27A 8546   3.232   5.540   8.369 -0.0205  0.9577  3.4738
   82CHL1  H27B 8547   3.155   5.444   8.499  0.9378 -0.5474  0.6275
   82CHL1  H27C 8548   3.319   5.396   8.440  0.6447  0.2386 -1.2203
   83CHL1    C3 8549   6.168   5.582   6.736 -0.0325 -0.2306  0.0247
   83CHL1    H3 8550   6.131   5.478   6.747  3.4066 -1.9624 -2.5676
   83CHL1    O3 8551   6.148   5.617   6.599 -0.2781 -0.3431 -0.3928
   83CHL1   H3' 8552   6.195   5.548   6.552 -2.6581 -1.4626 -1.2791
   83CHL1    C4 8553   6.088   5.679   6.825 -0.5315  0.0995 -0.3573
   83CHL1   H4A 8554   6.132   5.778   6.801  1.3944 -0.6336 -0.0481
   83CHL1   H4B 8555   5.985   5.666   6.786  0.1702 -1.5981 -1.7487
   83CHL1    C5 8556   6.091   5.658   6.974 -0.6392  0.3762 -0.5375
   83CHL1    C6 8557   5.981   5.642   7.048  0.4702 -0.6909 -0.0687
   83CHL1    H6 8558   5.884   5.663   6.999  0.0347  0.5855  1.2402
   83CHL1    C7 8559   5.979   5.619   7.194  0.7809  0.1166  0.2465
   83CHL1   H7A 8560   5.910   5.695   7.235 -2.3898 -2.9221  1.0344
   83CHL1   H7B 8561   5.938   5.518   7.216  0.0168  0.0819 -1.2613
   83CHL1    C8 8562   6.112   5.643   7.257 -0.0399 -0.1328 -0.4769
   83CHL1    H8 8563   6.125   5.753   7.254 -2.3887  0.2435  0.7109
   83CHL1   C14 8564   6.110   5.591   7.395 -0.3430 -0.1520 -0.0628
   83CHL1   H14 8565   6.060   5.492   7.393 -2.5946  0.8614  1.4981
   83CHL1   C15 8566   6.015   5.664   7.485  0.2307  0.6402  0.3462
   83CHL1  H15A 8567   6.026   5.774   7.479  2.0262  0.4512 -0.5938
   83CHL1  H15B 8568   5.907   5.644   7.478  0.5498 -1.7855  1.3471
   83CHL1   C16 8569   6.066   5.623   7.626 -0.7052 -0.3512 -0.3186
   83CHL1  H16A 8570   6.075   5.717   7.685 -0.3666 -1.4849  1.5171
   83CHL1  H16B 8571   6.002   5.544   7.672  1.1694 -2.0552 -0.4992
   83CHL1   C17 8572   6.205   5.559   7.606 -0.0849 -0.4006  0.3073
   83CHL1   H17 8573   6.203   5.449   7.612 -0.2060 -0.3865  0.5592
   83CHL1   C13 8574   6.242   5.597   7.467  0.0153 -0.4680 -0.0855
   83CHL1   C18 8575   6.300   5.739   7.474  0.3642  0.4798  0.3243
   83CHL1  H18A 8576   6.271   5.800   7.386  1.1700  0.0863 -0.2148
   83CHL1  H18B 8577   6.257   5.800   7.556  0.3940  0.3806  0.4146
   83CHL1  H18C 8578   6.409   5.742   7.491  0.3166  1.1656  0.5105
   83CHL1   C12 8579   6.333   5.505   7.386  0.3761 -0.4050  0.6811
   83CHL1  H12A 8580   6.440   5.495   7.415  0.6396 -2.3992 -0.8315
   83CHL1  H12B 8581   6.284   5.406   7.380 -1.6635  0.6334 -0.9069
   83CHL1   C11 8582   6.354   5.565   7.245 -0.3394 -0.5508 -0.5726
   83CHL1  H11A 8583   6.409   5.658   7.270 -1.6565 -0.4458  2.4548
   83CHL1  H11B 8584   6.434   5.500   7.205  1.4194  0.5885  0.9268
   83CHL1    C9 8585   6.223   5.580   7.171 -0.1515  0.2898  0.1984
   83CHL1    H9 8586   6.194   5.473   7.166  0.7549  0.0790 -1.8242
   83CHL1   C10 8587   6.235   5.633   7.027  0.1301  0.2389  0.3888
   83CHL1   C19 8588   6.305   5.771   7.029 -0.1928 -0.4568 -0.2054
   83CHL1  H19A 8589   6.320   5.805   6.925  2.4145 -1.3301 -0.1843
   83CHL1  H19B 8590   6.241   5.847   7.079  1.0311  0.5580 -0.1453
   83CHL1  H19C 8591   6.403   5.782   7.080 -0.4574 -0.3741  0.2970
   83CHL1    C1 8592   6.330   5.548   6.937  0.2513 -0.2161 -0.7688
   83CHL1   H1A 8593   6.438   5.569   6.953  0.1786  0.8001 -1.5487
   83CHL1   H1B 8594   6.305   5.442   6.962  0.0693  0.5887  3.2409
   83CHL1    C2 8595   6.317   5.569   6.786  0.5146 -0.6111  1.0427
   83CHL1   H2A 8596   6.374   5.487   6.735  0.7846 -0.7397  1.5486
   83CHL1   H2B 8597   6.356   5.669   6.758 -0.8313 -0.2970  0.2089
   83CHL1   C20 8598   6.303   5.593   7.726 -0.5312  0.0281 -0.3567
   83CHL1   H20 8599   6.347   5.695   7.725 -1.7362  0.5661 -1.3616
   83CHL1   C21 8600   6.423   5.496   7.715  1.1688  0.4251 -0.4310
   83CHL1  H21A 8601   6.378   5.396   7.729 -0.9433  1.3640 -0.0267
   83CHL1  H21B 8602   6.497   5.517   7.795  1.7456  0.9578 -1.0960
   83CHL1  H21C 8603   6.472   5.515   7.617  2.8877  1.0889  0.5234
   83CHL1   C22 8604   6.223   5.570   7.861 -0.2009  0.1532 -0.5600
   83CHL1  H22A 8605   6.133   5.634   7.876 -1.0624 -1.4122  1.5410
   83CHL1  H22B 8606   6.193   5.463   7.858 -0.3529  0.1189  1.1464
   83CHL1   C23 8607   6.312   5.578   7.986 -0.1095 -0.3340  0.8339
   83CHL1  H23A 8608   6.386   5.496   7.991  1.8698  1.0790 -2.2174
   83CHL1  H23B 8609   6.375   5.670   7.974 -0.3606 -0.1205  1.1351
   83CHL1   C24 8610   6.235   5.590   8.115  0.1281 -0.0927  0.3629
   83CHL1  H24A 8611   6.226   5.700   8.127  1.6067  0.1818 -0.7887
   83CHL1  H24B 8612   6.133   5.547   8.103 -0.7858  1.7605  1.0997
   83CHL1   C25 8613   6.311   5.523   8.228  0.4581  0.5720 -0.6087
   83CHL1   H25 8614   6.319   5.416   8.200 -0.1898  0.6068 -0.9308
   83CHL1   C26 8615   6.455   5.589   8.253 -0.1759 -0.1470 -0.1246
   83CHL1  H26A 8616   6.503   5.532   8.335  1.4082 -0.9847 -1.5902
   83CHL1  H26B 8617   6.512   5.582   8.158 -1.3736 -0.3469 -0.8512
   83CHL1  H26C 8618   6.435   5.696   8.277  0.0880  0.3866 -2.0901
   83CHL1   C27 8619   6.230   5.521   8.360  0.1499  0.3822  0.2727
   83CHL1  H27A 8620   6.129   5.552   8.328 -0.5703 -0.6532  1.4666
   83CHL1  H27B 8621   6.212   5.425   8.413 -1.5521  0.6650  0.2471
   83CHL1  H27C 8622   6.265   5.604   8.425 -1.9693  0.5020  1.3322
   84CHL1    C3 8623   6.437   1.074   6.887  0.5914  0.6150  0.0786
   84CHL1    H3 8624   6.335   1.118   6.899  1.2396  2.0500  0.4691
   84CHL1    O3 8625   6.453   1.033   6.747 -0.1764 -0.4858  0.3745
   84CHL1   H3' 8626   6.534   0.982   6.739  1.0030  1.2493  0.8650
   84CHL1    C4 8627   6.543   1.179   6.918 -0.3110  0.1285 -0.1613
   84CHL1   H4A 8628   6.645   1.141   6.899 -1.0088 -3.1562  1.8994
   84CHL1   H4B 8629   6.520   1.273   6.862  0.1815  0.2495 -0.1684
   84CHL1    C5 8630   6.536   1.215   7.067  0.2755  0.9918 -0.2465
   84CHL1    C6 8631   6.525   1.343   7.107  0.4686  0.2542 -0.2460
   84CHL1    H6 8632   6.515   1.417   7.027 -3.3991 -2.5267 -2.6855
   84CHL1    C7 8633   6.547   1.384   7.254  0.4316  0.4639  0.3299
   84CHL1   H7A 8634   6.615   1.472   7.249 -0.1410  0.9024  0.2581
   84CHL1   H7B 8635   6.445   1.418   7.280 -0.7098 -0.5731 -2.4088
   84CHL1    C8 8636   6.596   1.270   7.347  0.8821  0.4279  0.3988
   84CHL1    H8 8637   6.704   1.250   7.331  0.9599  0.0682  1.2825
   84CHL1   C14 8638   6.579   1.309   7.496 -0.4519 -0.2261 -0.0178
   84CHL1   H14 8639   6.469   1.322   7.500 -0.4319  0.4470 -1.1755
   84CHL1   C15 8640   6.649   1.436   7.545  0.3276 -0.1879 -0.1396
   84CHL1  H15A 8641   6.754   1.427   7.510 -0.7100 -1.0083 -3.4164
   84CHL1  H15B 8642   6.598   1.522   7.495 -0.4525  0.9303  2.4192
   84CHL1   C16 8643   6.618   1.423   7.693 -0.6621 -0.7650  0.5074
   84CHL1  H16A 8644   6.704   1.459   7.755 -0.2126 -1.9237  0.5683
   84CHL1  H16B 8645   6.527   1.485   7.708 -0.7262 -1.0192  1.2016
   84CHL1   C17 8646   6.579   1.278   7.728 -0.5615 -0.0551  0.1861
   84CHL1   H17 8647   6.470   1.285   7.752 -0.3966  1.0825  0.6647
   84CHL1   C13 8648   6.612   1.204   7.600 -0.7618  0.0815  0.5962
   84CHL1   C18 8649   6.769   1.168   7.592  0.4398  0.3126  0.4815
   84CHL1  H18A 8650   6.806   1.161   7.488 -0.9606 -2.2061  0.0625
   84CHL1  H18B 8651   6.827   1.251   7.637 -2.6603  3.8684 -1.4650
   84CHL1  H18C 8652   6.788   1.074   7.648 -0.3846  0.1360  0.4824
   84CHL1   C12 8653   6.530   1.082   7.563 -0.2985 -0.4711  0.6690
   84CHL1  H12A 8654   6.566   0.995   7.622 -1.4138 -1.8403 -0.5911
   84CHL1  H12B 8655   6.420   1.097   7.575 -0.2983 -1.2273  1.7643
   84CHL1   C11 8656   6.557   1.035   7.417 -0.3469 -0.2682 -0.2485
   84CHL1  H11A 8657   6.666   1.018   7.414 -0.1097  1.1872 -2.2776
   84CHL1  H11B 8658   6.512   0.933   7.424 -0.0326 -0.3520  0.6284
   84CHL1    C9 8659   6.521   1.141   7.312 -0.4125  0.5899  0.5160
   84CHL1    H9 8660   6.411   1.153   7.319 -0.4609  0.1002  0.6926
   84CHL1   C10 8661   6.549   1.093   7.164 -0.1697 -0.2149  1.1603
   84CHL1   C19 8662   6.696   1.048   7.154  0.0615  0.5785 -0.0579
   84CHL1  H19A 8663   6.706   0.997   7.055  0.1322  0.8206 -0.1782
   84CHL1  H19B 8664   6.768   1.130   7.175  1.0153 -0.1618 -0.3371
   84CHL1  H19C 8665   6.707   0.968   7.230 -0.6951  0.9842  0.4905
   84CHL1    C1 8666   6.445   0.985   7.125  0.2981 -0.0257 -0.7744
   84CHL1   H1A 8667   6.467   0.895   7.187  3.3238  0.4659 -1.0082
   84CHL1   H1B 8668   6.348   1.032   7.152  1.4136  1.2051  1.4267
   84CHL1    C2 8669   6.445   0.950   6.975 -0.1617  0.3789 -0.8007
   84CHL1   H2A 8670   6.349   0.897   6.955 -0.1849  0.2368 -0.3212
   84CHL1   H2B 8671   6.539   0.897   6.949  0.0570 -0.8564  2.1610
   84CHL1   C20 8672   6.640   1.228   7.854  0.8316  0.2981 -0.6191
   84CHL1   H20 8673   6.750   1.218   7.852  0.9535  0.8982  1.1363
   84CHL1   C21 8674   6.596   1.083   7.888 -0.2987 -0.0905 -1.1316
   84CHL1  H21A 8675   6.638   1.013   7.812  1.9334  0.5407 -0.5199
   84CHL1  H21B 8676   6.485   1.071   7.885 -0.1201 -2.2838 -0.4080
   84CHL1  H21C 8677   6.610   1.070   7.997 -1.9310  0.5498 -0.8243
   84CHL1   C22 8678   6.592   1.325   7.968 -0.1338 -0.0046 -0.0592
   84CHL1  H22A 8679   6.626   1.424   7.933  0.4788  0.4351  1.6994
   84CHL1  H22B 8680   6.482   1.316   7.975 -0.2567  1.8854  1.2641
   84CHL1   C23 8681   6.647   1.298   8.113 -0.1578 -0.0114  0.6993
   84CHL1  H23A 8682   6.568   1.238   8.163  0.7790 -1.3135  0.6596
   84CHL1  H23B 8683   6.745   1.245   8.113 -0.6776 -1.0041  1.1294
   84CHL1   C24 8684   6.673   1.424   8.192  0.3878  0.6778 -0.5734
   84CHL1  H24A 8685   6.736   1.489   8.128  1.7334 -1.2662 -1.3357
   84CHL1  H24B 8686   6.574   1.468   8.218  0.7788  0.7288  0.9215
   84CHL1   C25 8687   6.738   1.394   8.337  0.3558 -0.1286  0.9522
   84CHL1   H25 8688   6.680   1.323   8.400  1.4102  1.0884  3.4475
   84CHL1   C26 8689   6.882   1.343   8.325  0.0604 -0.0083  0.1844
   84CHL1  H26A 8690   6.889   1.262   8.249  1.2258  0.4544 -0.2260
   84CHL1  H26B 8691   6.939   1.433   8.295 -0.6158  0.2466 -0.3642
   84CHL1  H26C 8692   6.922   1.302   8.420 -0.2329  0.8812  0.6983
   84CHL1   C27 8693   6.738   1.521   8.417 -0.4772 -0.8699 -0.0387
   84CHL1  H27A 8694   6.802   1.590   8.359 -0.3233 -0.1346  0.9865
   84CHL1  H27B 8695   6.633   1.553   8.436 -0.3901  1.4511 -2.7955
   84CHL1  H27C 8696   6.799   1.494   8.506  1.0154 -0.3151 -0.8616
   85CHL1    C3 8697   5.513   0.264   6.824  0.5394 -0.4417 -0.5034
   85CHL1    H3 8698   5.444   0.346   6.854 -0.2120 -1.4203  0.4818
   85CHL1    O3 8699   5.527   0.254   6.686 -0.2622 -0.2803  0.3367
   85CHL1   H3' 8700   5.545   0.344   6.658 -0.8478 -0.1850  0.2511
   85CHL1    C4 8701   5.650   0.288   6.887 -0.0364 -0.6735  0.2568
   85CHL1   H4A 8702   5.726   0.223   6.839  0.7169  1.2710 -1.3367
   85CHL1   H4B 8703   5.662   0.395   6.860 -1.6651 -0.6088 -0.3043
   85CHL1    C5 8704   5.657   0.275   7.038  0.7972  0.1895  0.3185
   85CHL1    C6 8705   5.711   0.372   7.116 -0.2942 -0.2326 -0.1502
   85CHL1    H6 8706   5.777   0.446   7.067 -0.2412 -1.9188 -2.8636
   85CHL1    C7 8707   5.732   0.358   7.266  0.3687  0.4824 -0.4171
   85CHL1   H7A 8708   5.836   0.389   7.292 -0.4333  4.5371 -1.2611
   85CHL1   H7B 8709   5.652   0.426   7.305 -0.8034  1.4359 -4.1170
   85CHL1    C8 8710   5.703   0.216   7.317 -0.0159  0.3505 -0.3359
   85CHL1    H8 8711   5.785   0.143   7.303 -0.7523 -0.5690  0.0331
   85CHL1   C14 8712   5.684   0.225   7.466  0.0193 -0.2445  0.3613
   85CHL1   H14 8713   5.603   0.300   7.475  0.0173  0.1997 -2.4927
   85CHL1   C15 8714   5.797   0.281   7.550  0.3257  0.4660  0.2215
   85CHL1  H15A 8715   5.889   0.225   7.525 -2.3037 -4.0758 -0.3873
   85CHL1  H15B 8716   5.805   0.391   7.536 -1.6950  0.6039 -0.2859
   85CHL1   C16 8717   5.743   0.243   7.692  0.4387  0.2965 -0.0334
   85CHL1  H16A 8718   5.823   0.211   7.763  0.1649 -0.6435 -0.1437
   85CHL1  H16B 8719   5.695   0.336   7.730 -0.2133 -0.0728  0.0720
   85CHL1   C17 8720   5.622   0.136   7.675 -0.6175  0.2478 -0.2373
   85CHL1   H17 8721   5.525   0.190   7.678 -1.0125 -0.3811 -1.1894
   85CHL1   C13 8722   5.636   0.090   7.533 -0.0411 -0.1832  0.3647
   85CHL1   C18 8723   5.752  -0.014   7.523 -0.3151  0.0448 -0.3996
   85CHL1  H18A 8724   5.839   0.017   7.585  0.3565  1.1073 -1.8136
   85CHL1  H18B 8725   5.695  -0.104   7.554 -1.5562  0.8997 -0.1214
   85CHL1  H18C 8726   5.794  -0.027   7.421  0.9020  1.4512 -0.1017
   85CHL1   C12 8727   5.512   0.051   7.459  0.6901  0.3318 -0.0756
   85CHL1  H12A 8728   5.476  -0.049   7.494 -0.6896  0.6577 -0.4793
   85CHL1  H12B 8729   5.432   0.126   7.475  2.3218  1.9382  0.9483
   85CHL1   C11 8730   5.538   0.026   7.308  0.0197 -0.2247 -0.5587
   85CHL1  H11A 8731   5.622  -0.045   7.294  1.6614  1.7381 -1.2151
   85CHL1  H11B 8732   5.445  -0.024   7.273  0.9229 -1.0905 -1.7942
   85CHL1    C9 8733   5.584   0.156   7.250  0.3408  0.0471 -0.2309
   85CHL1    H9 8734   5.501   0.224   7.278  0.9534 -0.1067  2.1936
   85CHL1   C10 8735   5.589   0.150   7.096 -0.9082 -0.0347  0.4528
   85CHL1   C19 8736   5.674   0.032   7.055  0.3008  0.0199  0.3804
   85CHL1  H19A 8737   5.775   0.037   7.102  0.2598  0.9350  0.3776
   85CHL1  H19B 8738   5.630  -0.068   7.078 -1.4836  0.3117 -1.4943
   85CHL1  H19C 8739   5.688   0.023   6.945 -2.3583 -1.5346  0.1028
   85CHL1    C1 8740   5.445   0.130   7.029 -1.0026 -0.5053 -0.4024
   85CHL1   H1A 8741   5.396   0.042   7.074 -0.0392 -0.8725 -0.0364
   85CHL1   H1B 8742   5.388   0.218   7.064 -0.0844 -0.3363  0.7249
   85CHL1    C2 8743   5.448   0.133   6.878  0.0754 -0.8298 -0.9816
   85CHL1   H2A 8744   5.344   0.131   6.840  0.4020  0.6628 -2.0832
   85CHL1   H2B 8745   5.494   0.039   6.843  2.2619  0.2511 -1.1795
   85CHL1   C20 8746   5.610   0.028   7.787 -0.1622 -0.6273 -0.9485
   85CHL1   H20 8747   5.681  -0.054   7.761 -2.5130 -2.5153 -1.7148
   85CHL1   C21 8748   5.470  -0.028   7.783  1.1976 -0.6899 -0.1288
   85CHL1  H21A 8749   5.396   0.043   7.826  0.9013 -1.3854  0.5243
   85CHL1  H21B 8750   5.459  -0.119   7.846 -1.4641 -0.9918 -0.9257
   85CHL1  H21C 8751   5.420  -0.051   7.687 -3.1493  1.1263  1.4655
   85CHL1   C22 8752   5.653   0.072   7.933 -0.8877  0.2926  0.3968
   85CHL1  H22A 8753   5.639  -0.015   8.000 -1.7421 -0.9122 -1.2830
   85CHL1  H22B 8754   5.761   0.099   7.940 -0.0187 -2.7375  0.0690
   85CHL1   C23 8755   5.578   0.191   7.987  1.1126 -0.0361 -0.3175
   85CHL1  H23A 8756   5.595   0.280   7.924  0.9130 -0.0086 -0.3334
   85CHL1  H23B 8757   5.467   0.184   7.986  0.9360  1.6407  1.5558
   85CHL1   C24 8758   5.617   0.208   8.133 -0.3057 -0.4250  0.1733
   85CHL1  H24A 8759   5.607   0.109   8.181  1.0387  0.2566  1.9601
   85CHL1  H24B 8760   5.723   0.242   8.130  0.1152 -1.7737 -0.8911
   85CHL1   C25 8761   5.520   0.309   8.207  0.1441  0.2179 -0.7537
   85CHL1   H25 8762   5.421   0.258   8.210 -0.0565  0.5420 -1.5504
   85CHL1   C26 8763   5.554   0.319   8.361 -0.0401 -0.0607  0.3334
   85CHL1  H26A 8764   5.560   0.218   8.408 -2.0519 -0.5766 -0.3829
   85CHL1  H26B 8765   5.660   0.349   8.371 -0.1953  0.9614 -0.8521
   85CHL1  H26C 8766   5.486   0.393   8.408  0.4131  0.8638 -0.4309
   85CHL1   C27 8767   5.514   0.445   8.144  0.9309  0.0606 -0.6883
   85CHL1  H27A 8768   5.439   0.505   8.201  0.7498 -0.2239 -0.6241
   85CHL1  H27B 8769   5.610   0.498   8.157  0.9197 -0.3590  1.4413
   85CHL1  H27C 8770   5.480   0.442   8.038 -2.0811 -3.4536  0.1485
   86CHL1    C3 8771   1.182   5.529   6.740  0.6249 -0.2227  0.1573
   86CHL1    H3 8772   1.175   5.420   6.757  0.4663 -0.2785 -0.2434
   86CHL1    O3 8773   1.177   5.542   6.603  0.7289 -0.5584  0.3709
   86CHL1   H3' 8774   1.157   5.632   6.579  0.0071 -0.3218  1.7547
   86CHL1    C4 8775   1.058   5.606   6.794 -0.9881  0.4592 -0.1652
   86CHL1   H4A 8776   1.056   5.714   6.768 -2.5848  0.4778 -0.0632
   86CHL1   H4B 8777   0.968   5.569   6.741  0.1453 -0.2746 -1.6705
   86CHL1    C5 8778   1.060   5.592   6.946 -0.1369 -0.5840 -0.1498
   86CHL1    C6 8779   0.965   5.522   7.000  1.1493 -0.2143 -0.0517
   86CHL1    H6 8780   0.890   5.482   6.930  0.3319 -0.2491  0.8091
   86CHL1    C7 8781   0.943   5.503   7.150  0.1559 -0.8347  0.2879
   86CHL1   H7A 8782   0.840   5.535   7.177  0.2049 -0.2996 -0.1519
   86CHL1   H7B 8783   0.952   5.396   7.181 -2.4224 -0.7086  1.7556
   86CHL1    C8 8784   1.042   5.591   7.233 -0.3865  0.1511 -0.2134
   86CHL1    H8 8785   1.009   5.697   7.240  1.8838  0.8060  2.0295
   86CHL1   C14 8786   1.049   5.530   7.374 -0.7192 -0.2265  0.4851
   86CHL1   H14 8787   1.085   5.425   7.362 -1.9351 -0.8995  2.3885
   86CHL1   C15 8788   0.923   5.521   7.464 -0.1483 -0.3736  0.2627
   86CHL1  H15A 8789   0.861   5.609   7.492 -0.6714 -1.1017  1.4682
   86CHL1  H15B 8790   0.847   5.448   7.429  0.4995 -0.6116 -0.6899
   86CHL1   C16 8791   0.978   5.488   7.605 -0.1838  0.5657  0.4368
   86CHL1  H16A 8792   0.932   5.557   7.679 -1.2165  0.2310  0.1199
   86CHL1  H16B 8793   0.950   5.385   7.637  2.5342 -0.4922 -0.2765
   86CHL1   C17 8794   1.135   5.510   7.595 -0.2722  0.1667 -0.0359
   86CHL1   H17 8795   1.181   5.412   7.572  3.2109  1.3651  1.0605
   86CHL1   C13 8796   1.153   5.594   7.462 -0.0021 -0.5982  1.5263
   86CHL1   C18 8797   1.111   5.742   7.491 -0.0283  0.0261 -0.8651
   86CHL1  H18A 8798   1.093   5.792   7.394 -1.8536  0.9819 -0.0982
   86CHL1  H18B 8799   1.013   5.755   7.543  0.8394  2.0238  0.3716
   86CHL1  H18C 8800   1.184   5.798   7.553 -2.8718  2.5096  0.4985
   86CHL1   C12 8801   1.298   5.585   7.394  0.3358 -0.3309  0.3563
   86CHL1  H12A 8802   1.372   5.621   7.468 -1.3373  1.1266  1.4030
   86CHL1  H12B 8803   1.321   5.477   7.384  0.8853 -0.2298  0.5408
   86CHL1   C11 8804   1.298   5.651   7.254  0.1205 -0.1815 -0.2736
   86CHL1  H11A 8805   1.288   5.759   7.278  0.5458 -0.2468  0.2174
   86CHL1  H11B 8806   1.400   5.651   7.209  1.0702  1.4674  1.6863
   86CHL1    C9 8807   1.182   5.588   7.167  0.1532 -0.2973 -0.3301
   86CHL1    H9 8808   1.209   5.481   7.160  1.8997  0.0646  0.3245
   86CHL1   C10 8809   1.181   5.643   7.016  1.4912  0.1562  0.1237
   86CHL1   C19 8810   1.179   5.793   7.019 -0.0285 -0.2955  0.7338
   86CHL1  H19A 8811   1.159   5.843   6.922 -1.2664 -0.9781  0.6209
   86CHL1  H19B 8812   1.106   5.830   7.094 -0.4643  1.2051 -0.3640
   86CHL1  H19C 8813   1.275   5.829   7.062 -0.7355  0.9294  1.3510
   86CHL1    C1 8814   1.313   5.600   6.949 -0.3558 -0.0495  0.8484
   86CHL1   H1A 8815   1.396   5.669   6.974  0.0902  0.2735 -1.2815
   86CHL1   H1B 8816   1.340   5.500   6.990  0.3187  0.5231  1.8511
   86CHL1    C2 8817   1.312   5.587   6.795  0.4768  0.2085  0.5622
   86CHL1   H2A 8818   1.392   5.514   6.770 -0.1988 -1.3997  2.6764
   86CHL1   H2B 8819   1.322   5.691   6.759  0.1505 -1.0009 -3.4621
   86CHL1   C20 8820   1.208   5.564   7.722  0.0384 -0.7864 -0.1512
   86CHL1   H20 8821   1.272   5.647   7.683 -1.8682  1.4235  1.1230
   86CHL1   C21 8822   1.299   5.451   7.777  0.1453 -0.0768  0.3407
   86CHL1  H21A 8823   1.368   5.415   7.698  2.8981  1.1775  2.0068
   86CHL1  H21B 8824   1.238   5.371   7.825 -2.3664  2.0338  0.8705
   86CHL1  H21C 8825   1.370   5.491   7.853  1.4891 -1.2384 -0.2444
   86CHL1   C22 8826   1.114   5.624   7.835  0.6895 -0.1244 -0.1821
   86CHL1  H22A 8827   1.060   5.717   7.807  0.0295 -1.0436 -2.1989
   86CHL1  H22B 8828   1.025   5.559   7.848  0.1790  0.4278 -0.8046
   86CHL1   C23 8829   1.177   5.656   7.969 -0.3173  0.2027  0.0017
   86CHL1  H23A 8830   1.241   5.573   8.007 -0.1526 -0.4563 -1.6332
   86CHL1  H23B 8831   1.233   5.752   7.969  0.0382  0.0547  2.3697
   86CHL1   C24 8832   1.075   5.687   8.077 -0.9558 -0.1150  0.0799
   86CHL1  H24A 8833   1.037   5.790   8.061  0.9009  0.5969 -0.0529
   86CHL1  H24B 8834   0.987   5.621   8.061 -0.4604 -1.7459  3.2400
   86CHL1   C25 8835   1.136   5.685   8.216 -0.2958  0.4350 -1.1577
   86CHL1   H25 8836   1.169   5.581   8.235 -0.1175  0.4733 -1.2584
   86CHL1   C26 8837   1.255   5.773   8.228  0.2229  0.5741  0.1398
   86CHL1  H26A 8838   1.329   5.737   8.153  0.2256  0.6109  0.1252
   86CHL1  H26B 8839   1.227   5.875   8.192  0.2086  0.0699 -1.3706
   86CHL1  H26C 8840   1.307   5.784   8.325 -2.7096 -1.9995  2.1862
   86CHL1   C27 8841   1.034   5.724   8.330 -0.2410  0.0307 -0.1125
   86CHL1  H27A 8842   1.002   5.830   8.325  1.8403  0.6464 -1.5845
   86CHL1  H27B 8843   0.945   5.659   8.317 -0.6081  0.8205 -1.8585
   86CHL1  H27C 8844   1.073   5.710   8.433 -1.4606  1.3142  0.5455
   87CHL1    C3 8845   1.498   3.093   6.946 -0.2497  0.0119  0.2803
   87CHL1    H3 8846   1.556   3.037   7.022  0.3875  1.6899  1.0900
   87CHL1    O3 8847   1.513   3.044   6.811  0.0441 -0.2446 -0.3477
   87CHL1   H3' 8848   1.447   3.098   6.766  0.0103 -0.5986 -0.7235
   87CHL1    C4 8849   1.351   3.084   6.982 -1.0821 -0.3633 -0.6704
   87CHL1   H4A 8850   1.285   3.132   6.907 -3.8051 -1.8781  0.5870
   87CHL1   H4B 8851   1.320   2.978   6.977 -0.8571 -0.7151  2.8243
   87CHL1    C5 8852   1.317   3.134   7.123 -0.3364 -0.1971  0.2580
   87CHL1    C6 8853   1.263   3.048   7.214  0.0761 -0.5533  1.0253
   87CHL1    H6 8854   1.211   2.957   7.179  0.1646  0.1791 -1.1427
   87CHL1    C7 8855   1.244   3.095   7.352  0.9955 -0.2121 -0.5314
   87CHL1   H7A 8856   1.144   3.068   7.394  1.5514 -1.2839  0.1265
   87CHL1   H7B 8857   1.319   3.042   7.414  0.3281 -0.8203 -0.2345
   87CHL1    C8 8858   1.257   3.245   7.375  0.2343  0.3960 -0.3272
   87CHL1    H8 8859   1.167   3.298   7.336  0.4861  0.1838 -1.2034
   87CHL1   C14 8860   1.274   3.271   7.523  0.0826  0.2978  0.3536
   87CHL1   H14 8861   1.373   3.234   7.555  1.0690  2.0190 -0.5117
   87CHL1   C15 8862   1.172   3.210   7.620 -0.4879  0.6572 -0.3967
   87CHL1  H15A 8863   1.066   3.216   7.589 -0.2110 -0.5150 -1.6434
   87CHL1  H15B 8864   1.197   3.104   7.641  0.8045  1.0995  0.4146
   87CHL1   C16 8865   1.180   3.300   7.745  0.4048 -0.6445 -0.5917
   87CHL1  H16A 8866   1.074   3.316   7.776 -0.1275 -3.3117 -0.7912
   87CHL1  H16B 8867   1.212   3.245   7.835 -2.1877  1.5305  1.8381
   87CHL1   C17 8868   1.272   3.417   7.709  0.4252 -0.2729  0.2487
   87CHL1   H17 8869   1.379   3.397   7.729  0.3960  1.2752  2.2848
   87CHL1   C13 8870   1.272   3.424   7.554  0.0170  0.4003 -0.2406
   87CHL1   C18 8871   1.144   3.491   7.490  0.1116  0.1755 -0.4334
   87CHL1  H18A 8872   1.149   3.506   7.380 -0.3829 -2.6904 -0.9236
   87CHL1  H18B 8873   1.058   3.430   7.527 -0.1902  0.4695 -0.6481
   87CHL1  H18C 8874   1.136   3.589   7.542  0.7290  0.2798 -0.5206
   87CHL1   C12 8875   1.397   3.485   7.489  0.0462  0.2702  0.2647
   87CHL1  H12A 8876   1.395   3.595   7.499 -0.2395  0.2292  0.6771
   87CHL1  H12B 8877   1.493   3.459   7.539 -0.5483  0.1742  1.3932
   87CHL1   C11 8878   1.405   3.451   7.339  0.0272  0.4920  0.3123
   87CHL1  H11A 8879   1.334   3.519   7.288  0.4090  1.2546  0.7886
   87CHL1  H11B 8880   1.503   3.489   7.304  0.4821 -1.3653 -0.5685
   87CHL1    C9 8881   1.374   3.298   7.303 -0.5222 -1.5085  0.2155
   87CHL1    H9 8882   1.471   3.252   7.336  1.0186  1.9114  0.8631
   87CHL1   C10 8883   1.367   3.275   7.150  0.8944  0.2150  0.2141
   87CHL1   C19 8884   1.266   3.370   7.081  0.6273  0.1973 -0.2603
   87CHL1  H19A 8885   1.312   3.471   7.069  0.6986  0.2885  0.7149
   87CHL1  H19B 8886   1.245   3.340   6.976  0.4598 -0.4977 -0.0354
   87CHL1  H19C 8887   1.170   3.364   7.137  1.6250  2.2477  1.8498
   87CHL1    C1 8888   1.506   3.309   7.086 -1.1334  0.1588 -0.0107
   87CHL1   H1A 8889   1.525   3.419   7.087 -0.0112  0.0116  2.1885
   87CHL1   H1B 8890   1.583   3.277   7.160  0.6937  2.3798 -0.8000
   87CHL1    C2 8891   1.544   3.242   6.953  0.6545 -0.1121 -0.3527
   87CHL1   H2A 8892   1.653   3.254   6.936  0.8679 -0.7329  0.5260
   87CHL1   H2B 8893   1.484   3.293   6.875 -0.8899  2.4693  2.3151
   87CHL1   C20 8894   1.244   3.542   7.801  0.1522  0.5323  0.5597
   87CHL1   H20 8895   1.149   3.593   7.773 -1.5259 -1.9718  1.3012
   87CHL1   C21 8896   1.365   3.637   7.784  0.3578 -0.2410  0.4612
   87CHL1  H21A 8897   1.359   3.722   7.855  1.0259  0.8731 -0.7868
   87CHL1  H21B 8898   1.361   3.705   7.697 -1.9332  2.0397  2.2081
   87CHL1  H21C 8899   1.458   3.578   7.795 -0.8036 -2.3083 -0.2233
   87CHL1   C22 8900   1.237   3.502   7.947 -0.3064 -0.3671 -0.3746
   87CHL1  H22A 8901   1.150   3.434   7.959 -0.9797  0.8346  2.5981
   87CHL1  H22B 8902   1.327   3.440   7.969 -1.1802 -2.0784 -1.3847
   87CHL1   C23 8903   1.217   3.613   8.051  0.5142  0.0840 -0.0957
   87CHL1  H23A 8904   1.307   3.665   8.091  1.0046 -0.1246 -0.8897
   87CHL1  H23B 8905   1.154   3.690   8.002  0.7653 -0.0220 -0.5957
   87CHL1   C24 8906   1.142   3.550   8.178  0.5557  0.1603  0.5217
   87CHL1  H24A 8907   1.056   3.487   8.147  2.4276 -0.9518 -2.8601
   87CHL1  H24B 8908   1.213   3.501   8.248  0.5481 -0.2767  0.2242
   87CHL1   C25 8909   1.084   3.666   8.262 -0.4360 -0.0149  0.7957
   87CHL1   H25 8910   1.043   3.737   8.188 -2.2871  1.3087  2.9604
   87CHL1   C26 8911   0.971   3.615   8.358 -0.0037  0.2969  0.1549
   87CHL1  H26A 8912   0.893   3.558   8.302  0.3801  1.0370 -1.1948
   87CHL1  H26B 8913   1.005   3.545   8.437  0.4122  0.1666 -0.1344
   87CHL1  H26C 8914   0.924   3.703   8.406  0.4520  0.9005 -0.4912
   87CHL1   C27 8915   1.195   3.735   8.345 -0.2685  0.3531  0.7772
   87CHL1  H27A 8916   1.289   3.770   8.297  0.6756 -0.4788  1.9586
   87CHL1  H27B 8917   1.145   3.823   8.391  0.9905  2.1447 -1.0813
   87CHL1  H27C 8918   1.237   3.678   8.431  0.7505 -0.5161 -0.2748
   88CHL1    C3 8919   5.300   1.325   6.886 -0.2311 -0.6104 -0.1073
   88CHL1    H3 8920   5.307   1.434   6.908 -3.5905 -0.6012  1.5184
   88CHL1    O3 8921   5.271   1.292   6.748 -0.1132  0.7730  0.2783
   88CHL1   H3' 8922   5.353   1.273   6.702  0.7191  1.9337  1.2203
   88CHL1    C4 8923   5.430   1.260   6.925  0.2889 -0.1607 -0.9819
   88CHL1   H4A 8924   5.420   1.151   6.905  2.4880 -0.5054 -0.4298
   88CHL1   H4B 8925   5.513   1.285   6.856  0.0207  0.1139 -1.2089
   88CHL1    C5 8926   5.462   1.273   7.068 -0.0317 -0.6133  0.1245
   88CHL1    C6 8927   5.580   1.328   7.103  0.4488 -0.4358 -0.1761
   88CHL1    H6 8928   5.653   1.375   7.035  0.0634  3.0124  1.5397
   88CHL1    C7 8929   5.624   1.338   7.249  0.9147 -1.2269  0.6581
   88CHL1   H7A 8930   5.732   1.311   7.258  1.8126  1.7430  0.0214
   88CHL1   H7B 8931   5.619   1.444   7.283 -1.3843 -1.1108  0.0720
   88CHL1    C8 8932   5.540   1.248   7.342  0.1403 -0.4709  0.0046
   88CHL1    H8 8933   5.583   1.147   7.326 -0.3659 -0.3998 -2.0341
   88CHL1   C14 8934   5.566   1.283   7.488 -0.3534  0.1409  0.2019
   88CHL1   H14 8935   5.526   1.386   7.490 -0.4019  0.1409 -0.5355
   88CHL1   C15 8936   5.713   1.304   7.544  0.0959  0.5250  0.0057
   88CHL1  H15A 8937   5.783   1.225   7.510 -0.3270  0.2668 -0.2628
   88CHL1  H15B 8938   5.763   1.397   7.509  0.2646  0.5486  0.3015
   88CHL1   C16 8939   5.695   1.294   7.695 -0.0229  0.2853 -0.1340
   88CHL1  H16A 8940   5.762   1.211   7.728  0.8455  0.6036 -1.0424
   88CHL1  H16B 8941   5.732   1.390   7.736 -0.5076  0.1040  0.7385
   88CHL1   C17 8942   5.550   1.257   7.724  1.2789  0.4709  0.3647
   88CHL1   H17 8943   5.484   1.344   7.749  0.9791  0.8942 -1.7558
   88CHL1   C13 8944   5.489   1.201   7.591 -0.4055  1.0680 -0.7807
   88CHL1   C18 8945   5.526   1.052   7.586  0.4870 -0.4277 -0.4483
   88CHL1  H18A 8946   5.499   1.004   7.489 -0.8955  0.1877 -0.3948
   88CHL1  H18B 8947   5.633   1.041   7.610  0.0458 -2.6408  0.7683
   88CHL1  H18C 8948   5.471   0.987   7.658 -0.3735  0.3400 -0.3890
   88CHL1   C12 8949   5.344   1.226   7.568 -0.9778 -0.7194  0.6252
   88CHL1  H12A 8950   5.282   1.174   7.645 -1.3459  1.7452  2.1226
   88CHL1  H12B 8951   5.319   1.334   7.577  1.4601 -0.0877  0.6072
   88CHL1   C11 8952   5.303   1.193   7.423  0.2074  0.4087 -0.5020
   88CHL1  H11A 8953   5.319   1.084   7.417  1.4544  0.6567 -2.5938
   88CHL1  H11B 8954   5.193   1.207   7.412  0.2714  1.2058 -0.1989
   88CHL1    C9 8955   5.391   1.261   7.315  0.8559  0.0953 -0.4283
   88CHL1    H9 8956   5.371   1.370   7.324 -0.4084 -0.2962  2.4011
   88CHL1   C10 8957   5.357   1.221   7.167 -0.0471 -0.2587 -0.1898
   88CHL1   C19 8958   5.360   1.068   7.163 -0.0787 -0.0900  0.4837
   88CHL1  H19A 8959   5.335   1.029   7.062  0.1924 -0.6489  0.6268
   88CHL1  H19B 8960   5.457   1.025   7.198  0.7397  0.4268 -1.0695
   88CHL1  H19C 8961   5.273   1.030   7.220 -0.3820 -1.1715 -0.6480
   88CHL1    C1 8962   5.219   1.284   7.125 -0.1495  0.4446 -0.2957
   88CHL1   H1A 8963   5.128   1.248   7.178 -0.2767 -0.8536 -1.3379
   88CHL1   H1B 8964   5.231   1.391   7.153  2.0577 -0.0701  0.9156
   88CHL1    C2 8965   5.187   1.275   6.978 -0.6851  0.2589  0.0741
   88CHL1   H2A 8966   5.099   1.333   6.944  0.2111  0.7153 -1.5929
   88CHL1   H2B 8967   5.168   1.169   6.950 -1.7987 -0.3000  2.7064
   88CHL1   C20 8968   5.539   1.159   7.851 -0.4239 -0.1834  0.6967
   88CHL1   H20 8969   5.574   1.055   7.834  1.2133  0.2765  1.1209
   88CHL1   C21 8970   5.392   1.139   7.890  0.1756 -0.2603  0.0455
   88CHL1  H21A 8971   5.330   1.086   7.814 -0.5353  0.4974  0.0776
   88CHL1  H21B 8972   5.353   1.240   7.919 -0.4799 -1.1693  2.6326
   88CHL1  H21C 8973   5.376   1.076   7.980  0.2905  0.6810  0.7470
   88CHL1   C22 8974   5.622   1.214   7.975  0.6454  0.7342 -0.3906
   88CHL1  H22A 8975   5.731   1.202   7.953  0.1693  0.9106 -3.0954
   88CHL1  H22B 8976   5.597   1.320   7.994 -1.8980  0.4566 -1.8121
   88CHL1   C23 8977   5.595   1.158   8.113 -0.2643  0.5190  0.5166
   88CHL1  H23A 8978   5.490   1.177   8.144  0.8807  2.2568  3.7954
   88CHL1  H23B 8979   5.600   1.047   8.114 -0.4258  0.4973 -0.2431
   88CHL1   C24 8980   5.682   1.232   8.216  0.3943  0.3830 -0.2086
   88CHL1  H24A 8981   5.790   1.225   8.187  0.4949  0.7721  0.0685
   88CHL1  H24B 8982   5.652   1.338   8.211  0.0331  0.3001  0.2090
   88CHL1   C25 8983   5.682   1.171   8.360  0.5888 -0.0609  0.5084
   88CHL1   H25 8984   5.706   1.062   8.355 -1.2579 -0.4640 -0.5341
   88CHL1   C26 8985   5.801   1.224   8.431 -0.0378  0.6190 -0.1986
   88CHL1  H26A 8986   5.811   1.184   8.534 -0.1580 -2.0063 -1.1140
   88CHL1  H26B 8987   5.895   1.197   8.376  0.3679 -0.3757  0.9405
   88CHL1  H26C 8988   5.794   1.334   8.440 -0.2849  0.4888  1.5086
   88CHL1   C27 8989   5.556   1.182   8.438 -0.3911  0.3158 -0.4844
   88CHL1  H27A 8990   5.497   1.275   8.419 -0.3653  0.4570  0.0875
   88CHL1  H27B 8991   5.490   1.095   8.416  1.2416 -0.3919 -2.8528
   88CHL1  H27C 8992   5.582   1.185   8.546  1.0796  2.3023 -0.8411
   89CHL1    C3 8993   0.282   2.202   6.818  0.0004 -0.6780  0.2782
   89CHL1    H3 8994   0.171   2.196   6.817 -0.0755  0.1009 -2.3750
   89CHL1    O3 8995   0.321   2.172   6.683  0.1417 -0.1781  0.3529
   89CHL1   H3' 8996   0.283   2.090   6.650  2.7568 -1.3720 -0.0004
   89CHL1    C4 8997   0.328   2.348   6.847  0.2942  0.2021 -0.5118
   89CHL1   H4A 8998   0.438   2.349   6.833  0.1078  1.4013 -2.1802
   89CHL1   H4B 8999   0.282   2.427   6.783 -0.4029 -0.8971 -1.4204
   89CHL1    C5 9000   0.302   2.374   6.998  0.4964 -0.4883  0.0538
   89CHL1    C6 9001   0.223   2.472   7.041 -0.6037  0.5231  0.1519
   89CHL1    H6 9002   0.192   2.543   6.963  0.1824  1.8223  0.9818
   89CHL1    C7 9003   0.196   2.504   7.181 -0.8014 -0.7950  0.6052
   89CHL1   H7A 9004   0.207   2.613   7.199  1.1928 -1.1327  1.6235
   89CHL1   H7B 9005   0.093   2.481   7.218 -1.0151  1.6886  1.7802
   89CHL1    C8 9006   0.289   2.440   7.280 -0.5870 -0.0521  0.1181
   89CHL1    H8 9007   0.393   2.479   7.269 -0.2711 -1.1359 -0.9132
   89CHL1   C14 9008   0.228   2.452   7.418  0.2589  0.0793 -0.4212
   89CHL1   H14 9009   0.129   2.402   7.416 -0.4083  1.2313  1.5004
   89CHL1   C15 9010   0.187   2.588   7.464 -0.0616 -0.7768 -0.2883
   89CHL1  H15A 9011   0.251   2.673   7.431 -1.3969 -0.2500 -1.5803
   89CHL1  H15B 9012   0.083   2.619   7.440  0.0333  0.5324  0.8424
   89CHL1   C16 9013   0.199   2.589   7.622 -0.2661  0.3492  0.5855
   89CHL1  H16A 9014   0.289   2.640   7.660  2.8183 -4.4804  0.6712
   89CHL1  H16B 9015   0.108   2.625   7.675 -1.1289 -1.1838  0.2286
   89CHL1   C17 9016   0.237   2.432   7.658 -0.1717  0.5756 -0.2520
   89CHL1   H17 9017   0.141   2.377   7.669  0.1979  0.1755  1.3279
   89CHL1   C13 9018   0.313   2.378   7.529  0.5317  0.1687 -0.6003
   89CHL1   C18 9019   0.461   2.438   7.528 -0.0540 -0.6294  0.1954
   89CHL1  H18A 9020   0.528   2.384   7.600 -0.4754  3.2977  3.9615
   89CHL1  H18B 9021   0.498   2.426   7.424 -2.3210  1.7129 -0.9743
   89CHL1  H18C 9022   0.455   2.540   7.571  1.7930 -0.1799 -0.5107
   89CHL1   C12 9023   0.303   2.227   7.500 -0.2002  0.1855  0.0930
   89CHL1  H12A 9024   0.372   2.158   7.553 -0.1823 -1.0728 -1.5208
   89CHL1  H12B 9025   0.200   2.187   7.507 -0.5553  0.7165 -1.6710
   89CHL1   C11 9026   0.349   2.193   7.351  0.5973 -0.6502 -0.1488
   89CHL1  H11A 9027   0.459   2.206   7.341  0.4901  1.1595  0.6909
   89CHL1  H11B 9028   0.315   2.089   7.330 -3.0517  0.5480 -0.8198
   89CHL1    C9 9029   0.300   2.292   7.237  0.4921 -0.5692  0.2775
   89CHL1    H9 9030   0.193   2.265   7.224  0.4100 -0.3528  0.4832
   89CHL1   C10 9031   0.363   2.276   7.104  0.1296 -0.5077  0.8349
   89CHL1   C19 9032   0.518   2.292   7.110  0.5142 -0.6181 -0.4973
   89CHL1  H19A 9033   0.541   2.377   7.177 -0.8202 -0.7903  0.2050
   89CHL1  H19B 9034   0.567   2.207   7.162  1.7798  0.4008  0.0416
   89CHL1  H19C 9035   0.572   2.306   7.014 -1.3323  3.0250 -1.1758
   89CHL1    C1 9036   0.314   2.136   7.057 -0.1838  0.6460  0.3724
   89CHL1   H1A 9037   0.370   2.064   7.120  1.4062  1.0654 -0.5197
   89CHL1   H1B 9038   0.207   2.111   7.073 -0.3746  0.0892 -1.5294
   89CHL1    C2 9039   0.343   2.102   6.912  0.0846  0.4800 -0.7379
   89CHL1   H2A 9040   0.308   1.997   6.900 -0.1451  0.4015  0.5047
   89CHL1   H2B 9041   0.453   2.111   6.901  0.4767  1.4704  2.7259
   89CHL1   C20 9042   0.302   2.428   7.794 -0.2732 -0.2367 -0.2630
   89CHL1   H20 9043   0.398   2.484   7.788 -1.5201  2.0662 -0.0092
   89CHL1   C21 9044   0.329   2.283   7.823  0.4110  1.0843 -0.1350
   89CHL1  H21A 9045   0.368   2.274   7.927 -1.2577 -1.2284  0.3662
   89CHL1  H21B 9046   0.411   2.235   7.765 -0.9047 -3.5644  1.3853
   89CHL1  H21C 9047   0.249   2.207   7.838  1.4406 -0.2441 -1.0958
   89CHL1   C22 9048   0.222   2.485   7.914  0.3999 -0.1382 -0.1153
   89CHL1  H22A 9049   0.157   2.569   7.880 -0.5556 -0.6188  0.4612
   89CHL1  H22B 9050   0.159   2.406   7.960  2.0699 -0.3762  1.8799
   89CHL1   C23 9051   0.316   2.542   8.015  0.6468  0.4059  0.6591
   89CHL1  H23A 9052   0.373   2.454   8.052  3.0115  1.0876 -1.0744
   89CHL1  H23B 9053   0.382   2.613   7.960  1.5211  0.1767  1.3933
   89CHL1   C24 9054   0.234   2.614   8.118 -0.0902  0.4561 -1.0965
   89CHL1  H24A 9055   0.202   2.711   8.075  0.5495  1.1542 -0.0527
   89CHL1  H24B 9056   0.150   2.551   8.156 -0.2647  1.6511  0.6460
   89CHL1   C25 9057   0.315   2.641   8.252  0.0574  0.3685  0.0815
   89CHL1   H25 9058   0.414   2.653   8.204  0.0093 -0.7572 -0.3459
   89CHL1   C26 9059   0.276   2.771   8.323 -0.4552 -0.0295 -0.1761
   89CHL1  H26A 9060   0.341   2.792   8.410  0.6182  1.7707 -1.3580
   89CHL1  H26B 9061   0.278   2.859   8.255 -1.1764 -0.8091 -1.2414
   89CHL1  H26C 9062   0.169   2.767   8.355 -0.4698  0.3941 -0.1693
   89CHL1   C27 9063   0.316   2.516   8.344 -0.1321  0.1031  0.0354
   89CHL1  H27A 9064   0.359   2.426   8.294 -2.6583 -0.8207 -0.6714
   89CHL1  H27B 9065   0.388   2.521   8.428 -0.5779  0.5680  0.3952
   89CHL1  H27C 9066   0.215   2.479   8.374 -1.4514  1.0352 -2.8638
   90CHL1    C3 9067   2.701   4.759   6.994 -0.2473 -0.6336  0.0166
   90CHL1    H3 9068   2.809   4.737   7.009 -0.1429  0.5073  1.0156
   90CHL1    O3 9069   2.670   4.785   6.860 -0.0356 -0.2151  0.0668
   90CHL1   H3' 9070   2.649   4.878   6.864 -0.7106 -0.3118 -1.0889
   90CHL1    C4 9071   2.615   4.648   7.053  0.4040  1.1651  0.2369
   90CHL1   H4A 9072   2.506   4.664   7.035  0.4375  0.0764 -1.0580
   90CHL1   H4B 9073   2.632   4.557   6.992 -2.5197 -0.8661  2.1547
   90CHL1    C5 9074   2.653   4.622   7.197  0.1576  0.3893 -0.1050
   90CHL1    C6 9075   2.718   4.506   7.228  0.1000  0.4019  0.5253
   90CHL1    H6 9076   2.751   4.434   7.151  1.3076  1.6720 -0.1964
   90CHL1    C7 9077   2.777   4.476   7.362  0.0868 -0.4425  0.2943
   90CHL1   H7A 9078   2.750   4.371   7.389 -0.0345 -0.7750 -1.0788
   90CHL1   H7B 9079   2.888   4.484   7.361  0.0775  0.0011 -2.3655
   90CHL1    C8 9080   2.709   4.572   7.462 -1.0073  0.6885 -0.0918
   90CHL1    H8 9081   2.600   4.549   7.461 -1.4175  2.4794  0.3632
   90CHL1   C14 9082   2.772   4.551   7.601 -0.4148  0.3364 -0.2622
   90CHL1   H14 9083   2.878   4.581   7.587  0.8691 -3.0499  1.0551
   90CHL1   C15 9084   2.771   4.413   7.660  0.7059 -0.1793 -0.0272
   90CHL1  H15A 9085   2.681   4.357   7.629  1.5263 -3.2351  2.4855
   90CHL1  H15B 9086   2.853   4.343   7.632 -0.4058 -0.5794 -2.5000
   90CHL1   C16 9087   2.783   4.434   7.810  0.1649 -0.4517 -0.9793
   90CHL1  H16A 9088   2.681   4.408   7.848  1.2350 -1.1869  1.6229
   90CHL1  H16B 9089   2.870   4.397   7.867 -0.3267  0.7995  0.6719
   90CHL1   C17 9090   2.788   4.585   7.841  0.0653 -0.5828  0.3375
   90CHL1   H17 9091   2.893   4.613   7.818 -0.5599  0.1465 -1.8209
   90CHL1   C13 9092   2.709   4.642   7.713 -0.8004  0.1533  0.2865
   90CHL1   C18 9093   2.554   4.626   7.719  0.1798  0.5873  0.1077
   90CHL1  H18A 9094   2.512   4.652   7.619  0.3826  1.5712  0.2727
   90CHL1  H18B 9095   2.525   4.520   7.738 -2.0401  0.6880 -2.0504
   90CHL1  H18C 9096   2.505   4.685   7.799  1.2272  0.4508  0.8618
   90CHL1   C12 9097   2.747   4.790   7.673 -0.0361  0.2391 -0.1239
   90CHL1  H12A 9098   2.707   4.866   7.744 -2.6866  0.2959 -1.5334
   90CHL1  H12B 9099   2.856   4.806   7.679 -0.3998  3.4313 -0.4144
   90CHL1   C11 9100   2.693   4.821   7.537  1.0018 -0.3381 -0.0084
   90CHL1  H11A 9101   2.582   4.825   7.540  0.9820 -0.8416 -0.0829
   90CHL1  H11B 9102   2.727   4.925   7.515  1.6538 -0.5230  0.1078
   90CHL1    C9 9103   2.722   4.715   7.419 -0.5197 -0.7076  0.1672
   90CHL1    H9 9104   2.829   4.730   7.391 -0.3164 -2.3824 -0.0145
   90CHL1   C10 9105   2.636   4.738   7.290 -0.7391 -0.2893 -0.2892
   90CHL1   C19 9106   2.490   4.761   7.318  1.0126 -0.6730 -0.6779
   90CHL1  H19A 9107   2.463   4.857   7.368  1.9550 -0.9308  0.3660
   90CHL1  H19B 9108   2.429   4.759   7.225 -1.7548 -1.7751  1.0361
   90CHL1  H19C 9109   2.447   4.685   7.387  2.4469  0.4188  1.5620
   90CHL1    C1 9110   2.703   4.863   7.222 -0.4763  0.2706  0.2415
   90CHL1   H1A 9111   2.669   4.957   7.270 -0.6148 -0.1093  0.9113
   90CHL1   H1B 9112   2.814   4.862   7.234 -0.5561  0.3419  1.0460
   90CHL1    C2 9113   2.673   4.888   7.071 -0.1638  0.7710  0.2944
   90CHL1   H2A 9114   2.730   4.977   7.037  2.2676 -0.9055 -0.2730
   90CHL1   H2B 9115   2.564   4.908   7.067 -0.6152 -1.4324  0.4366
   90CHL1   C20 9116   2.736   4.624   7.987  0.3963  0.1990  0.5252
   90CHL1   H20 9117   2.625   4.627   7.984  0.3180 -1.2252 -2.9219
   90CHL1   C21 9118   2.786   4.755   8.018 -0.8883  0.5280  0.1675
   90CHL1  H21A 9119   2.896   4.757   8.000 -1.3095 -0.3991 -3.1484
   90CHL1  H21B 9120   2.765   4.799   8.118  0.1924  1.3710  0.0501
   90CHL1  H21C 9121   2.736   4.819   7.941 -2.0548 -1.0399 -0.4296
   90CHL1   C22 9122   2.770   4.520   8.093  0.6312 -0.1647  0.3811
   90CHL1  H22A 9123   2.702   4.435   8.068  0.3383  0.4462 -0.9696
   90CHL1  H22B 9124   2.874   4.482   8.088  0.5862 -0.4913  1.5393
   90CHL1   C23 9125   2.734   4.547   8.239  0.3204 -0.1567 -0.2831
   90CHL1  H23A 9126   2.801   4.619   8.291  0.6903 -0.8669  0.2439
   90CHL1  H23B 9127   2.634   4.595   8.239  0.6058  0.4922  0.9639
   90CHL1   C24 9128   2.731   4.417   8.322 -0.8974 -0.2029 -0.3391
   90CHL1  H24A 9129   2.646   4.355   8.287 -0.4302 -2.2065  1.8161
   90CHL1  H24B 9130   2.828   4.366   8.306 -0.4535  0.9626 -1.5982
   90CHL1   C25 9131   2.709   4.436   8.476 -1.0210  0.3318  0.1737
   90CHL1   H25 9132   2.792   4.498   8.516 -0.9093 -1.4726  2.9537
   90CHL1   C26 9133   2.572   4.494   8.512  0.0387  0.3508  0.0281
   90CHL1  H26A 9134   2.551   4.505   8.621  0.4501 -0.9445  0.2518
   90CHL1  H26B 9135   2.578   4.594   8.465  3.5256 -0.7605 -2.2322
   90CHL1  H26C 9136   2.489   4.430   8.476 -1.7116  1.1154  2.4094
   90CHL1   C27 9137   2.725   4.301   8.550 -0.2371 -0.0462  0.6001
   90CHL1  H27A 9138   2.646   4.229   8.519 -0.7153  0.3420  0.9099
   90CHL1  H27B 9139   2.822   4.254   8.521  0.5358  1.3999  0.7650
   90CHL1  H27C 9140   2.713   4.315   8.659 -1.1429  2.2141  0.2604
   91CHL1    C3 9141   4.599   0.092   7.214  0.6266  0.7152 -0.5111
   91CHL1    H3 9142   4.666   0.166   7.264  0.9107  1.2555 -1.6424
   91CHL1    O3 9143   4.579   0.120   7.081  0.4608  0.4900 -0.1543
   91CHL1   H3' 9144   4.505   0.065   7.054  1.0119  0.5864 -1.9822
   91CHL1    C4 9145   4.650  -0.049   7.224 -0.2243 -0.1760 -0.6032
   91CHL1   H4A 9146   4.576  -0.121   7.184 -0.9464  0.8461 -1.1352
   91CHL1   H4B 9147   4.740  -0.061   7.160  1.3263  0.9366  1.2137
   91CHL1    C5 9148   4.673  -0.089   7.372 -0.3151  0.1741  0.4692
   91CHL1    C6 9149   4.797  -0.121   7.417 -0.2044  0.3012 -0.3492
   91CHL1    H6 9150   4.878  -0.130   7.344 -1.0794 -0.7224 -1.2323
   91CHL1    C7 9151   4.821  -0.157   7.559  0.1627  0.0813 -0.4058
   91CHL1   H7A 9152   4.878  -0.253   7.566 -0.5869 -0.5760 -2.6416
   91CHL1   H7B 9153   4.873  -0.078   7.617 -0.4065 -1.1658  1.9290
   91CHL1    C8 9154   4.690  -0.186   7.642  1.4721 -0.5305  0.1911
   91CHL1    H8 9155   4.652  -0.289   7.620  1.0181 -0.9357  2.5736
   91CHL1   C14 9156   4.720  -0.193   7.791  0.1977 -0.6147  0.6699
   91CHL1   H14 9157   4.760  -0.092   7.815  3.8621 -2.3022  2.4603
   91CHL1   C15 9158   4.833  -0.285   7.832 -0.1693 -0.4482  0.6826
   91CHL1  H15A 9159   4.818  -0.383   7.782 -0.0356 -1.0499  1.7812
   91CHL1  H15B 9160   4.929  -0.239   7.802 -1.3784  1.8240  0.0931
   91CHL1   C16 9161   4.817  -0.304   7.980  0.0204  0.1564 -0.5287
   91CHL1  H16A 9162   4.791  -0.408   8.012  2.3189 -0.1431  0.5878
   91CHL1  H16B 9163   4.907  -0.277   8.039 -0.2295 -1.2029  0.5389
   91CHL1   C17 9164   4.697  -0.212   8.023  0.0806  0.3031 -0.6935
   91CHL1   H17 9165   4.753  -0.119   8.042  0.7877 -0.4112  0.9002
   91CHL1   C13 9166   4.611  -0.202   7.894  0.2157 -0.2426  0.2882
   91CHL1   C18 9167   4.543  -0.330   7.870 -0.6961  0.2654  0.3831
   91CHL1  H18A 9168   4.604  -0.422   7.884 -0.8094  0.0035 -0.7618
   91CHL1  H18B 9169   4.456  -0.343   7.939  0.0468  0.3146  1.3436
   91CHL1  H18C 9170   4.498  -0.333   7.768 -0.2981 -0.3062  0.2178
   91CHL1   C12 9171   4.515  -0.081   7.874 -0.2135  0.2168  0.5192
   91CHL1  H12A 9172   4.421  -0.094   7.931 -0.4895  2.5505  0.6565
   91CHL1  H12B 9173   4.568   0.007   7.915  2.1733 -1.2685  0.8419
   91CHL1   C11 9174   4.475  -0.065   7.724 -0.1892 -0.4207  0.1123
   91CHL1  H11A 9175   4.392  -0.136   7.703 -1.1125  0.6806 -0.0990
   91CHL1  H11B 9176   4.436   0.038   7.705  2.2727  0.5980  0.1180
   91CHL1    C9 9177   4.590  -0.073   7.617 -0.0866 -0.1523  0.3046
   91CHL1    H9 9178   4.649   0.017   7.644 -0.2588 -0.5369  2.0908
   91CHL1   C10 9179   4.551  -0.072   7.467 -0.7948 -0.1341 -0.2087
   91CHL1   C19 9180   4.456  -0.182   7.432 -0.0839  0.3392  0.2019
   91CHL1  H19A 9181   4.367  -0.185   7.499  0.4882 -3.2012  1.0143
   91CHL1  H19B 9182   4.420  -0.184   7.327 -3.1397 -1.6723  1.1614
   91CHL1  H19C 9183   4.515  -0.273   7.456  0.6867  1.0856  1.1973
   91CHL1    C1 9184   4.475   0.059   7.441  0.4485 -0.0401  0.7519
   91CHL1   H1A 9185   4.376   0.053   7.493 -0.5685  0.5172 -1.0330
   91CHL1   H1B 9186   4.525   0.141   7.497 -1.6656  1.0097  1.2314
   91CHL1    C2 9187   4.460   0.096   7.287  0.0160 -0.3750  0.2529
   91CHL1   H2A 9188   4.418   0.198   7.278  0.3403 -0.0804  1.8469
   91CHL1   H2B 9189   4.393   0.019   7.244 -1.7932  0.6721  1.0892
   91CHL1   C20 9190   4.622  -0.261   8.145 -0.3109  0.5685 -0.2775
   91CHL1   H20 9191   4.587  -0.365   8.126  0.8831  0.1456 -0.2569
   91CHL1   C21 9192   4.499  -0.176   8.182  0.1783  0.5587  0.4460
   91CHL1  H21A 9193   4.520  -0.070   8.205  0.4932  0.4957  0.4589
   91CHL1  H21B 9194   4.451  -0.219   8.272 -1.4620 -1.5257 -1.3166
   91CHL1  H21C 9195   4.426  -0.173   8.099 -0.0985 -1.3732  0.5607
   91CHL1   C22 9196   4.712  -0.283   8.275  0.2406  0.2249  0.7528
   91CHL1  H22A 9197   4.649  -0.332   8.352 -0.8896 -1.3877 -1.1043
   91CHL1  H22B 9198   4.796  -0.353   8.257 -0.0683  0.0087  0.1054
   91CHL1   C23 9199   4.767  -0.150   8.321 -0.1702  0.3792 -1.1004
   91CHL1  H23A 9200   4.810  -0.101   8.231 -0.0487  0.5939 -0.9250
   91CHL1  H23B 9201   4.689  -0.078   8.353  0.6408  0.7897 -0.0178
   91CHL1   C24 9202   4.877  -0.147   8.439  0.1065 -0.3901  0.3944
   91CHL1  H24A 9203   4.808  -0.189   8.516 -0.3329 -1.5777 -0.6110
   91CHL1  H24B 9204   4.963  -0.213   8.415 -0.1623 -0.7405  0.3719
   91CHL1   C25 9205   4.929  -0.004   8.469  0.6570 -0.2217  0.3759
   91CHL1   H25 9206   5.004  -0.017   8.550  0.5681 -0.6532  0.3931
   91CHL1   C26 9207   5.003   0.060   8.355 -0.1188 -0.3914 -0.0295
   91CHL1  H26A 9208   5.063  -0.025   8.318  0.6197  0.3964 -0.6780
   91CHL1  H26B 9209   4.934   0.096   8.276 -0.1076  2.6178  1.1679
   91CHL1  H26C 9210   5.063   0.148   8.387 -0.3965 -0.9146  2.1013
   91CHL1   C27 9211   4.816   0.079   8.521  0.2110  0.3541 -0.3422
   91CHL1  H27A 9212   4.754   0.131   8.445  1.9430 -1.0354 -2.8693
   91CHL1  H27B 9213   4.748   0.014   8.579  0.1843  0.0698 -0.6866
   91CHL1  H27C 9214   4.856   0.156   8.590 -0.8558 -0.7627  1.6032
   92CHL1    C3 9215   0.593   1.556   6.716 -0.7565  0.3189  0.0336
   92CHL1    H3 9216   0.598   1.449   6.748 -1.1597  0.8725  2.0896
   92CHL1    O3 9217   0.562   1.563   6.577 -0.5818  0.3893  0.6156
   92CHL1   H3' 9218   0.626   1.509   6.529 -1.7180  0.4130 -1.0022
   92CHL1    C4 9219   0.484   1.626   6.790 -0.1980 -0.1505 -0.4236
   92CHL1   H4A 9220   0.469   1.730   6.752 -0.3435  0.8551  2.1441
   92CHL1   H4B 9221   0.393   1.566   6.772 -0.2790  0.1902 -1.2165
   92CHL1    C5 9222   0.508   1.635   6.941  0.2153  0.6678  0.0762
   92CHL1    C6 9223   0.425   1.583   7.034  0.4469  0.4264 -0.1931
   92CHL1    H6 9224   0.333   1.532   7.000 -0.1378  0.4915  1.2580
   92CHL1    C7 9225   0.430   1.603   7.187  0.0592  0.0567  1.1723
   92CHL1   H7A 9226   0.330   1.641   7.217 -0.6892 -1.0016  0.1019
   92CHL1   H7B 9227   0.447   1.507   7.240 -0.1148 -0.7237 -0.1541
   92CHL1    C8 9228   0.537   1.719   7.229  0.6806 -0.0354 -0.4008
   92CHL1    H8 9229   0.482   1.815   7.218  2.2412  0.7629 -1.6357
   92CHL1   C14 9230   0.569   1.712   7.377 -0.5745  0.2525 -0.1858
   92CHL1   H14 9231   0.619   1.615   7.397  4.3918  2.1968 -1.7892
   92CHL1   C15 9232   0.449   1.727   7.474 -0.3278 -0.1350  0.5167
   92CHL1  H15A 9233   0.380   1.809   7.446 -0.7947 -0.4956  0.6016
   92CHL1  H15B 9234   0.389   1.634   7.466 -2.3774  1.3027 -2.5200
   92CHL1   C16 9235   0.513   1.762   7.609 -0.9415 -0.8363 -0.0845
   92CHL1  H16A 9236   0.481   1.861   7.647  0.5049 -0.0646 -0.8343
   92CHL1  H16B 9237   0.510   1.682   7.686  3.3765 -0.3896  0.7837
   92CHL1   C17 9238   0.668   1.781   7.574  0.5642 -0.5231  0.3304
   92CHL1   H17 9239   0.699   1.675   7.581 -0.9320 -1.1623 -1.9183
   92CHL1   C13 9240   0.673   1.817   7.424 -0.2190 -0.0068  0.1741
   92CHL1   C18 9241   0.606   1.959   7.404 -0.6506 -0.6101 -0.4837
   92CHL1  H18A 9242   0.679   2.037   7.436 -1.2034 -0.9710  1.8167
   92CHL1  H18B 9243   0.569   1.986   7.303  0.8795 -0.1104 -0.9408
   92CHL1  H18C 9244   0.532   1.990   7.481  1.8245 -0.0033  1.8453
   92CHL1   C12 9245   0.804   1.800   7.347 -0.2429 -0.2260  0.0161
   92CHL1  H12A 9246   0.876   1.878   7.379 -0.1889 -0.4443  0.4211
   92CHL1  H12B 9247   0.849   1.700   7.367 -0.0894 -0.1416  0.0875
   92CHL1   C11 9248   0.770   1.812   7.194  0.1759 -0.0183 -0.4712
   92CHL1  H11A 9249   0.727   1.914   7.181  2.0016  0.6024 -2.0318
   92CHL1  H11B 9250   0.863   1.795   7.137  1.1568  1.3557  0.6434
   92CHL1    C9 9251   0.662   1.709   7.143 -0.0919  0.0631  0.2340
   92CHL1    H9 9252   0.709   1.611   7.164 -0.8257 -0.5115 -0.7348
   92CHL1   C10 9253   0.628   1.718   6.989 -0.0433 -0.5477  0.3638
   92CHL1   C19 9254   0.612   1.875   6.946 -0.4275 -0.1501  0.1841
   92CHL1  H19A 9255   0.597   1.885   6.837  0.5969  2.1332  0.1937
   92CHL1  H19B 9256   0.516   1.922   6.979 -0.3897  1.0400 -1.2711
   92CHL1  H19C 9257   0.702   1.937   6.966 -1.4912  1.2714  0.8462
   92CHL1    C1 9258   0.747   1.649   6.904  0.1995  0.6177 -0.2837
   92CHL1   H1A 9259   0.844   1.699   6.925 -0.8106  1.8152  1.8837
   92CHL1   H1B 9260   0.756   1.548   6.950  0.2087  0.5141 -0.5128
   92CHL1    C2 9261   0.729   1.623   6.752  0.1891  0.3526 -1.1584
   92CHL1   H2A 9262   0.815   1.562   6.719  0.3282  0.7884 -1.6203
   92CHL1   H2B 9263   0.739   1.721   6.700 -1.5146 -0.0284 -2.2927
   92CHL1   C20 9264   0.736   1.872   7.681  0.3307  0.4396  0.1489
   92CHL1   H20 9265   0.736   1.979   7.652  1.4083  0.7934  1.3593
   92CHL1   C21 9266   0.889   1.840   7.678 -0.1448  0.6728 -0.3887
   92CHL1  H21A 9267   0.904   1.733   7.701  0.5616  1.4464  3.3884
   92CHL1  H21B 9268   0.932   1.902   7.759  1.4554 -1.5659  0.5673
   92CHL1  H21C 9269   0.935   1.874   7.583  1.7137  0.3471  0.3620
   92CHL1   C22 9270   0.684   1.849   7.838 -0.3559  0.3346  0.0490
   92CHL1  H22A 9271   0.577   1.876   7.845 -0.3313 -0.0057  3.2768
   92CHL1  H22B 9272   0.674   1.744   7.874  0.2505  0.5733  0.9564
   92CHL1   C23 9273   0.757   1.934   7.934 -0.2368 -0.0234 -0.6438
   92CHL1  H23A 9274   0.859   1.893   7.951 -1.0253 -1.9278 -0.2706
   92CHL1  H23B 9275   0.764   2.037   7.892 -0.1382  1.4653  2.7224
   92CHL1   C24 9276   0.679   1.952   8.065  0.3590 -0.4464  0.3964
   92CHL1  H24A 9277   0.580   1.998   8.043 -0.0260 -1.1103  0.7081
   92CHL1  H24B 9278   0.658   1.852   8.108 -0.0681 -0.7652 -0.5151
   92CHL1   C25 9279   0.739   2.033   8.180 -0.1758  0.8033  0.2006
   92CHL1   H25 9280   0.781   2.133   8.155  1.4420 -0.4485 -2.6747
   92CHL1   C26 9281   0.630   2.045   8.287  0.4841  0.1115 -0.9042
   92CHL1  H26A 9282   0.542   2.100   8.248 -0.2386  0.6617  1.3574
   92CHL1  H26B 9283   0.601   1.944   8.321  4.5791 -1.4199 -1.3081
   92CHL1  H26C 9284   0.665   2.100   8.378 -0.3751  0.8379 -0.9948
   92CHL1   C27 9285   0.856   1.953   8.249 -0.4409  0.6331 -0.5341
   92CHL1  H27A 9286   0.919   2.011   8.319  1.5737  1.1234 -2.6270
   92CHL1  H27B 9287   0.818   1.866   8.307  1.6633 -0.6182 -0.9281
   92CHL1  H27C 9288   0.924   1.904   8.175  1.7571 -1.0500  2.3728
   93CHL1    C3 9289   5.583   6.403   6.845 -0.4313  0.5739 -0.0206
   93CHL1    H3 9290   5.490   6.347   6.821  0.2309  0.0752 -1.5668
   93CHL1    O3 9291   5.651   6.426   6.718 -0.3407 -0.4671  0.2151
   93CHL1   H3' 9292   5.744   6.409   6.736 -0.1416 -3.5030 -2.7069
   93CHL1    C4 9293   5.544   6.528   6.912  0.2193 -0.1522  0.0529
   93CHL1   H4A 9294   5.638   6.579   6.942  3.1320 -4.5465 -0.5376
   93CHL1   H4B 9295   5.490   6.592   6.840 -0.9365 -2.1442 -0.9408
   93CHL1    C5 9296   5.467   6.506   7.037 -0.0975 -0.2237  0.1907
   93CHL1    C6 9297   5.349   6.554   7.069  0.4243 -0.8200 -1.0615
   93CHL1    H6 9298   5.296   6.621   7.000 -0.2941 -0.8156 -0.5146
   93CHL1    C7 9299   5.271   6.523   7.201  0.1112 -0.2074  0.2969
   93CHL1   H7A 9300   5.206   6.608   7.229 -1.2785 -1.1307 -0.0317
   93CHL1   H7B 9301   5.194   6.447   7.176 -0.5842  0.0729  1.4891
   93CHL1    C8 9302   5.358   6.465   7.307 -0.1327  0.0088 -0.3014
   93CHL1    H8 9303   5.421   6.549   7.345 -0.5533 -0.1614  0.8325
   93CHL1   C14 9304   5.274   6.408   7.427 -0.0313 -0.5383 -0.1752
   93CHL1   H14 9305   5.202   6.329   7.397 -0.4813  0.2698 -1.2556
   93CHL1   C15 9306   5.165   6.508   7.491 -0.5756 -0.1921  0.6025
   93CHL1  H15A 9307   5.207   6.610   7.503 -2.8235  0.7659  0.9633
   93CHL1  H15B 9308   5.079   6.516   7.420  1.2562  1.8547 -1.5696
   93CHL1   C16 9309   5.138   6.437   7.627 -0.1767 -0.3409  0.3490
   93CHL1  H16A 9310   5.160   6.520   7.698 -0.6538  1.3237 -1.3655
   93CHL1  H16B 9311   5.030   6.412   7.628 -0.1207 -0.6067  1.2651
   93CHL1   C17 9312   5.240   6.315   7.640 -0.1764  0.4631  0.2105
   93CHL1   H17 9313   5.184   6.230   7.596 -0.2046  0.6107 -0.0427
   93CHL1   C13 9314   5.356   6.349   7.540 -0.1710  0.3965  1.3587
   93CHL1   C18 9315   5.455   6.454   7.599  0.6586 -0.1547  0.9833
   93CHL1  H18A 9316   5.520   6.507   7.525  0.5402 -0.2486  0.8119
   93CHL1  H18B 9317   5.406   6.539   7.652  1.5768  1.7364 -1.0460
   93CHL1  H18C 9318   5.513   6.400   7.676 -0.7318 -3.4588 -0.1188
   93CHL1   C12 9319   5.432   6.231   7.475  0.6943  0.2407 -0.0865
   93CHL1  H12A 9320   5.508   6.189   7.545  0.2531  0.9437  0.8397
   93CHL1  H12B 9321   5.358   6.154   7.447 -0.1912  0.7728  0.7527
   93CHL1   C11 9322   5.517   6.272   7.352  0.6103  0.1045 -0.5041
   93CHL1  H11A 9323   5.600   6.334   7.391  0.2009 -0.5914  1.5994
   93CHL1  H11B 9324   5.564   6.182   7.308  1.4495 -0.3031  1.1538
   93CHL1    C9 9325   5.443   6.355   7.242  0.1546  0.6279 -0.2505
   93CHL1    H9 9326   5.380   6.274   7.198  0.3624  0.7888 -0.8591
   93CHL1   C10 9327   5.539   6.407   7.131 -0.3124  1.1271  0.0279
   93CHL1   C19 9328   5.659   6.483   7.188  0.2008  0.3736  0.3107
   93CHL1  H19A 9329   5.721   6.539   7.115 -1.2323  2.7348  0.7952
   93CHL1  H19B 9330   5.622   6.558   7.261  0.2893 -0.3821  1.1457
   93CHL1  H19C 9331   5.721   6.424   7.259 -1.2415 -1.4972  0.0991
   93CHL1    C1 9332   5.591   6.282   7.050  0.1402 -0.2773  0.3972
   93CHL1   H1A 9333   5.643   6.210   7.116  0.2789 -0.5990 -0.0527
   93CHL1   H1B 9334   5.506   6.222   7.012  0.7468  0.0911 -1.7110
   93CHL1    C2 9335   5.678   6.321   6.933 -0.6241  0.2890  0.7013
   93CHL1   H2A 9336   5.706   6.224   6.885 -0.9259  0.3196  0.4579
   93CHL1   H2B 9337   5.769   6.370   6.973 -0.3052  0.0445  0.2803
   93CHL1   C20 9338   5.272   6.284   7.787  0.3439  0.0358  0.3681
   93CHL1   H20 9339   5.319   6.371   7.836  3.8178 -0.9659 -0.9127
   93CHL1   C21 9340   5.381   6.173   7.794 -0.3704 -0.2787  0.6572
   93CHL1  H21A 9341   5.479   6.204   7.754 -0.1073 -1.8126  0.0656
   93CHL1  H21B 9342   5.352   6.084   7.734 -0.4486 -0.9522  1.6651
   93CHL1  H21C 9343   5.396   6.143   7.900  0.2345 -1.9299  0.1275
   93CHL1   C22 9344   5.141   6.240   7.861 -0.7632 -0.4514 -0.5232
   93CHL1  H22A 9345   5.066   6.321   7.848 -0.3902 -0.2566 -1.5438
   93CHL1  H22B 9346   5.094   6.158   7.802 -2.5676  0.9278 -1.0989
   93CHL1   C23 9347   5.143   6.208   8.007 -1.1438  0.5177  0.0354
   93CHL1  H23A 9348   5.046   6.164   8.039  0.0104 -1.8716  0.4345
   93CHL1  H23B 9349   5.216   6.126   8.024 -4.0210 -2.1621  0.2791
   93CHL1   C24 9350   5.177   6.323   8.102 -0.3732 -0.5439 -0.7145
   93CHL1  H24A 9351   5.269   6.383   8.085  0.9881 -1.7298  1.8947
   93CHL1  H24B 9352   5.095   6.398   8.108 -1.0797 -1.4055  1.5735
   93CHL1   C25 9353   5.187   6.274   8.249 -0.8966  0.8030  0.0134
   93CHL1   H25 9354   5.259   6.190   8.256 -0.5327  1.2364  3.2307
   93CHL1   C26 9355   5.237   6.384   8.340 -0.4188 -0.0225  0.4410
   93CHL1  H26A 9356   5.240   6.350   8.446  0.8524 -0.2238  0.3560
   93CHL1  H26B 9357   5.341   6.410   8.312 -0.2558 -2.1774 -1.1184
   93CHL1  H26C 9358   5.165   6.469   8.337  0.7971  1.0919 -3.8183
   93CHL1   C27 9359   5.052   6.224   8.300  0.9020  0.3689  0.5136
   93CHL1  H27A 9360   5.019   6.136   8.240  1.5171 -0.7396  1.7641
   93CHL1  H27B 9361   5.062   6.179   8.401  0.7047 -1.0216 -0.0665
   93CHL1  H27C 9362   4.974   6.304   8.300  0.7477  0.3463 -2.5359
   94CHL1    C3 9363   1.446   2.607   6.905 -0.2632  0.6989  1.0194
   94CHL1    H3 9364   1.454   2.716   6.885 -1.0198  0.6026  0.0991
   94CHL1    O3 9365   1.478   2.538   6.786 -0.2477  0.2319 -0.7960
   94CHL1   H3' 9366   1.455   2.447   6.809  1.2733  0.1453  0.5796
   94CHL1    C4 9367   1.560   2.562   7.008  0.8649 -1.1145 -0.6619
   94CHL1   H4A 9368   1.560   2.452   7.020 -2.5927 -1.1742 -0.3300
   94CHL1   H4B 9369   1.655   2.597   6.962 -0.0838  0.7770 -1.3183
   94CHL1    C5 9370   1.535   2.627   7.146  0.0565 -0.1040  0.1708
   94CHL1    C6 9371   1.629   2.691   7.220 -0.1837  0.9932  0.1907
   94CHL1    H6 9372   1.731   2.701   7.179  0.0918  1.0094  0.8677
   94CHL1    C7 9373   1.616   2.726   7.366  0.0194 -0.4532 -1.2092
   94CHL1   H7A 9374   1.705   2.705   7.429  0.4422 -0.8574 -1.9272
   94CHL1   H7B 9375   1.615   2.837   7.369  1.6638 -0.4289  0.7875
   94CHL1    C8 9376   1.487   2.671   7.433  0.4105 -0.9665  0.4623
   94CHL1    H8 9377   1.495   2.563   7.457 -0.8834 -0.3637  4.2977
   94CHL1   C14 9378   1.461   2.742   7.567  0.1676  0.1591  0.0337
   94CHL1   H14 9379   1.433   2.847   7.547  1.0816  0.4905  0.4352
   94CHL1   C15 9380   1.572   2.744   7.674 -0.3904 -0.3456 -0.3765
   94CHL1  H15A 9381   1.634   2.653   7.684  0.9461  0.3435 -1.9555
   94CHL1  H15B 9382   1.647   2.824   7.659 -0.2575  0.3634  3.1886
   94CHL1   C16 9383   1.496   2.763   7.810 -0.4828 -0.1555  0.0041
   94CHL1  H16A 9384   1.509   2.677   7.880  0.1572 -1.1670 -1.3069
   94CHL1  H16B 9385   1.537   2.850   7.865  3.0422 -1.2882 -0.6004
   94CHL1   C17 9386   1.347   2.771   7.777  0.3404 -0.0241 -0.7048
   94CHL1   H17 9387   1.317   2.874   7.748 -1.8912 -0.5047 -0.2844
   94CHL1   C13 9388   1.332   2.690   7.643 -0.6485 -0.6939 -0.4660
   94CHL1   C18 9389   1.343   2.537   7.674  0.1809 -0.5234 -0.0339
   94CHL1  H18A 9390   1.443   2.510   7.712  0.2981 -0.3864 -0.2452
   94CHL1  H18B 9391   1.261   2.509   7.744 -1.4374  0.6617 -1.3520
   94CHL1  H18C 9392   1.327   2.472   7.585  0.6807 -0.3721 -0.2355
   94CHL1   C12 9393   1.216   2.736   7.551  0.1867 -0.2701 -0.4177
   94CHL1  H12A 9394   1.120   2.699   7.594 -0.0372  0.3159 -0.3994
   94CHL1  H12B 9395   1.217   2.847   7.562 -0.0985 -0.1877 -1.2170
   94CHL1   C11 9396   1.232   2.685   7.407  0.0792 -0.1481 -0.3871
   94CHL1  H11A 9397   1.213   2.576   7.416 -0.3672 -0.0100  0.4811
   94CHL1  H11B 9398   1.146   2.720   7.345  0.6938  0.2361 -1.0445
   94CHL1    C9 9399   1.373   2.693   7.332 -0.3563  0.4899 -0.1251
   94CHL1    H9 9400   1.376   2.800   7.303 -0.0844  0.6878  0.6122
   94CHL1   C10 9401   1.388   2.605   7.205 -1.0236 -0.0444  0.8368
   94CHL1   C19 9402   1.370   2.454   7.231 -0.0484  0.7458 -0.7139
   94CHL1  H19A 9403   1.260   2.440   7.235  0.2758 -2.1711  0.8044
   94CHL1  H19B 9404   1.409   2.395   7.145  2.0378  0.7651  0.1564
   94CHL1  H19C 9405   1.431   2.422   7.318 -1.0416  0.1214 -0.2256
   94CHL1    C1 9406   1.297   2.655   7.094  0.7216 -0.3139 -1.1856
   94CHL1   H1A 9407   1.195   2.667   7.134  1.3935  1.6398  0.0618
   94CHL1   H1B 9408   1.313   2.761   7.064  0.3744  0.2119  0.3985
   94CHL1    C2 9409   1.303   2.571   6.967 -0.5949  0.6261 -0.5408
   94CHL1   H2A 9410   1.220   2.597   6.897 -0.4423  2.0994 -0.2056
   94CHL1   H2B 9411   1.285   2.463   6.989  1.9943  0.5379  1.6956
   94CHL1   C20 9412   1.262   2.734   7.900 -0.1092 -0.2647  0.0104
   94CHL1   H20 9413   1.276   2.625   7.915  1.0302 -0.1563 -0.1961
   94CHL1   C21 9414   1.111   2.741   7.870 -0.2138 -0.0436 -0.1127
   94CHL1  H21A 9415   1.033   2.720   7.947 -1.3034  0.6788 -0.9736
   94CHL1  H21B 9416   1.077   2.669   7.793 -1.8674 -1.7429  2.0602
   94CHL1  H21C 9417   1.096   2.847   7.839  1.7955 -0.2078 -1.8574
   94CHL1   C22 9418   1.290   2.804   8.037  0.0281  1.5137  0.3241
   94CHL1  H22A 9419   1.396   2.794   8.069 -0.0104  0.7871  0.2425
   94CHL1  H22B 9420   1.275   2.910   8.006 -0.6424  1.3698  0.1572
   94CHL1   C23 9421   1.203   2.764   8.152  0.1056  0.2910 -0.9857
   94CHL1  H23A 9422   1.103   2.812   8.160  0.0773 -0.0953  2.8746
   94CHL1  H23B 9423   1.189   2.654   8.155  1.3871  0.0552  3.8263
   94CHL1   C24 9424   1.273   2.804   8.279  0.2262  0.5578 -0.0002
   94CHL1  H24A 9425   1.366   2.744   8.284 -0.1531 -0.2789 -2.0918
   94CHL1  H24B 9426   1.291   2.914   8.284 -1.6441  0.8978 -0.1989
   94CHL1   C25 9427   1.192   2.778   8.400  0.4290 -0.2414  0.4127
   94CHL1   H25 9428   1.146   2.678   8.382  0.2435 -0.2936  1.1251
   94CHL1   C26 9429   1.277   2.757   8.529  0.4204  0.8134  0.3665
   94CHL1  H26A 9430   1.324   2.851   8.563  0.5567  1.4435 -1.4177
   94CHL1  H26B 9431   1.218   2.713   8.612 -0.4583  1.6350  0.1933
   94CHL1  H26C 9432   1.358   2.685   8.505 -1.0261  0.2457 -3.7811
   94CHL1   C27 9433   1.077   2.874   8.424 -0.2654 -0.4074 -0.4945
   94CHL1  H27A 9434   1.012   2.877   8.334 -0.9980  0.1093  0.0442
   94CHL1  H27B 9435   1.019   2.835   8.511 -0.7681  0.0853 -0.6046
   94CHL1  H27C 9436   1.119   2.975   8.440 -0.4480 -0.1267 -1.7257
   95CHL1    C3 9437   1.126   0.055   6.701 -0.0784  0.5154 -0.3825
   95CHL1    H3 9438   1.210   0.099   6.759  0.0718 -0.9566  0.5844
   95CHL1    O3 9439   1.171   0.021   6.568 -0.1107  0.0598  0.0959
   95CHL1   H3' 9440   1.211   0.107   6.551 -1.2380  0.7970  1.0109
   95CHL1    C4 9441   1.070  -0.068   6.768 -0.0799 -0.4873  0.6347
   95CHL1   H4A 9442   0.991  -0.108   6.700  1.7040 -0.0392 -1.8107
   95CHL1   H4B 9443   1.145  -0.147   6.790 -0.4727 -0.8179  0.8085
   95CHL1    C5 9444   1.008  -0.037   6.907  0.2081 -0.0506 -0.4045
   95CHL1    C6 9445   1.064  -0.100   7.008 -0.5587  1.3344 -0.5489
   95CHL1    H6 9446   1.143  -0.175   6.996 -1.1678  0.3981  0.9528
   95CHL1    C7 9447   1.026  -0.076   7.152  0.3596 -1.0405  0.3174
   95CHL1   H7A 9448   1.022  -0.170   7.210 -1.9343 -0.7172  0.7772
   95CHL1   H7B 9449   1.104  -0.015   7.203 -0.3103 -0.4347  0.6434
   95CHL1    C8 9450   0.888   0.001   7.162  0.5172 -0.4698  0.2214
   95CHL1    H8 9451   0.811  -0.074   7.136 -0.0523  0.5154 -1.0694
   95CHL1   C14 9452   0.860   0.050   7.298  0.5287  0.2083  0.4406
   95CHL1   H14 9453   0.945   0.114   7.331  0.1013  0.1003  1.8073
   95CHL1   C15 9454   0.859  -0.057   7.411  0.0285 -0.5392 -0.4157
   95CHL1  H15A 9455   0.795  -0.143   7.381  0.2965 -0.1930 -2.1067
   95CHL1  H15B 9456   0.961  -0.096   7.431 -1.0739 -2.9333  0.8619
   95CHL1   C16 9457   0.796   0.017   7.532  0.4668 -0.1068  0.4251
   95CHL1  H16A 9458   0.725  -0.047   7.589  0.9158 -1.1324 -0.1326
   95CHL1  H16B 9459   0.872   0.036   7.610  0.2356 -0.4022  0.7233
   95CHL1   C17 9460   0.738   0.155   7.482  0.3858 -0.1683  0.4100
   95CHL1   H17 9461   0.819   0.229   7.495 -0.4608  0.6942  0.8898
   95CHL1   C13 9462   0.734   0.136   7.325 -0.9283 -0.7010 -0.5094
   95CHL1   C18 9463   0.604   0.070   7.274 -0.1644 -0.0539  0.2460
   95CHL1  H18A 9464   0.527   0.149   7.259  1.5427  1.4531 -1.0596
   95CHL1  H18B 9465   0.618   0.017   7.177 -0.1802 -1.0021  0.7568
   95CHL1  H18C 9466   0.567  -0.010   7.341  2.4195 -3.4922 -2.0960
   95CHL1   C12 9467   0.756   0.270   7.247 -0.2496 -0.1312  0.3139
   95CHL1  H12A 9468   0.676   0.347   7.244 -1.0702 -0.6884  3.6752
   95CHL1  H12B 9469   0.844   0.316   7.298 -1.0666 -0.0502  1.7072
   95CHL1   C11 9470   0.777   0.225   7.097  0.4005  0.1805 -0.6721
   95CHL1  H11A 9471   0.683   0.175   7.065  1.5125 -2.6518  0.2434
   95CHL1  H11B 9472   0.795   0.309   7.026 -1.4030 -1.9847 -4.0050
   95CHL1    C9 9473   0.883   0.119   7.067  0.2162 -0.1096 -0.0966
   95CHL1    H9 9474   0.978   0.170   7.091 -0.4835  0.2721  2.1568
   95CHL1   C10 9475   0.907   0.079   6.912 -1.0028 -0.5439 -0.8420
   95CHL1   C19 9476   0.773   0.036   6.856  0.9190  0.2928 -0.1117
   95CHL1  H19A 9477   0.737  -0.054   6.911 -2.4150  0.3311 -1.9775
   95CHL1  H19B 9478   0.696   0.115   6.856  2.1814  1.5648 -0.6299
   95CHL1  H19C 9479   0.775   0.005   6.749  1.7612  1.3424 -0.4156
   95CHL1    C1 9480   0.962   0.202   6.830 -0.0794  0.0285 -0.3876
   95CHL1   H1A 9481   0.875   0.270   6.817 -0.0435  0.0750 -0.3831
   95CHL1   H1B 9482   1.042   0.247   6.892 -1.1994 -1.2420  2.1352
   95CHL1    C2 9483   1.029   0.167   6.697 -0.0310 -0.2530 -0.2841
   95CHL1   H2A 9484   1.079   0.256   6.652  2.0766 -0.3580  1.6894
   95CHL1   H2B 9485   0.937   0.143   6.639 -1.7920 -0.0759  2.2502
   95CHL1   C20 9486   0.605   0.200   7.555 -1.2452  0.2834 -0.7792
   95CHL1   H20 9487   0.525   0.124   7.540  0.9284 -2.5370  0.9950
   95CHL1   C21 9488   0.566   0.335   7.509  0.1774 -0.5891  0.1773
   95CHL1  H21A 9489   0.520   0.322   7.409 -1.1330 -0.8517  0.7946
   95CHL1  H21B 9490   0.651   0.405   7.495 -0.8648  0.9273  1.0698
   95CHL1  H21C 9491   0.494   0.392   7.572  0.7664 -1.0756  1.3265
   95CHL1   C22 9492   0.624   0.200   7.713  0.2673 -0.5612  0.1156
   95CHL1  H22A 9493   0.545   0.267   7.754  2.0064 -0.1289  3.0716
   95CHL1  H22B 9494   0.611   0.095   7.747  1.1031 -0.7217 -0.0649
   95CHL1   C23 9495   0.760   0.261   7.770 -0.8555 -0.4358  0.4729
   95CHL1  H23A 9496   0.840   0.186   7.748 -0.3780  0.1752  0.0866
   95CHL1  H23B 9497   0.801   0.354   7.726  4.4954 -1.6670  2.0427
   95CHL1   C24 9498   0.763   0.280   7.927 -0.4344  1.2474 -0.2557
   95CHL1  H24A 9499   0.700   0.200   7.971  0.3586  0.3484 -0.7307
   95CHL1  H24B 9500   0.866   0.274   7.966 -0.8370  2.1742  0.9882
   95CHL1   C25 9501   0.676   0.399   7.977  0.1878 -0.2752  0.2771
   95CHL1   H25 9502   0.575   0.393   7.930  1.9908 -0.2453 -4.1015
   95CHL1   C26 9503   0.671   0.393   8.130 -0.3192  0.2493  0.1945
   95CHL1  H26A 9504   0.621   0.486   8.164 -0.6216 -0.3385  1.4222
   95CHL1  H26B 9505   0.607   0.308   8.161 -0.5698 -0.3178 -1.7721
   95CHL1  H26C 9506   0.773   0.384   8.174  0.0224  0.4403 -0.5375
   95CHL1   C27 9507   0.742   0.536   7.930 -0.1124 -0.4998 -0.6374
   95CHL1  H27A 9508   0.688   0.624   7.970  0.3419  0.5165 -2.1741
   95CHL1  H27B 9509   0.846   0.534   7.971  0.0930 -2.0027 -1.1618
   95CHL1  H27C 9510   0.750   0.544   7.820  0.6871  2.4666 -0.4386
   96CHL1    C3 9511   6.510   0.453   6.817  0.0483  0.5307  0.3222
   96CHL1    H3 9512   6.423   0.385   6.817  2.0620 -2.1905  0.6013
   96CHL1    O3 9513   6.538   0.465   6.680  0.2301 -0.0717 -0.3026
   96CHL1   H3' 9514   6.630   0.492   6.676  0.2997 -0.3591 -0.6898
   96CHL1    C4 9515   6.479   0.602   6.872  0.1992 -0.5649  0.0472
   96CHL1   H4A 9516   6.565   0.671   6.861 -1.4089  1.6486  0.7218
   96CHL1   H4B 9517   6.394   0.652   6.821 -0.1027 -0.1374  0.9444
   96CHL1    C5 9518   6.461   0.605   7.022 -0.0054  0.2195  0.5948
   96CHL1    C6 9519   6.348   0.656   7.076  0.3149 -1.0003 -0.3328
   96CHL1    H6 9520   6.281   0.717   7.014 -0.0310  0.8556  1.7372
   96CHL1    C7 9521   6.315   0.662   7.229  0.1625  0.4632  0.1004
   96CHL1   H7A 9522   6.275   0.760   7.263 -1.8249 -0.0608 -0.5758
   96CHL1   H7B 9523   6.239   0.583   7.248  0.0006  0.2471 -1.3461
   96CHL1    C8 9524   6.441   0.634   7.319  0.6369 -0.2418 -0.1770
   96CHL1    H8 9525   6.510   0.720   7.323  0.5240  0.0703 -3.1495
   96CHL1   C14 9526   6.414   0.607   7.466  0.9359 -0.0712 -1.1948
   96CHL1   H14 9527   6.353   0.514   7.460 -1.2648  1.3138 -1.2213
   96CHL1   C15 9528   6.318   0.698   7.536 -0.1034 -0.4377 -0.3889
   96CHL1  H15A 9529   6.359   0.801   7.536 -0.1918 -0.3901 -1.3409
   96CHL1  H15B 9530   6.217   0.699   7.489 -0.6346  1.8536  0.6758
   96CHL1   C16 9531   6.325   0.640   7.678  0.1582 -0.6469  0.1474
   96CHL1  H16A 9532   6.323   0.724   7.751 -1.0656 -1.6227  1.3041
   96CHL1  H16B 9533   6.231   0.584   7.699 -0.5782 -0.0894 -1.5128
   96CHL1   C17 9534   6.448   0.550   7.692 -0.7069  0.5334 -0.1369
   96CHL1   H17 9535   6.412   0.445   7.691 -0.6276  0.5074 -1.0878
   96CHL1   C13 9536   6.529   0.581   7.561  0.3281  0.2848 -0.8233
   96CHL1   C18 9537   6.628   0.697   7.584 -0.6313 -0.0275  0.2926
   96CHL1  H18A 9538   6.642   0.735   7.481 -2.3588  0.0020  0.0345
   96CHL1  H18B 9539   6.569   0.777   7.633 -2.2675  0.8923 -2.9092
   96CHL1  H18C 9540   6.721   0.662   7.635 -0.6580  0.6027  0.7769
   96CHL1   C12 9541   6.601   0.458   7.506  0.0105  0.4102  0.4597
   96CHL1  H12A 9542   6.696   0.450   7.563  0.5169  0.7317 -0.3270
   96CHL1  H12B 9543   6.538   0.366   7.518 -0.0035  0.0163 -2.1227
   96CHL1   C11 9544   6.641   0.487   7.356 -0.7006  0.0108 -0.9960
   96CHL1  H11A 9545   6.708   0.575   7.357 -0.5619 -0.0910  0.4226
   96CHL1  H11B 9546   6.699   0.399   7.319  1.3033  0.6335  0.5136
   96CHL1    C9 9547   6.522   0.515   7.256  0.1706  0.5764  0.5638
   96CHL1    H9 9548   6.452   0.429   7.262 -1.0350  1.3539 -1.3634
   96CHL1   C10 9549   6.567   0.532   7.106  0.1597  1.1264  0.9572
   96CHL1   C19 9550   6.696   0.619   7.110 -0.3048 -0.0539 -0.2294
   96CHL1  H19A 9551   6.731   0.651   7.010  0.2873 -0.8388 -0.2861
   96CHL1  H19B 9552   6.699   0.711   7.173  1.3269  0.0951 -0.4616
   96CHL1  H19C 9553   6.781   0.570   7.162 -0.1485 -0.2261 -0.6413
   96CHL1    C1 9554   6.605   0.393   7.041  0.0003 -0.5720  0.0485
   96CHL1   H1A 9555   6.690   0.341   7.089  0.8778 -2.3492 -3.1635
   96CHL1   H1B 9556   6.514   0.333   7.062 -0.7914  0.6096  0.0887
   96CHL1    C2 9557   6.622   0.386   6.887 -0.8357 -0.1617  0.0684
   96CHL1   H2A 9558   6.653   0.283   6.860 -0.0282 -0.0699  0.6148
   96CHL1   H2B 9559   6.712   0.445   6.861 -0.4680  0.5051  2.5957
   96CHL1   C20 9560   6.514   0.574   7.828  0.1937 -0.8761 -0.6875
   96CHL1   H20 9561   6.552   0.678   7.831  1.5392 -1.3425 -0.9935
   96CHL1   C21 9562   6.634   0.485   7.835 -0.6155 -0.3770  0.2509
   96CHL1  H21A 9563   6.685   0.471   7.933 -0.9904  1.3279  0.7252
   96CHL1  H21B 9564   6.718   0.516   7.768  0.5847 -0.5823  1.6163
   96CHL1  H21C 9565   6.604   0.380   7.816 -2.0792 -0.0530  0.6789
   96CHL1   C22 9566   6.415   0.558   7.949  0.8043 -0.5909  0.1837
   96CHL1  H22A 9567   6.321   0.616   7.942  0.9056 -0.3454  0.8648
   96CHL1  H22B 9568   6.385   0.451   7.942  1.7865 -0.7637 -3.1774
   96CHL1   C23 9569   6.471   0.585   8.087 -0.3527 -0.7464  0.2438
   96CHL1  H23A 9570   6.565   0.531   8.109 -0.1480 -0.2406  0.6373
   96CHL1  H23B 9571   6.493   0.693   8.078 -1.6837 -0.5660 -1.2295
   96CHL1   C24 9572   6.369   0.550   8.195 -0.6041  0.0945  0.1527
   96CHL1  H24A 9573   6.271   0.579   8.153 -1.0092  1.6632  2.0510
   96CHL1  H24B 9574   6.379   0.440   8.210 -0.8526  0.2280  1.4116
   96CHL1   C25 9575   6.374   0.634   8.333  0.2324  0.5183 -0.1549
   96CHL1   H25 9576   6.481   0.631   8.365 -0.3876 -0.5788  1.9915
   96CHL1   C26 9577   6.351   0.785   8.319 -0.2592  0.1175  0.6302
   96CHL1  H26A 9578   6.373   0.830   8.418  0.3412  0.2725  0.4291
   96CHL1  H26B 9579   6.426   0.829   8.250  0.0520 -1.1180  0.1378
   96CHL1  H26C 9580   6.243   0.804   8.299 -0.1047 -0.9226 -1.4602
   96CHL1   C27 9581   6.285   0.583   8.445  0.4935 -0.8572  0.0575
   96CHL1  H27A 9582   6.181   0.581   8.407  0.7610  2.2087 -1.1092
   96CHL1  H27B 9583   6.310   0.476   8.466 -1.1245 -0.7529  3.0414
   96CHL1  H27C 9584   6.291   0.642   8.539  0.3971  1.1329 -1.1474
   97OSM      N 9585   4.892   1.463  11.249 -0.0457  0.3460 -0.4019
   97OSM    C15 9586   5.005   1.376  11.301  0.0846  0.4645 -0.2855
   97OSM   H15A 9587   5.091   1.438  11.325  1.3282 -0.2034 -2.7360
   97OSM   H15B 9588   5.032   1.298  11.232 -1.9982 -0.7159  0.1435
   97OSM   H15C 9589   4.970   1.318  11.385  0.9468 -0.0313 -0.2525
   97OSM    C14 9590   4.767   1.381  11.266 -0.1271  0.4204 -0.2688
   97OSM   H14A 9591   4.677   1.438  11.252 -0.3596  0.6571  1.8599
   97OSM   H14B 9592   4.757   1.336  11.363 -0.3456 -2.4980 -1.5430
   97OSM   H14C 9593   4.770   1.295  11.200  0.7615 -0.1603  0.5045
   97OSM    C13 9594   4.882   1.588  11.330  0.0145 -0.0407  0.3543
   97OSM   H13A 9595   4.788   1.638  11.310 -0.5448 -1.5680 -1.1283
   97OSM   H13B 9596   4.966   1.647  11.298  0.7349 -0.9137  0.6202
   97OSM   H13C 9597   4.891   1.562  11.434  2.3764  0.4373  0.3239
   97OSM    C12 9598   4.909   1.487  11.098 -0.8446 -0.0910  0.1392
   97OSM   H12A 9599   4.818   1.530  11.060 -1.3887  0.0283  1.5109
   97OSM   H12B 9600   4.912   1.390  11.050 -1.0170 -0.4201  0.7800
   97OSM    C11 9601   5.029   1.580  11.053 -0.8441 -0.5968 -0.1598
   97OSM   H11A 9602   5.026   1.673  11.112  0.8159 -2.0515  2.4308
   97OSM   H11B 9603   5.020   1.604  10.945 -0.5527 -0.0444 -0.0637
   97OSM      P 9604   5.208   1.400  11.006 -0.2949  0.2061 -0.5523
   97OSM    O13 9605   5.346   1.385  11.051 -0.1142 -0.3780 -0.4770
   97OSM    O14 9606   5.120   1.282  11.034 -0.0709 -0.1170 -0.6362
   97OSM    O11 9607   5.216   1.437  10.849  0.0782 -0.4425 -0.3369
   97OSM    O12 9608   5.152   1.526  11.083 -0.8717 -0.3137 -0.4388
   97OSM    C1S 9609   5.285   1.556  10.807  0.4237  0.6541 -0.2138
   97OSM    H1S 9610   5.377   1.567  10.868 -0.8179 -0.2760  1.9904
   97OSM    H1T 9611   5.219   1.643  10.827 -1.5959 -0.7215 -0.5141
   97OSM     NF 9612   5.345   1.696  10.607  0.3130 -0.0701 -0.3560
   97OSM    HNF 9613   5.265   1.739  10.567 -2.4947 -3.5855  0.9509
   97OSM    C2S 9614   5.309   1.564  10.650  0.1835  0.4912 -0.6898
   97OSM    H2S 9615   5.389   1.487  10.642 -0.4578 -0.6941  2.6600
   97OSM    C3S 9616   5.189   1.497  10.576 -0.0434 -0.3075 -0.0763
   97OSM    H3S 9617   5.100   1.546  10.621  1.0960 -0.7013  2.8417
   97OSM     O3 9618   5.182   1.352  10.601 -0.5961 -0.7189  1.0045
   97OSM    HO3 9619   5.215   1.345  10.691 -0.6601  2.5563  1.4007
   97OSM    C4S 9620   5.217   1.523  10.427  0.5099  0.4533  0.8096
   97OSM    H4S 9621   5.311   1.479  10.392 -0.0118  1.8794 -2.7278
   97OSM    C5S 9622   5.133   1.581  10.342  0.0342  0.2232  0.1730
   97OSM    H5S 9623   5.036   1.608  10.386 -0.1565  0.0244 -0.1239
   97OSM    C6S 9624   5.152   1.612  10.198 -0.0050 -0.5652  0.1005
   97OSM    H6S 9625   5.077   1.685  10.162 -2.2405 -2.5230  0.5069
   97OSM    H6T 9626   5.135   1.515  10.146  0.7252 -0.4381 -0.3814
   97OSM    C7S 9627   5.292   1.678  10.160 -0.2197  0.5481 -0.3119
   97OSM    H7S 9628   5.365   1.637  10.233 -0.3197 -0.6190 -0.8473
   97OSM    H7T 9629   5.289   1.784  10.192  0.7186 -0.3984  3.4776
   97OSM    C8S 9630   5.336   1.644  10.016  0.6772 -0.2887  0.3132
   97OSM    H8S 9631   5.364   1.537  10.005 -1.2407 -0.6898 -1.2366
   97OSM    H8T 9632   5.436   1.687   9.994  0.6786  0.1859  1.1972
   97OSM    C9S 9633   5.237   1.684   9.910  0.2188 -0.0635  0.4467
   97OSM    H9S 9634   5.208   1.790   9.931  0.8207 -0.0715  1.3877
   97OSM    H9T 9635   5.155   1.609   9.916  0.8215 -0.7386  0.3746
   97OSM   C10S 9636   5.294   1.688   9.774 -1.2250  0.4161 -0.1933
   97OSM   H10S 9637   5.319   1.583   9.745 -1.9841  0.3045 -0.4757
   97OSM   H10T 9638   5.396   1.731   9.763 -1.3471  0.4671 -1.2699
   97OSM   C11S 9639   5.211   1.763   9.667  0.8576  1.2026 -1.0295
   97OSM   H11S 9640   5.191   1.870   9.689 -2.4497  0.5449 -0.3072
   97OSM   H11T 9641   5.111   1.713   9.659  0.3213  1.9443  0.5329
   97OSM   C12S 9642   5.289   1.758   9.533 -0.1673  0.1777 -0.3618
   97OSM   H12S 9643   5.305   1.652   9.504  3.6405  0.6611 -0.4880
   97OSM   H12T 9644   5.389   1.803   9.548  0.1569 -0.2490 -1.1771
   97OSM   C13S 9645   5.215   1.826   9.419 -0.2992 -0.8009 -0.2352
   97OSM   H13S 9646   5.279   1.802   9.331 -2.1560 -1.3976 -1.4782
   97OSM   H13T 9647   5.227   1.935   9.436 -0.6559 -0.7136 -0.5416
   97OSM   C14S 9648   5.068   1.790   9.394 -0.4398 -0.1640 -0.0637
   97OSM   H14S 9649   5.011   1.848   9.470 -0.4275  0.5357 -0.5738
   97OSM   H14T 9650   5.054   1.684   9.423 -1.8082 -0.5265 -1.8970
   97OSM   C15S 9651   5.012   1.816   9.256 -0.5809 -0.6657 -0.3894
   97OSM   H15S 9652   5.075   1.769   9.178  2.4820  0.0614  1.4973
   97OSM   H15T 9653   5.008   1.924   9.234 -0.8972 -0.8374 -1.2404
   97OSM   C16S 9654   4.866   1.760   9.241  0.1655  0.4513 -0.1969
   97OSM   H16S 9655   4.790   1.815   9.301  0.2076 -0.7084  0.9623
   97OSM   H16T 9656   4.866   1.656   9.279  1.2256  0.4723 -0.1163
   97OSM   C17S 9657   4.816   1.734   9.101 -0.3955 -0.2137 -0.1545
   97OSM   H17S 9658   4.717   1.684   9.097  0.0668 -1.8185  4.0026
   97OSM   H17T 9659   4.881   1.657   9.055 -1.6167 -0.3810 -1.7248
   97OSM   C18S 9660   4.805   1.863   9.010  0.3689  0.1484 -0.2325
   97OSM   H18S 9661   4.736   1.940   9.051  0.4178  1.4367 -2.4306
   97OSM   H18T 9662   4.778   1.838   8.905  0.8349 -0.6193 -0.1737
   97OSM   H18U 9663   4.901   1.919   9.013  0.7939 -0.6014  1.3691
   97OSM    C1F 9664   5.463   1.747  10.642  0.0526 -0.5105  0.6366
   97OSM     OF 9665   5.543   1.676  10.704  0.3901  0.6990 -0.2899
   97OSM    C2F 9666   5.487   1.891  10.614 -0.4216 -0.7374 -0.6171
   97OSM    H2F 9667   5.493   1.956  10.704  1.4271  1.0690 -1.9269
   97OSM    H2G 9668   5.399   1.934  10.561  0.7169  3.6332  0.6381
   97OSM    C3F 9669   5.618   1.910  10.524  0.1409  0.6524  0.2614
   97OSM    H3F 9670   5.704   1.880  10.587 -0.9354  1.0545  2.0046
   97OSM    H3G 9671   5.633   2.016  10.495  0.4305  0.7403  0.7102
   97OSM    C4F 9672   5.607   1.833  10.394  0.5351 -0.1751 -0.5436
   97OSM    H4F 9673   5.512   1.858  10.342  0.8036  2.0898 -0.0685
   97OSM    H4G 9674   5.608   1.723  10.411 -0.7407 -0.0317  0.6595
   97OSM    C5F 9675   5.732   1.875  10.302  0.1969  0.2097 -0.0142
   97OSM    H5F 9676   5.824   1.841  10.355  0.3624 -1.2639 -1.1754
   97OSM    H5G 9677   5.740   1.986  10.299 -2.3320  0.4951  1.0364
   97OSM    C6F 9678   5.710   1.806  10.168 -0.7014 -0.3013 -0.9139
   97OSM    H6F 9679   5.616   1.837  10.118 -1.0209  0.1357 -0.0609
   97OSM    H6G 9680   5.689   1.698  10.186 -1.2351 -0.2965 -1.4667
   97OSM    C7F 9681   5.826   1.823  10.072 -0.3492 -0.6179  0.5583
   97OSM    H7F 9682   5.924   1.798  10.116  0.3251 -0.2611 -0.6853
   97OSM    H7G 9683   5.843   1.926  10.034  0.3103 -1.3994 -1.3797
   97OSM    C8F 9684   5.792   1.743   9.946 -0.7815  0.3209 -0.4538
   97OSM    H8F 9685   5.720   1.806   9.889  0.9841  2.3447 -0.5959
   97OSM    H8G 9686   5.723   1.666   9.984 -2.3346  0.9834 -1.8172
   97OSM    C9F 9687   5.919   1.691   9.875  0.1909 -0.3816  0.0454
   97OSM    H9F 9688   6.012   1.732   9.916 -0.5859 -0.4304  1.9425
   97OSM   C10F 9689   5.910   1.648   9.750 -1.2355  0.1752  0.6019
   97OSM   H10F 9690   6.004   1.628   9.696 -1.2572 -1.9950  1.2779
   97OSM   C11F 9691   5.786   1.627   9.661  0.3914  0.0596  0.0900
   97OSM   H11F 9692   5.697   1.628   9.728  1.4795 -0.4146  1.6190
   97OSM   H11G 9693   5.796   1.525   9.618  0.6865 -0.0050  0.3084
   97OSM   C12F 9694   5.776   1.735   9.547  0.8004  0.5550  0.3256
   97OSM   H12F 9695   5.868   1.789   9.517  0.8804 -0.8858 -2.2999
   97OSM   H12G 9696   5.717   1.813   9.600  0.8819  0.4096  0.6285
   97OSM   C13F 9697   5.700   1.686   9.423  0.4083 -0.8267 -0.2078
   97OSM   H13F 9698   5.607   1.633   9.450 -0.4383  0.2237 -0.9815
   97OSM   H13G 9699   5.766   1.609   9.377  0.1547 -1.0888 -0.1331
   97OSM   C14F 9700   5.666   1.805   9.329  0.5334  0.2417  0.0498
   97OSM   H14F 9701   5.749   1.877   9.315 -1.0541  2.0736 -0.3677
   97OSM   H14G 9702   5.581   1.859   9.374 -1.4928 -0.6516 -2.4430
   97OSM   C15F 9703   5.629   1.743   9.193  0.2626  0.2988 -0.1297
   97OSM   H15F 9704   5.549   1.666   9.201  0.7570 -0.2381 -0.2164
   97OSM   H15G 9705   5.718   1.693   9.147  0.8078  1.1006  0.0457
   97OSM   C16F 9706   5.586   1.846   9.089 -0.2183 -0.2845 -0.3333
   97OSM   H16F 9707   5.634   1.944   9.110  0.9452 -0.5394 -1.6058
   97OSM   H16G 9708   5.479   1.862   9.114 -0.2069 -2.3689  1.3722
   97OSM   C17F 9709   5.625   1.798   8.951  0.1417 -0.2302 -0.1800
   97OSM   H17F 9710   5.599   1.692   8.933  3.3156 -0.9429 -1.2862
   97OSM   H17G 9711   5.736   1.793   8.956  0.0805 -1.3836  0.1681
   97OSM   C18F 9712   5.595   1.895   8.834 -0.1481  0.3454  0.0619
   97OSM   H18F 9713   5.659   1.869   8.747 -1.2436  1.0142 -0.9755
   97OSM   H18G 9714   5.628   1.997   8.864 -0.9442  0.5521  0.2462
   97OSM   H18H 9715   5.489   1.905   8.803  0.2152  3.9182 -0.4737
   98OSM      N 9716   6.416   6.654  10.872  0.4415  0.1298 -0.4051
   98OSM    C15 9717   6.446   6.729  10.746  0.8017  0.2511 -0.3519
   98OSM   H15A 9718   6.518   6.809  10.757 -0.3740  1.2341  0.5064
   98OSM   H15B 9719   6.354   6.775  10.712  1.5876  0.9211 -1.6285
   98OSM   H15C 9720   6.478   6.662  10.668 -2.0473  0.4654 -1.8443
   98OSM    C14 9721   6.548   6.599  10.930  0.0851 -0.7375  0.1126
   98OSM   H14A 9722   6.632   6.666  10.937 -0.4578  0.0004 -0.2694
   98OSM   H14B 9723   6.573   6.516  10.866 -0.6742 -0.7068 -0.2323
   98OSM   H14C 9724   6.534   6.571  11.034  1.3189 -1.0715  0.2049
   98OSM    C13 9725   6.362   6.755  10.979  0.0366  0.0596  0.1829
   98OSM   H13A 9726   6.319   6.699  11.060 -1.4812 -0.1058 -0.7152
   98OSM   H13B 9727   6.301   6.829  10.930  1.5546  0.9698 -0.4401
   98OSM   H13C 9728   6.444   6.805  11.028 -0.5294  0.6457  0.5390
   98OSM    C12 9729   6.325   6.535  10.846  0.3103 -0.3496  0.2685
   98OSM   H12A 9730   6.290   6.482  10.933 -0.8835  0.9204  0.5952
   98OSM   H12B 9731   6.389   6.463  10.797  1.8606  1.2903 -0.2611
   98OSM    C11 9732   6.196   6.565  10.760  0.2785 -0.0937  0.1441
   98OSM   H11A 9733   6.142   6.469  10.745  0.7549 -1.7783  6.4040
   98OSM   H11B 9734   6.244   6.600  10.666  0.1642  1.3567  0.6102
   98OSM      P 9735   6.021   6.644  10.930 -0.4808 -0.0214  0.4411
   98OSM    O13 9736   6.071   6.524  10.993  0.0481  0.3516 -0.1784
   98OSM    O14 9737   5.998   6.760  11.014  0.4724  0.8303  0.0765
   98OSM    O11 9738   5.882   6.615  10.853  0.0927  0.2636  0.5467
   98OSM    O12 9739   6.121   6.677  10.812 -0.2391 -0.7324  0.1753
   98OSM    C1S 9740   5.794   6.712  10.789 -0.2777  0.5125  0.5463
   98OSM    H1S 9741   5.834   6.815  10.801 -1.2500  1.2500 -2.0332
   98OSM    H1T 9742   5.689   6.693  10.818 -1.2817  1.1672 -2.3944
   98OSM     NF 9743   5.721   6.776  10.564 -0.4582  0.4080  0.2729
   98OSM    HNF 9744   5.622   6.769  10.548 -0.0800  1.6483 -3.6365
   98OSM    C2S 9745   5.788   6.677  10.638 -0.4063 -0.3260 -0.2580
   98OSM    H2S 9746   5.897   6.675  10.614  0.2754  1.6193  2.1825
   98OSM    C3S 9747   5.731   6.541  10.614 -0.1190  0.4313  1.0576
   98OSM    H3S 9748   5.621   6.540  10.629 -0.0042  2.1685  2.4117
   98OSM     O3 9749   5.780   6.435  10.692 -0.0500 -0.5759  0.1512
   98OSM    HO3 9750   5.839   6.477  10.755  0.8245 -0.7256 -0.5481
   98OSM    C4S 9751   5.746   6.500  10.458 -0.6104 -0.2299 -0.2442
   98OSM    H4S 9752   5.666   6.531  10.389 -1.2342  0.7485  0.8748
   98OSM    C5S 9753   5.860   6.440  10.412  0.4660  0.0598  0.0848
   98OSM    H5S 9754   5.940   6.413  10.483  0.6531  2.6396  0.9808
   98OSM    C6S 9755   5.877   6.398  10.264  0.3902 -0.5096 -0.1862
   98OSM    H6S 9756   5.833   6.297  10.255  0.1666 -0.8451  3.2919
   98OSM    H6T 9757   5.984   6.388  10.236  0.7456  1.5381  0.2909
   98OSM    C7S 9758   5.814   6.482  10.158 -0.2236 -0.7637  0.2462
   98OSM    H7S 9759   5.848   6.588  10.159  2.1002 -1.4222 -0.4828
   98OSM    H7T 9760   5.706   6.470  10.178 -0.1760 -0.3972  0.7349
   98OSM    C8S 9761   5.866   6.438  10.021 -0.1126 -0.1767 -0.1661
   98OSM    H8S 9762   5.854   6.328  10.023 -2.8476  0.0211 -1.3473
   98OSM    H8T 9763   5.972   6.467  10.001 -0.4627  0.3758 -1.3088
   98OSM    C9S 9764   5.773   6.472   9.906  0.1676 -1.2404  0.6853
   98OSM    H9S 9765   5.729   6.570   9.934  0.3003 -0.5569 -1.2949
   98OSM    H9T 9766   5.691   6.396   9.907 -1.1233  0.0784  2.9622
   98OSM   C10S 9767   5.827   6.476   9.762 -0.1825  0.0976 -0.3812
   98OSM   H10S 9768   5.910   6.547   9.743 -1.0239  1.5398  1.0853
   98OSM   H10T 9769   5.747   6.504   9.690 -1.4163 -0.9208  0.5359
   98OSM   C11S 9770   5.854   6.340   9.702 -0.8132 -0.5673 -0.2069
   98OSM   H11S 9771   5.752   6.296   9.704 -0.6501 -0.9363  1.4817
   98OSM   H11T 9772   5.917   6.271   9.762  0.8225  1.1627  0.1308
   98OSM   C12S 9773   5.903   6.337   9.557 -0.0078 -0.5693 -0.6278
   98OSM   H12S 9774   6.011   6.357   9.571 -0.2345 -1.6780  5.1833
   98OSM   H12T 9775   5.850   6.421   9.507  1.2432 -0.6379 -2.1548
   98OSM   C13S 9776   5.878   6.208   9.476  0.0432  0.2948  0.1349
   98OSM   H13S 9777   5.769   6.189   9.484  0.3822 -1.1872  1.7338
   98OSM   H13T 9778   5.930   6.122   9.522  3.0778  1.2687 -1.1901
   98OSM   C14S 9779   5.927   6.239   9.333 -0.3134 -0.4382 -1.1190
   98OSM   H14S 9780   6.030   6.278   9.342 -1.1044  1.2968  1.3583
   98OSM   H14T 9781   5.872   6.320   9.281 -0.3972 -0.9535 -1.8486
   98OSM   C15S 9782   5.924   6.113   9.251  0.2130  0.2331 -0.4110
   98OSM   H15S 9783   5.820   6.075   9.258  0.1346  0.1204 -1.8678
   98OSM   H15T 9784   6.002   6.046   9.293 -0.3081  0.0270  0.2479
   98OSM   C16S 9785   5.956   6.134   9.103 -0.4228  0.3429  0.4699
   98OSM   H16S 9786   6.064   6.157   9.096  0.8849 -4.9324 -0.7517
   98OSM   H16T 9787   5.893   6.205   9.045 -1.9507 -1.1703  0.1739
   98OSM   C17S 9788   5.944   6.001   9.026 -0.9557  0.1667  0.1230
   98OSM   H17S 9789   6.021   5.933   9.068 -0.8087  0.8328  0.9641
   98OSM   H17T 9790   5.975   6.031   8.924  1.5607  1.7059  1.2548
   98OSM   C18S 9791   5.802   5.941   9.012 -0.7832  0.0128 -0.3569
   98OSM   H18S 9792   5.729   6.025   9.006 -1.1055 -0.2834 -0.6583
   98OSM   H18T 9793   5.784   5.883   9.105 -0.3097  0.7175  0.1851
   98OSM   H18U 9794   5.801   5.876   8.921  1.3789 -1.3941  0.5353
   98OSM    C1F 9795   5.778   6.893  10.561 -0.4505  0.2721 -0.2482
   98OSM     OF 9796   5.899   6.903  10.589 -0.2746 -0.0700  0.2638
   98OSM    C2F 9797   5.699   7.010  10.514 -0.5011 -0.6887  0.0970
   98OSM    H2F 9798   5.673   7.070  10.604  0.5493  0.7217 -0.4938
   98OSM    H2G 9799   5.605   6.975  10.465  0.8468 -0.5447 -2.8204
   98OSM    C3F 9800   5.773   7.101  10.415 -0.7327  0.0999  0.3017
   98OSM    H3F 9801   5.867   7.140  10.459  0.3519 -0.7139 -1.2538
   98OSM    H3G 9802   5.712   7.191  10.389 -2.8243 -1.3836 -0.2122
   98OSM    C4F 9803   5.809   7.015  10.291  0.6431 -0.1898  0.0144
   98OSM    H4F 9804   5.727   6.957  10.244  0.6989  0.2281 -0.6110
   98OSM    H4G 9805   5.884   6.940  10.321  0.7279 -0.2741 -0.3972
   98OSM    C5F 9806   5.869   7.111  10.192 -0.1142 -0.0757  0.3557
   98OSM    H5F 9807   5.978   7.120  10.209  0.6109 -2.5188 -2.2479
   98OSM    H5G 9808   5.816   7.207  10.210 -1.4933 -1.2885  3.4054
   98OSM    C6F 9809   5.853   7.073  10.042 -0.2602  0.1796 -0.3101
   98OSM    H6F 9810   5.752   7.029  10.025 -1.1042  1.0519  2.0473
   98OSM    H6G 9811   5.931   7.003  10.007 -0.8033 -1.7029  1.9730
   98OSM    C7F 9812   5.863   7.198   9.953  0.6490 -0.5241 -0.5042
   98OSM    H7F 9813   5.952   7.256   9.987  0.1240 -0.1978  0.3311
   98OSM    H7G 9814   5.770   7.256   9.967  0.6806  0.4193 -3.4871
   98OSM    C8F 9815   5.881   7.164   9.807 -0.2351 -0.0492 -0.4973
   98OSM    H8F 9816   5.976   7.106   9.811  0.1013  0.4191 -1.3164
   98OSM    H8G 9817   5.901   7.262   9.758  1.8057  0.5900  1.4412
   98OSM    C9F 9818   5.775   7.081   9.735 -0.3024 -0.4642  0.8414
   98OSM    H9F 9819   5.794   6.973   9.746 -2.1085 -1.2220 -2.1567
   98OSM   C10F 9820   5.671   7.126   9.665 -0.2233  0.7441 -0.0427
   98OSM   H10F 9821   5.604   7.054   9.616 -0.1076 -0.3341  1.3103
   98OSM   C11F 9822   5.637   7.276   9.643 -0.0056  0.6719 -0.2400
   98OSM   H11F 9823   5.678   7.344   9.721  0.9811 -0.2127  0.0414
   98OSM   H11G 9824   5.528   7.279   9.663  0.0198 -1.2536  0.4035
   98OSM   C12F 9825   5.665   7.344   9.517 -0.7395  0.2316 -0.2345
   98OSM   H12F 9826   5.764   7.308   9.482  0.3193  2.6259  0.1218
   98OSM   H12G 9827   5.669   7.454   9.532 -2.2710  0.3152 -0.2205
   98OSM   C13F 9828   5.555   7.326   9.408  0.3194  0.1907  0.4131
   98OSM   H13F 9829   5.454   7.353   9.446 -0.2108 -1.0669 -0.0376
   98OSM   H13G 9830   5.563   7.217   9.391  1.1368  0.6223 -2.4823
   98OSM   C14F 9831   5.590   7.400   9.273  0.2793 -0.2655  0.6998
   98OSM   H14F 9832   5.683   7.353   9.236  0.4046  0.3498  0.2132
   98OSM   H14G 9833   5.601   7.509   9.294  0.7639 -0.2772  0.5082
   98OSM   C15F 9834   5.480   7.400   9.167 -0.9144 -0.2116 -0.1122
   98OSM   H15F 9835   5.413   7.488   9.175 -0.9423 -0.1295 -1.1269
   98OSM   H15G 9836   5.413   7.312   9.178 -1.2064  0.1677  1.4167
   98OSM   C16F 9837   5.534   7.400   9.017 -0.2463 -0.1957 -0.1641
   98OSM   H16F 9838   5.597   7.308   9.010 -1.6669 -1.1892 -0.5471
   98OSM   H16G 9839   5.617   7.473   9.010  1.6689 -2.1215  1.0363
   98OSM   C17F 9840   5.442   7.412   8.891  0.5102  0.0036  0.2681
   98OSM   H17F 9841   5.367   7.485   8.930  2.8361  1.6464  1.9197
   98OSM   H17G 9842   5.397   7.311   8.877 -1.6419  0.8998  0.2411
   98OSM   C18F 9843   5.510   7.461   8.764  0.0490 -0.5514  0.5255
   98OSM   H18F 9844   5.590   7.396   8.721 -0.8920  0.6342 -3.4412
   98OSM   H18G 9845   5.541   7.567   8.771  1.8475 -1.1103  1.6018
   98OSM   H18H 9846   5.434   7.461   8.682  0.4851  0.3331  0.1134
   99OSM      N 9847   6.669   3.199  10.902 -0.1561  0.2100  0.2956
   99OSM    C15 9848   6.593   3.116  11.000  0.0042  0.1279  0.0987
   99OSM   H15A 9849   6.645   3.025  11.027  2.5030  1.2513 -0.6274
   99OSM   H15B 9850   6.501   3.086  10.952  0.4077 -0.7285 -0.1673
   99OSM   H15C 9851   6.575   3.162  11.096  0.3090 -2.1373  1.3266
   99OSM    C14 9852   6.575   3.289  10.827 -0.0993  0.3730  0.3285
   99OSM   H14A 9853   6.496   3.235  10.777  1.9038 -0.5860 -2.0095
   99OSM   H14B 9854   6.639   3.343  10.760  2.2373 -2.8900 -0.3411
   99OSM   H14C 9855   6.541   3.364  10.896 -0.4963  0.1035  0.4312
   99OSM    C13 9856   6.773   3.274  10.971 -0.2650  0.5041  0.3701
   99OSM   H13A 9857   6.821   3.199  11.032 -1.2864  0.0497  0.6318
   99OSM   H13B 9858   6.720   3.342  11.036 -1.1609 -0.5499  0.7694
   99OSM   H13C 9859   6.846   3.319  10.905 -2.6173  1.8547 -1.4670
   99OSM    C12 9860   6.742   3.116  10.802  0.1231  0.4501  0.6868
   99OSM   H12A 9861   6.674   3.071  10.731 -0.4672  0.3032  1.3378
   99OSM   H12B 9862   6.798   3.035  10.845  1.4206  0.9753  0.0503
   99OSM    C11 9863   6.849   3.188  10.712 -0.4413 -0.3697 -0.2550
   99OSM   H11A 9864   6.808   3.291  10.709  1.1145  0.4948  3.0724
   99OSM   H11B 9865   6.847   3.159  10.605 -0.5403 -0.0820 -0.3312
   99OSM      P 9866   7.080   3.077  10.776 -0.1942 -0.0648 -0.1754
   99OSM    O13 9867   7.210   3.138  10.807 -0.2936 -0.1261 -0.4143
   99OSM    O14 9868   7.025   2.969  10.857  0.1955  0.3441  0.4305
   99OSM    O11 9869   7.091   3.027  10.630 -0.0345  0.2276 -0.0699
   99OSM    O12 9870   6.975   3.196  10.772 -0.1560  0.4071 -0.2841
   99OSM    C1S 9871   7.146   2.904  10.579  0.1120  0.5469 -0.1815
   99OSM    H1S 9872   7.062   2.833  10.566  1.3999 -1.0345 -0.1131
   99OSM    H1T 9873   7.216   2.855  10.650 -1.6315 -2.5111 -0.3908
   99OSM     NF 9874   7.269   2.778  10.403  0.4497  0.0879  0.5096
   99OSM    HNF 9875   7.364   2.766  10.375 -0.6882 -0.0313 -4.1245
   99OSM    C2S 9876   7.221   2.908  10.447  0.5174 -0.9899 -0.3153
   99OSM    H2S 9877   7.161   2.955  10.366 -0.5924  0.3238  1.1844
   99OSM    C3S 9878   7.333   3.011  10.477  1.2775  0.4830 -0.7202
   99OSM    H3S 9879   7.371   2.994  10.580  1.0036  0.1351 -0.6746
   99OSM     O3 9880   7.285   3.142  10.475  0.1100  0.0704 -0.0705
   99OSM    HO3 9881   7.193   3.129  10.500 -0.0468  1.2300  0.0281
   99OSM    C4S 9882   7.449   2.998  10.384 -0.4197  0.0434  0.2634
   99OSM    H4S 9883   7.535   2.953  10.436  0.8337  2.3730  0.3518
   99OSM    C5S 9884   7.471   3.049  10.266  0.0179 -0.0389  0.3425
   99OSM    H5S 9885   7.385   3.100  10.221 -0.2933 -3.6202 -3.7647
   99OSM    C6S 9886   7.600   3.024  10.189  0.2030 -0.2796  0.4831
   99OSM    H6S 9887   7.687   3.012  10.257  0.5033 -2.5743 -0.2020
   99OSM    H6T 9888   7.640   3.103  10.122 -0.4125 -1.1726 -0.9988
   99OSM    C7S 9889   7.603   2.908  10.088 -0.1175  0.6297 -0.7496
   99OSM    H7S 9890   7.561   2.823  10.146  0.7237  1.7474  1.5982
   99OSM    H7T 9891   7.709   2.885  10.062 -0.1601 -0.3950 -0.0797
   99OSM    C8S 9892   7.522   2.928   9.953  0.2207  0.1681  0.1188
   99OSM    H8S 9893   7.552   3.028   9.916  0.6121 -0.0681 -0.2075
   99OSM    H8T 9894   7.413   2.938   9.973  0.6398  1.1935  2.2259
   99OSM    C9S 9895   7.554   2.840   9.832 -0.2077  0.0277  0.0843
   99OSM    H9S 9896   7.545   2.732   9.854  0.0281 -0.2097 -0.9185
   99OSM    H9T 9897   7.664   2.849   9.816  0.3451 -2.1830  2.0441
   99OSM   C10S 9898   7.472   2.857   9.703 -0.4398  0.0188 -0.5477
   99OSM   H10S 9899   7.410   2.950   9.706  0.0952  0.3703 -0.2950
   99OSM   H10T 9900   7.410   2.768   9.678 -2.3420  1.4208 -1.0371
   99OSM   C11S 9901   7.567   2.874   9.581  0.1143  0.0481 -0.0443
   99OSM   H11S 9902   7.668   2.831   9.598  0.4102  0.4684 -0.6897
   99OSM   H11T 9903   7.580   2.982   9.557  0.7457 -0.5465 -2.7640
   99OSM   C12S 9904   7.505   2.815   9.448 -0.8637 -0.0482 -0.5967
   99OSM   H12S 9905   7.496   2.704   9.451  1.2786 -0.2585  0.0120
   99OSM   H12T 9906   7.403   2.857   9.453 -0.6215  0.6577 -1.3771
   99OSM   C13S 9907   7.562   2.858   9.311 -0.4504  0.3802  0.9006
   99OSM   H13S 9908   7.584   2.967   9.315 -0.9795  0.5273 -0.0235
   99OSM   H13T 9909   7.482   2.831   9.238  0.2562 -0.3914  0.3943
   99OSM   C14S 9910   7.684   2.781   9.265 -0.5354 -0.1103  0.3243
   99OSM   H14S 9911   7.663   2.672   9.271  0.4569 -0.4501 -1.6473
   99OSM   H14T 9912   7.776   2.802   9.324  1.4025  2.2719 -3.1954
   99OSM   C15S 9913   7.725   2.826   9.124 -0.2482 -0.4844  0.1200
   99OSM   H15S 9914   7.729   2.936   9.110  0.9822 -0.7465 -2.0285
   99OSM   H15T 9915   7.637   2.802   9.060 -1.0541  1.1235  0.5760
   99OSM   C16S 9916   7.861   2.766   9.074  0.3256  0.0569  0.5215
   99OSM   H16S 9917   7.863   2.658   9.097 -2.2713  0.6241  4.4259
   99OSM   H16T 9918   7.937   2.815   9.138  0.2136 -1.9214  2.2646
   99OSM   C17S 9919   7.895   2.797   8.924  0.4122  0.5946  0.2160
   99OSM   H17S 9920   8.003   2.802   8.898  0.4360 -1.5526 -0.3659
   99OSM   H17T 9921   7.869   2.900   8.894 -0.1761 -0.2013 -2.3046
   99OSM   C18S 9922   7.837   2.702   8.815 -0.1339  0.4034 -0.4220
   99OSM   H18S 9923   7.834   2.750   8.715  0.7175  1.3694  0.0083
   99OSM   H18T 9924   7.740   2.650   8.834 -0.2981  1.0026  0.4150
   99OSM   H18U 9925   7.906   2.615   8.813 -2.4402 -1.5211 -0.5229
   99OSM    C1F 9926   7.196   2.670  10.361  0.6598  0.4133  0.6527
   99OSM     OF 9927   7.078   2.657  10.390  0.3167  0.1544  0.6107
   99OSM    C2F 9928   7.276   2.558  10.291  0.6042 -0.1821 -0.1366
   99OSM    H2F 9929   7.218   2.470  10.325 -1.3482  1.8855  2.2608
   99OSM    H2G 9930   7.379   2.544  10.330  0.5364  0.7914  0.4281
   99OSM    C3F 9931   7.284   2.578  10.145  0.5405 -0.0404 -0.1306
   99OSM    H3F 9932   7.326   2.677  10.118 -0.4060  0.1702 -0.9197
   99OSM    H3G 9933   7.351   2.505  10.095 -0.0112 -0.5359 -0.1602
   99OSM    C4F 9934   7.151   2.566  10.075  0.5210 -0.0418 -0.6491
   99OSM    H4F 9935   7.069   2.628  10.117  1.2604  1.6354 -1.6058
   99OSM    H4G 9936   7.137   2.456  10.084  0.8831  0.0697  1.7395
   99OSM    C5F 9937   7.151   2.598   9.932 -0.0418 -0.0775  0.3804
   99OSM    H5F 9938   7.184   2.704   9.923  0.2137 -0.2625 -1.2515
   99OSM    H5G 9939   7.045   2.604   9.902 -0.0969  2.1072  0.8845
   99OSM    C6F 9940   7.255   2.517   9.852  0.1223 -0.4618  0.0795
   99OSM    H6F 9941   7.244   2.410   9.882 -4.7531 -0.0642  0.5183
   99OSM    H6G 9942   7.358   2.558   9.864 -0.2775  0.8534 -0.7817
   99OSM    C7F 9943   7.218   2.541   9.706  0.7729 -0.3721 -0.3344
   99OSM    H7F 9944   7.223   2.650   9.683 -0.0849 -0.3879 -0.6315
   99OSM    H7G 9945   7.113   2.516   9.683  0.2670  0.4755  0.9305
   99OSM    C8F 9946   7.320   2.477   9.608  0.5052  0.0745 -0.1695
   99OSM    H8F 9947   7.333   2.370   9.634  0.7877  0.5344  1.7993
   99OSM    H8G 9948   7.419   2.529   9.612  0.2351  0.5695  0.2849
   99OSM    C9F 9949   7.278   2.505   9.476 -0.2484  0.0251  0.3488
   99OSM    H9F 9950   7.214   2.595   9.472 -2.0434 -1.1410  1.2516
   99OSM   C10F 9951   7.307   2.441   9.364  0.0806  0.1215  0.0456
   99OSM   H10F 9952   7.257   2.472   9.272  0.4883  2.0920  0.4306
   99OSM   C11F 9953   7.392   2.311   9.363  0.4093 -0.3677  0.4011
   99OSM   H11F 9954   7.330   2.232   9.315 -0.1707  0.3412 -0.0247
   99OSM   H11G 9955   7.420   2.273   9.464  1.9565 -0.4950 -0.0401
   99OSM   C12F 9956   7.527   2.346   9.293  0.7857 -0.1870  0.6610
   99OSM   H12F 9957   7.595   2.259   9.295 -0.0289 -0.9255 -1.1188
   99OSM   H12G 9958   7.557   2.437   9.349 -2.5395  0.3037  1.8718
   99OSM   C13F 9959   7.502   2.375   9.136  1.2815  1.0869  0.1949
   99OSM   H13F 9960   7.425   2.455   9.133  0.9581  0.7533 -0.9463
   99OSM   H13G 9961   7.460   2.275   9.109  0.9471  0.2185  3.4706
   99OSM   C14F 9962   7.630   2.410   9.063 -0.2572  0.2520 -1.1682
   99OSM   H14F 9963   7.662   2.510   9.099  0.3859  0.3503 -1.9697
   99OSM   H14G 9964   7.610   2.421   8.954  0.9146  0.5518 -1.3568
   99OSM   C15F 9965   7.738   2.297   9.040  0.1552 -0.1123  0.0196
   99OSM   H15F 9966   7.691   2.199   9.021 -0.0148  0.4691 -2.9765
   99OSM   H15G 9967   7.809   2.293   9.126  0.9886 -0.8684 -0.6849
   99OSM   C16F 9968   7.829   2.332   8.921  0.4352 -0.3453 -1.5386
   99OSM   H16F 9969   7.932   2.307   8.951  1.0788  1.7103 -1.8852
   99OSM   H16G 9970   7.834   2.438   8.890  2.3581  0.4854  1.2567
   99OSM   C17F 9971   7.801   2.253   8.788  0.0473 -0.7101 -0.6680
   99OSM   H17F 9972   7.722   2.312   8.737 -0.2844 -1.5125 -1.1047
   99OSM   H17G 9973   7.760   2.152   8.805  1.1166 -1.4502 -2.2301
   99OSM   C18F 9974   7.934   2.240   8.710  0.3358  0.1227  0.0584
   99OSM   H18F 9975   7.978   2.339   8.685  1.5623 -0.2783  0.5883
   99OSM   H18G 9976   7.920   2.184   8.615  1.4320 -0.6444  0.3388
   99OSM   H18H 9977   8.004   2.178   8.770 -0.5755 -1.2793 -0.2935
  100OSM      N 9978   3.013   1.381  10.981  0.2665 -0.7067 -0.5119
  100OSM    C15 9979   2.875   1.363  10.938 -0.6988  0.0911  0.1866
  100OSM   H15A 9980   2.815   1.352  11.027  1.3018 -2.0982  1.3668
  100OSM   H15B 9981   2.867   1.268  10.886  0.2938 -1.1744  2.2355
  100OSM   H15C 9982   2.842   1.448  10.880  0.1727  0.1221 -0.2877
  100OSM    C14 9983   3.043   1.258  11.056  0.0520 -0.1923  0.3550
  100OSM   H14A 9984   3.014   1.177  10.991 -1.7685  2.4473 -2.4016
  100OSM   H14B 9985   2.981   1.251  11.145 -0.1251 -1.1733  0.1713
  100OSM   H14C 9986   3.144   1.250  11.094  0.1652  1.2880  0.4131
  100OSM    C13 9987   3.098   1.382  10.859 -0.2690 -0.2509  0.2033
  100OSM   H13A 9988   3.202   1.386  10.890  0.2952 -0.1559 -1.5831
  100OSM   H13B 9989   3.092   1.475  10.806 -0.2423 -0.8538 -0.8875
  100OSM   H13C 9990   3.072   1.307  10.787 -0.0348  0.3683 -0.5388
  100OSM    C12 9991   3.026   1.506  11.066 -0.1229  0.2717 -0.1763
  100OSM   H12A 9992   3.131   1.518  11.090  0.5672  0.2037 -2.8552
  100OSM   H12B 9993   2.968   1.512  11.157  1.0358  0.9431  0.5621
  100OSM    C11 9994   2.992   1.637  10.990 -0.0948  0.0078 -0.4435
  100OSM   H11A 9995   3.024   1.717  11.060  1.2705  0.1026 -1.1429
  100OSM   H11B 9996   2.881   1.641  10.984 -0.0428  0.7463 -0.9865
  100OSM      P 9997   3.151   1.755  10.823  0.3324  0.2376 -0.0065
  100OSM    O13 9998   3.093   1.886  10.855 -0.9635  0.1627  0.1218
  100OSM    O14 9999   3.284   1.715  10.881  0.3217  0.1990  0.3044
  100OSM    O1110000   3.160   1.736  10.663 -0.1660 -0.4731 -0.1389
  100OSM    O1210001   3.036   1.650  10.853  0.1883  0.1738 -0.1150
  100OSM    C1S10002   3.205   1.613  10.601  0.4815  0.9091  0.0387
  100OSM    H1S10003   3.150   1.521  10.632  1.8283  0.9901  2.9704
  100OSM    H1T10004   3.313   1.599  10.618  0.1836  0.4375  1.7242
  100OSM     NF10005   3.182   1.481  10.391  0.5381  0.1873  0.2290
  100OSM    HNF10006   3.271   1.437  10.393 -0.1139 -1.1564  1.8092
  100OSM    C2S10007   3.184   1.616  10.444  0.3266 -0.0146  0.1796
  100OSM    H2S10008   3.084   1.660  10.426 -0.8933 -2.6125  0.2497
  100OSM    C3S10009   3.294   1.708  10.377 -0.1372 -0.2357 -0.2775
  100OSM    H3S10010   3.393   1.659  10.389 -0.3079 -1.1293 -2.0796
  100OSM     O310011   3.298   1.840  10.434  0.2163  0.6102 -0.1243
  100OSM    HO310012   3.225   1.831  10.497  0.1839 -1.7182 -0.4001
  100OSM    C4S10013   3.269   1.718  10.228  0.3313 -0.5330 -0.3753
  100OSM    H4S10014   3.160   1.711  10.209  0.2056  0.1038  0.0969
  100OSM    C5S10015   3.364   1.729  10.128  0.7184 -0.1960  0.3306
  100OSM    H5S10016   3.470   1.716  10.154  0.8744  0.3258 -0.0282
  100OSM    C6S10017   3.337   1.736   9.982 -0.5404  0.7828 -0.0025
  100OSM    H6S10018   3.400   1.660   9.931 -0.5932 -0.4017  1.6428
  100OSM    H6T10019   3.385   1.833   9.957 -0.1224  0.1220 -1.9690
  100OSM    C7S10020   3.196   1.726   9.923  0.0823  0.0496  0.0639
  100OSM    H7S10021   3.132   1.810   9.957 -0.3070 -1.5445  3.7728
  100OSM    H7T10022   3.147   1.633   9.960 -0.2394 -0.1986 -0.9564
  100OSM    C8S10023   3.185   1.723   9.778 -0.4701 -0.7333  0.3097
  100OSM    H8S10024   3.082   1.741   9.742  0.0495  0.3100 -0.6858
  100OSM    H8T10025   3.218   1.622   9.744 -0.9777 -0.2083 -1.8536
  100OSM    C9S10026   3.275   1.820   9.704  0.0552  0.0417  0.4036
  100OSM    H9S10027   3.381   1.788   9.705 -0.2164 -0.9105 -0.1053
  100OSM    H9T10028   3.258   1.927   9.727 -1.8910  0.0447 -0.8042
  100OSM   C10S10029   3.238   1.816   9.559  0.6466  0.1501 -0.5907
  100OSM   H10S10030   3.130   1.844   9.552 -0.2234 -2.9642 -1.3025
  100OSM   H10T10031   3.256   1.713   9.522  3.4295  0.2361  0.2832
  100OSM   C11S10032   3.317   1.910   9.466  0.4055 -0.3544  0.0446
  100OSM   H11S10033   3.423   1.879   9.476  0.0955 -0.7346  4.6497
  100OSM   H11T10034   3.312   2.015   9.503  3.0781 -0.3411  0.5558
  100OSM   C12S10035   3.256   1.903   9.325  0.2412 -0.4559 -0.0386
  100OSM   H12S10036   3.154   1.947   9.320 -0.5562 -2.1541  0.4750
  100OSM   H12T10037   3.236   1.796   9.306 -0.2825 -0.8125  2.2113
  100OSM   C13S10038   3.336   1.971   9.214 -0.8662 -0.4955  0.6221
  100OSM   H13S10039   3.429   1.909   9.203 -1.4830 -1.2617 -0.3916
  100OSM   H13T10040   3.371   2.067   9.258 -1.3906  0.2678 -0.5807
  100OSM   C14S10041   3.267   1.995   9.081 -0.1931  0.5243 -0.2426
  100OSM   H14S10042   3.182   2.060   9.108  0.0258  0.4273  0.7276
  100OSM   H14T10043   3.223   1.899   9.046 -0.1931  0.1849  0.6515
  100OSM   C15S10044   3.349   2.054   8.967 -0.3111  0.1600  0.6766
  100OSM   H15S10045   3.402   2.143   9.007  1.7266 -0.5435 -0.2922
  100OSM   H15T10046   3.295   2.101   8.882 -1.2766  0.9216  1.6856
  100OSM   C16S10047   3.445   1.940   8.912  0.2557 -0.2453  0.8084
  100OSM   H16S10048   3.389   1.846   8.892 -0.2895  0.3376 -0.4580
  100OSM   H16T10049   3.516   1.910   8.993 -0.1735 -1.2919  0.8108
  100OSM   C17S10050   3.506   1.985   8.784 -0.0741 -0.4171 -0.2097
  100OSM   H17S10051   3.579   2.068   8.798  1.4722 -1.3687 -2.0814
  100OSM   H17T10052   3.423   2.013   8.716 -0.7208 -2.1064 -0.1631
  100OSM   C18S10053   3.596   1.879   8.721  0.6755  0.0212  0.0712
  100OSM   H18S10054   3.599   1.898   8.611 -2.4149  0.2148 -0.0735
  100OSM   H18T10055   3.564   1.773   8.729 -3.9606  1.2849  0.9389
  100OSM   H18U10056   3.697   1.884   8.767  1.4037  1.9373 -1.5311
  100OSM    C1F10057   3.072   1.405  10.407 -0.1841  0.4177  0.0688
  100OSM     OF10058   2.972   1.444  10.464  0.1205  0.0987 -0.2433
  100OSM    C2F10059   3.086   1.257  10.389  0.1921  1.0997  0.3027
  100OSM    H2F10060   3.080   1.207  10.487  0.1604 -0.3795 -0.4303
  100OSM    H2G10061   3.184   1.230  10.346 -0.5161 -3.9116  1.2880
  100OSM    C3F10062   2.984   1.208  10.285  0.7708 -0.3522 -0.2611
  100OSM    H3F10063   2.987   1.269  10.192 -1.7583  1.5050  0.7554
  100OSM    H3G10064   2.881   1.221  10.326  1.5999  2.6447  1.1559
  100OSM    C4F10065   3.013   1.063  10.241 -0.1524 -0.3671 -0.6185
  100OSM    H4F10066   3.050   0.999  10.324  0.8804  0.9703 -0.0160
  100OSM    H4G10067   3.098   1.071  10.170  0.6678 -1.1481  0.2418
  100OSM    C5F10068   2.897   0.998  10.167  0.1558 -0.3440  0.5381
  100OSM    H5F10069   2.813   0.976  10.237 -0.3739  0.1728  0.0805
  100OSM    H5G10070   2.941   0.899  10.143  3.2882  1.4630 -2.1278
  100OSM    C6F10071   2.836   1.071  10.043 -0.1453  0.1537  0.4616
  100OSM    H6F10072   2.919   1.080   9.970  0.6282  1.3358  1.4546
  100OSM    H6G10073   2.808   1.171  10.083  2.0476  0.5454  1.1750
  100OSM    C7F10074   2.708   1.004   9.996  1.0348  0.3749  0.6161
  100OSM    H7F10075   2.629   1.016  10.074  1.6265 -0.4304  1.3612
  100OSM    H7G10076   2.723   0.896   9.977  0.6693 -0.0358  2.4171
  100OSM    C8F10077   2.654   1.062   9.864 -0.4695 -0.4631 -0.6894
  100OSM    H8F10078   2.742   1.080   9.798 -0.2442  0.9783 -0.0485
  100OSM    H8G10079   2.614   1.164   9.883 -0.8862 -0.7140 -0.2219
  100OSM    C9F10080   2.552   0.989   9.777  0.1611 -0.2670 -0.2618
  100OSM    H9F10081   2.542   0.881   9.792  0.1274 -0.2048  0.1857
  100OSM   C10F10082   2.494   1.050   9.679 -0.1136  0.4567  0.4429
  100OSM   H10F10083   2.415   0.996   9.626  0.9244 -2.9692  2.1028
  100OSM   C11F10084   2.504   1.197   9.638  0.1089 -0.7789  0.0737
  100OSM   H11F10085   2.604   1.232   9.671 -0.7129 -0.1753  2.0573
  100OSM   H11G10086   2.434   1.262   9.694  0.2357 -1.2312  0.7678
  100OSM   C12F10087   2.466   1.211   9.492 -0.1850 -0.0228 -0.0371
  100OSM   H12F10088   2.457   1.321   9.476  1.6941  0.1324 -0.2294
  100OSM   H12G10089   2.377   1.152   9.461 -0.3954  0.0294  0.4617
  100OSM   C13F10090   2.584   1.195   9.399  0.1768  0.1065 -0.1446
  100OSM   H13F10091   2.645   1.103   9.414 -0.4741 -0.9467 -3.2233
  100OSM   H13G10092   2.656   1.277   9.417 -0.7268  0.9259 -0.1963
  100OSM   C14F10093   2.554   1.189   9.250 -0.2296 -0.0724 -0.1142
  100OSM   H14F10094   2.643   1.194   9.183 -0.0105 -2.0009 -0.0226
  100OSM   H14G10095   2.484   1.271   9.225  0.6540 -0.1042 -3.0985
  100OSM   C15F10096   2.483   1.061   9.207 -0.0320  0.2979 -0.5917
  100OSM   H15F10097   2.389   1.046   9.264  0.7359  2.1583  1.3276
  100OSM   H15G10098   2.547   0.976   9.240 -1.7509 -0.5938  0.6191
  100OSM   C16F10099   2.461   1.055   9.053 -0.7091  0.0097 -0.7644
  100OSM   H16F10100   2.558   1.085   9.008  0.4741 -1.1304  0.9009
  100OSM   H16G10101   2.375   1.122   9.031 -1.2383  0.4793  2.2862
  100OSM   C17F10102   2.435   0.909   9.005  0.0840 -0.2236 -0.1498
  100OSM   H17F10103   2.331   0.889   9.041  0.9158 -1.5685  1.6606
  100OSM   H17G10104   2.498   0.839   9.063  0.2632 -0.6133 -0.8106
  100OSM   C18F10105   2.433   0.881   8.857 -0.8398  0.0921  0.5300
  100OSM   H18F10106   2.537   0.866   8.819 -0.5302 -1.3548  1.8354
  100OSM   H18G10107   2.379   0.955   8.794  2.0372  1.0564 -1.0367
  100OSM   H18H10108   2.390   0.779   8.856  0.7533 -0.6397 -1.3389
  101OSM      N10109   5.966   2.651  11.054  0.2517  0.8818 -0.4842
  101OSM    C1510110   6.045   2.671  11.177 -0.1039  0.9568 -1.6861
  101OSM   H15A10111   6.146   2.675  11.140  0.6257 -0.3337 -0.0242
  101OSM   H15B10112   6.037   2.590  11.248  0.7812  0.7413 -1.8141
  101OSM   H15C10113   6.015   2.766  11.217 -1.2785 -0.5326  1.3217
  101OSM    C1410114   5.821   2.632  11.089 -0.7838 -0.3897  0.0987
  101OSM   H14A10115   5.767   2.609  10.998 -1.2176 -1.3870  0.5982
  101OSM   H14B10116   5.772   2.721  11.128  0.6173 -0.1292  1.3260
  101OSM   H14C10117   5.810   2.544  11.149 -0.9437 -1.0959 -0.9337
  101OSM    C1310118   5.975   2.778  10.963 -0.0017  0.2348  0.1127
  101OSM   H13A10119   5.938   2.867  11.012 -0.4162 -1.0347  2.2766
  101OSM   H13B10120   5.937   2.763  10.863  0.7134 -0.0395 -0.1244
  101OSM   H13C10121   6.075   2.814  10.943 -0.5540  2.6110  1.2039
  101OSM    C1210122   6.014   2.531  10.976 -0.3001  0.3268 -0.1812
  101OSM   H12A10123   6.013   2.447  11.045 -2.0198  1.1610  0.8862
  101OSM   H12B10124   6.117   2.554  10.958  0.1391 -1.4670 -0.2098
  101OSM    C1110125   5.931   2.488  10.848 -0.0149 -0.3916  0.1122
  101OSM   H11A10126   5.988   2.428  10.774  1.7090 -1.5274  2.2110
  101OSM   H11B10127   5.894   2.580  10.799 -2.1107 -0.5052  1.3471
  101OSM      P10128   5.712   2.361  10.782 -0.3817 -0.0319  0.1239
  101OSM    O1310129   5.663   2.242  10.843 -0.3768  0.1358 -0.2512
  101OSM    O1410130   5.605   2.457  10.745  0.2494 -0.3672  0.1847
  101OSM    O1110131   5.810   2.336  10.656  0.6017 -0.1123 -0.0127
  101OSM    O1210132   5.806   2.427  10.885  0.6154 -0.5982 -0.1242
  101OSM    C1S10133   5.767   2.281  10.526  0.3295  0.0132 -0.4494
  101OSM    H1S10134   5.671   2.225  10.535  1.3537 -1.7542 -0.2220
  101OSM    H1T10135   5.839   2.200  10.503  0.3242 -0.5882  1.4452
  101OSM     NF10136   5.743   2.314  10.288  0.4414 -0.6286 -0.3571
  101OSM    HNF10137   5.815   2.267  10.238 -0.1000 -1.8154 -0.0541
  101OSM    C2S10138   5.788   2.379  10.410  0.4401  0.0166  0.0378
  101OSM    H2S10139   5.716   2.461  10.430 -0.1004 -0.8404  1.8139
  101OSM    C3S10140   5.928   2.449  10.407 -0.2609  0.7511 -0.7143
  101OSM    H3S10141   5.999   2.364  10.404  1.3266  1.9179  1.0614
  101OSM     O310142   5.965   2.539  10.509 -0.4444  0.1460  0.5642
  101OSM    HO310143   5.926   2.492  10.583 -2.8097  0.4120 -0.4272
  101OSM    C4S10144   5.948   2.524  10.279 -0.5444  0.7964  0.3517
  101OSM    H4S10145   5.888   2.616  10.269 -0.5188  0.6133 -2.1932
  101OSM    C5S10146   6.043   2.499  10.188  0.5242 -0.4218 -0.3808
  101OSM    H5S10147   6.116   2.420  10.212 -0.1987 -0.5313  1.6576
  101OSM    C6S10148   6.074   2.575  10.053 -0.4890  0.9627 -0.1244
  101OSM    H6S10149   5.997   2.565   9.973 -0.1147  1.6835 -0.5897
  101OSM    H6T10150   6.169   2.531  10.015 -1.2432 -0.9693  0.1136
  101OSM    C7S10151   6.101   2.724  10.051  0.9733 -0.0782  0.3428
  101OSM    H7S10152   6.191   2.744  10.112  1.4961 -3.5024  0.9084
  101OSM    H7T10153   6.009   2.773  10.089  0.8785 -0.4486  0.5976
  101OSM    C8S10154   6.121   2.775   9.909  0.2017  0.2952 -0.3368
  101OSM    H8S10155   6.127   2.886   9.914  0.6885  0.3826 -2.1949
  101OSM    H8T10156   6.049   2.757   9.827  2.1179 -0.3216 -1.9580
  101OSM    C9S10157   6.260   2.747   9.860  0.0404  0.4725 -0.5145
  101OSM    H9S10158   6.285   2.638   9.858 -2.3623 -0.1732  0.2114
  101OSM    H9T10159   6.334   2.797   9.926  0.5839  1.0140 -1.5145
  101OSM   C10S10160   6.292   2.792   9.720 -0.1746  0.8784  0.0212
  101OSM   H10S10161   6.400   2.772   9.705  0.5590  3.0029  1.9495
  101OSM   H10T10162   6.280   2.901   9.701 -1.6341  1.3263  3.0128
  101OSM   C11S10163   6.216   2.709   9.613 -0.0146 -0.1517  0.4942
  101OSM   H11S10164   6.113   2.748   9.604 -0.8666 -2.2532  0.4186
  101OSM   H11T10165   6.189   2.603   9.637  0.2543 -0.9610 -2.3909
  101OSM   C12S10166   6.299   2.704   9.477  0.1070 -0.6344  0.9200
  101OSM   H12S10167   6.240   2.637   9.410 -2.8493  0.2004  2.5006
  101OSM   H12T10168   6.393   2.648   9.495 -0.1702 -1.9519 -1.3497
  101OSM   C13S10169   6.323   2.842   9.418  0.1724 -0.2466  0.0030
  101OSM   H13S10170   6.406   2.877   9.483  1.6910 -0.8712 -1.5222
  101OSM   H13T10171   6.235   2.905   9.443 -0.4488 -0.3585 -1.7156
  101OSM   C14S10172   6.356   2.852   9.262  0.4934  0.2147 -0.8515
  101OSM   H14S10173   6.370   2.957   9.228 -1.3992  2.1510  3.5903
  101OSM   H14T10174   6.260   2.828   9.213  0.5146  0.4194 -0.9935
  101OSM   C15S10175   6.477   2.763   9.221  0.1062 -0.0075 -0.3105
  101OSM   H15S10176   6.452   2.655   9.231 -0.8479  0.4150  2.8875
  101OSM   H15T10177   6.559   2.784   9.293  0.9596 -0.3515 -1.1648
  101OSM   C16S10178   6.526   2.796   9.080 -0.2587  0.1944  0.7951
  101OSM   H16S10179   6.596   2.714   9.053  1.5070  1.7092  0.5883
  101OSM   H16T10180   6.584   2.889   9.064 -0.0909 -0.2241 -1.3151
  101OSM   C17S10181   6.411   2.794   8.979  0.9852  0.4949 -0.6970
  101OSM   H17S10182   6.338   2.877   8.988 -1.6756 -1.8292  0.8087
  101OSM   H17T10183   6.350   2.704   9.005 -1.4660  1.4480 -2.6726
  101OSM   C18S10184   6.460   2.777   8.832 -0.5290 -0.3169 -0.2735
  101OSM   H18S10185   6.534   2.696   8.815 -0.3526 -0.2469  0.1299
  101OSM   H18T10186   6.516   2.871   8.813 -1.8590  0.7307  0.8264
  101OSM   H18U10187   6.371   2.763   8.767 -0.7291  1.4712 -0.4194
  101OSM    C1F10188   5.613   2.284  10.261  0.9631 -0.1038 -0.8584
  101OSM     OF10189   5.522   2.296  10.347  0.4449  0.7278 -0.6726
  101OSM    C2F10190   5.588   2.221  10.127  0.5488  0.3450  0.1653
  101OSM    H2F10191   5.687   2.192  10.088  0.3097  1.2216 -1.1526
  101OSM    H2G10192   5.536   2.303  10.072 -0.5977 -0.5698 -0.1589
  101OSM    C3F10193   5.479   2.110  10.122 -0.1117  0.0307 -0.2721
  101OSM    H3F10194   5.383   2.158  10.152 -0.3554 -0.2735 -0.5512
  101OSM    H3G10195   5.506   2.021  10.183  1.1959 -0.2915 -1.2720
  101OSM    C4F10196   5.462   2.057   9.976  0.5604  0.1878  0.8281
  101OSM    H4F10197   5.373   1.989   9.981 -0.5040  1.5932  1.9899
  101OSM    H4G10198   5.547   1.994   9.943 -0.5255 -1.6466  1.3335
  101OSM    C5F10199   5.426   2.160   9.875  0.3129  0.3661  0.3592
  101OSM    H5F10200   5.523   2.181   9.827 -0.6325  0.5003 -1.5793
  101OSM    H5G10201   5.389   2.252   9.925 -1.4726 -0.0570 -0.1015
  101OSM    C6F10202   5.341   2.115   9.753  0.7562 -0.1776  0.2104
  101OSM    H6F10203   5.391   2.032   9.701  0.5130 -0.6700  0.7491
  101OSM    H6G10204   5.239   2.089   9.790  0.2188  0.1868 -0.9604
  101OSM    C7F10205   5.312   2.229   9.654  0.2588 -0.0202  0.9269
  101OSM    H7F10206   5.264   2.315   9.705 -1.2405 -0.6081  0.5562
  101OSM    H7G10207   5.231   2.198   9.585  1.1242 -0.4438  0.0836
  101OSM    C8F10208   5.421   2.281   9.565 -0.6247 -0.2359  0.3357
  101OSM    H8F10209   5.513   2.307   9.621 -0.1018 -0.1159 -0.5568
  101OSM    H8G10210   5.376   2.370   9.516  0.2513  0.5791  0.9845
  101OSM    C9F10211   5.463   2.164   9.472 -0.5172  0.5779 -0.5118
  101OSM    H9F10212   5.503   2.078   9.527 -3.0828 -0.6206 -0.4175
  101OSM   C10F10213   5.468   2.146   9.336  0.6966 -0.3666  0.1986
  101OSM   H10F10214   5.498   2.052   9.287 -0.0117 -0.6824  0.3588
  101OSM   C11F10215   5.410   2.235   9.231 -0.9583  0.6764 -0.7190
  101OSM   H11F10216   5.482   2.231   9.147 -1.4761  3.3377 -1.3668
  101OSM   H11G10217   5.402   2.341   9.264 -1.3571 -0.0484  1.7548
  101OSM   C12F10218   5.273   2.179   9.181  0.4738  0.6396 -0.5405
  101OSM   H12F10219   5.186   2.195   9.249  0.3931 -1.5598 -0.0760
  101OSM   H12G10220   5.281   2.068   9.180 -0.1462  0.5568  1.0835
  101OSM   C13F10221   5.238   2.211   9.033 -0.0209  0.5972  0.2132
  101OSM   H13F10222   5.252   2.317   9.004  1.4854  0.2324 -0.4847
  101OSM   H13G10223   5.129   2.197   9.013 -0.0479 -1.5518  1.5327
  101OSM   C14F10224   5.335   2.121   8.944 -0.4437 -0.1566 -0.2004
  101OSM   H14F10225   5.330   2.013   8.969  0.1600 -0.2185 -0.3302
  101OSM   H14G10226   5.435   2.167   8.934 -0.7648  0.4378 -0.7481
  101OSM   C15F10227   5.277   2.120   8.803  0.7132  0.2559  0.2002
  101OSM   H15F10228   5.166   2.116   8.804  0.7277 -0.1421  0.2609
  101OSM   H15G10229   5.307   2.037   8.735  1.2480 -0.6783  1.5463
  101OSM   C16F10230   5.305   2.249   8.718  0.2472  0.7707 -0.5146
  101OSM   H16F10231   5.416   2.249   8.713  0.3386  0.3180  1.1283
  101OSM   H16G10232   5.266   2.332   8.780 -2.3153 -0.3369 -0.5118
  101OSM   C17F10233   5.243   2.254   8.580  0.7436 -0.3187  0.3938
  101OSM   H17F10234   5.132   2.260   8.592  0.8905  1.2770  1.2219
  101OSM   H17G10235   5.271   2.157   8.534  2.2264  0.7779 -1.1261
  101OSM   C18F10236   5.308   2.367   8.495  0.3023 -0.7693  0.3457
  101OSM   H18F10237   5.269   2.363   8.391 -1.1468  0.1315  0.8296
  101OSM   H18G10238   5.418   2.357   8.495  0.5799  1.6877  1.3541
  101OSM   H18H10239   5.287   2.466   8.539 -1.8248 -0.8484 -0.3655
  102OSM      N10240   3.522   3.155  10.645 -0.5733  0.4046 -0.0204
  102OSM    C1510241   3.622   3.214  10.746  0.4884  0.4223  0.0770
  102OSM   H15A10242   3.612   3.321  10.744 -2.6292  0.2256 -0.2160
  102OSM   H15B10243   3.724   3.178  10.737 -0.0193 -1.8883  2.2176
  102OSM   H15C10244   3.601   3.195  10.851 -0.4666  1.0848  0.0170
  102OSM    C1410245   3.534   3.009  10.648  0.4110 -1.0430 -0.2048
  102OSM   H14A10246   3.481   2.974  10.736  0.3488  0.6125  0.4485
  102OSM   H14B10247   3.634   2.970  10.653  0.9588  0.4833  1.3546
  102OSM   H14C10248   3.491   2.967  10.558  1.5175 -0.8082 -0.8644
  102OSM    C1310249   3.380   3.192  10.683  0.6315  0.1704 -0.3698
  102OSM   H13A10250   3.350   3.294  10.660 -1.0053 -0.4078 -0.9571
  102OSM   H13B10251   3.365   3.179  10.789  0.0351 -2.4078 -0.7111
  102OSM   H13C10252   3.313   3.129  10.627 -3.9827  2.0944  2.3835
  102OSM    C1210253   3.544   3.212  10.506 -0.1525 -0.5227 -0.2528
  102OSM   H12A10254   3.477   3.159  10.440  0.3352  1.0550 -2.1134
  102OSM   H12B10255   3.645   3.189  10.476  0.2939  2.2398 -1.2013
  102OSM    C1110256   3.522   3.364  10.481  0.0188 -0.3264  0.0485
  102OSM   H11A10257   3.412   3.377  10.474 -0.0756 -1.3320 -0.5746
  102OSM   H11B10258   3.572   3.393  10.386 -2.7353  1.4084 -0.9930
  102OSM      P10259   3.581   3.598  10.562  0.3305  0.3090 -0.1227
  102OSM    O1310260   3.480   3.668  10.646  0.4743  0.3241 -0.0457
  102OSM    O1410261   3.724   3.634  10.581  0.0394 -0.2322 -0.3017
  102OSM    O1110262   3.535   3.619  10.414 -0.0035 -0.1082 -0.3681
  102OSM    O1210263   3.564   3.444  10.589 -0.1371 -0.3854  0.5530
  102OSM    C1S10264   3.538   3.761  10.366  0.4330  1.1884  0.5458
  102OSM    H1S10265   3.639   3.806  10.368  0.0452  2.0530  0.9338
  102OSM    H1T10266   3.469   3.824  10.426 -0.7120 -0.3398  0.8873
  102OSM     NF10267   3.450   3.911  10.212  0.0113  0.1653 -0.1660
  102OSM    HNF10268   3.353   3.933  10.220  0.3318  1.1901  1.4757
  102OSM    C2S10269   3.480   3.772  10.227 -0.0246  0.0015  0.2238
  102OSM    H2S10270   3.557   3.746  10.150 -0.1263  0.3288  0.0098
  102OSM    C3S10271   3.357   3.678  10.196  0.6892  0.1276 -0.5756
  102OSM    H3S10272   3.259   3.709  10.239 -0.2617 -1.4949 -1.4668
  102OSM     O310273   3.370   3.544  10.219 -0.2546  0.1920  0.6852
  102OSM    HO310274   3.460   3.543  10.253  0.4707  1.5067 -1.0760
  102OSM    C4S10275   3.319   3.686  10.052  0.4514 -0.7641  0.9614
  102OSM    H4S10276   3.408   3.683   9.988 -0.8800  3.9017 -1.5587
  102OSM    C5S10277   3.199   3.688   9.998  0.4492 -0.5490 -0.2459
  102OSM    H5S10278   3.112   3.676  10.064  1.3170  0.4923  1.1627
  102OSM    C6S10279   3.177   3.711   9.848  0.1773 -0.1345  0.2611
  102OSM    H6S10280   3.097   3.786   9.835  1.9837  1.7725 -0.3903
  102OSM    H6T10281   3.138   3.613   9.811  1.4435 -0.2068 -0.9815
  102OSM    C7S10282   3.298   3.762   9.757  0.8413 -0.3114 -1.1857
  102OSM    H7S10283   3.390   3.701   9.760  1.3594  0.4514  1.8084
  102OSM    H7T10284   3.343   3.858   9.790  0.3889  0.0657 -1.6505
  102OSM    C8S10285   3.257   3.779   9.611  0.2536 -0.1157 -0.0469
  102OSM    H8S10286   3.168   3.844   9.597 -0.9504 -1.2498  1.9687
  102OSM    H8T10287   3.212   3.681   9.586 -1.1952 -0.0272  1.9703
  102OSM    C9S10288   3.371   3.817   9.515 -0.3722  0.8682 -0.1605
  102OSM    H9S10289   3.452   3.742   9.515 -1.5125 -0.4062 -0.3924
  102OSM    H9T10290   3.406   3.917   9.549 -1.1965  1.4298 -0.9195
  102OSM   C10S10291   3.317   3.833   9.371  0.3388  0.6038  0.3517
  102OSM   H10S10292   3.237   3.909   9.381 -1.9839 -1.8553  2.0446
  102OSM   H10T10293   3.266   3.741   9.334 -0.0779  1.4243 -1.2029
  102OSM   C11S10294   3.429   3.884   9.280  0.7416  0.0288 -0.0657
  102OSM   H11S10295   3.503   3.801   9.273 -0.3232 -0.8596 -1.3866
  102OSM   H11T10296   3.486   3.959   9.338  4.1905 -2.0406 -0.4738
  102OSM   C12S10297   3.391   3.943   9.149  0.0378 -0.3548 -0.4646
  102OSM   H12S10298   3.482   3.981   9.098 -0.6460 -1.8870 -3.0503
  102OSM   H12T10299   3.322   4.026   9.174 -0.5281 -1.4440  1.7914
  102OSM   C13S10300   3.335   3.852   9.044  0.2972 -0.0300  0.3155
  102OSM   H13S10301   3.319   3.912   8.952 -1.7496 -2.3707 -0.9919
  102OSM   H13T10302   3.249   3.802   9.093  0.2472 -1.7433 -1.3927
  102OSM   C14S10303   3.444   3.749   8.995  0.6102  0.2331 -0.9632
  102OSM   H14S10304   3.438   3.666   9.069  0.1667  1.1082  0.0158
  102OSM   H14T10305   3.549   3.778   9.016  0.4487 -0.2785  0.7388
  102OSM   C15S10306   3.442   3.700   8.848 -0.4237 -0.0884 -0.0998
  102OSM   H15S10307   3.438   3.786   8.779 -0.4691  1.3186  1.6027
  102OSM   H15T10308   3.350   3.638   8.834 -0.9408  0.2529  1.5491
  102OSM   C16S10309   3.558   3.609   8.805  0.2340 -0.1485  0.5299
  102OSM   H16S10310   3.551   3.501   8.831  3.2919 -0.3493  0.9367
  102OSM   H16T10311   3.653   3.635   8.857  0.0979  0.2556  0.5836
  102OSM   C17S10312   3.588   3.604   8.652 -0.4899 -0.0749 -0.3518
  102OSM   H17S10313   3.689   3.560   8.636 -0.0258  1.2690 -1.2293
  102OSM   H17T10314   3.605   3.709   8.622  0.6248 -0.2891 -0.5142
  102OSM   C18S10315   3.480   3.541   8.561  0.1303 -0.1659  0.0090
  102OSM   H18S10316   3.502   3.546   8.452 -3.1117 -2.9343 -0.9760
  102OSM   H18T10317   3.383   3.593   8.581  1.1739  1.3320  1.4094
  102OSM   H18U10318   3.477   3.432   8.583 -1.5682 -0.1807 -0.1355
  102OSM    C1F10319   3.542   4.014  10.200  0.9635  0.0315  1.2840
  102OSM     OF10320   3.660   3.999  10.202 -0.0595  0.1399  0.0817
  102OSM    C2F10321   3.490   4.153  10.192  0.4692  0.4429  0.0681
  102OSM    H2F10322   3.549   4.218  10.260 -1.0237  0.4552  1.3914
  102OSM    H2G10323   3.389   4.160  10.237  1.2885  0.7082  1.9792
  102OSM    C3F10324   3.501   4.226  10.060  0.3023 -0.4743  0.5046
  102OSM    H3F10325   3.602   4.215  10.015  0.4718 -1.2842  1.0586
  102OSM    H3G10326   3.481   4.334  10.070 -0.0138 -0.5147  0.3133
  102OSM    C4F10327   3.402   4.187   9.955 -0.9527 -0.2261  0.3210
  102OSM    H4F10328   3.296   4.190   9.989 -1.3584 -0.0895 -0.9015
  102OSM    H4G10329   3.403   4.081   9.925 -0.9968  0.5200 -2.6165
  102OSM    C5F10330   3.407   4.271   9.828 -0.3866 -0.0141  0.5600
  102OSM    H5F10331   3.502   4.245   9.777  0.0830  1.3834  0.6936
  102OSM    H5G10332   3.406   4.382   9.838 -0.8984  0.1986 -1.2950
  102OSM    C6F10333   3.297   4.233   9.729  0.5057 -0.1632  0.6408
  102OSM    H6F10334   3.206   4.284   9.766  0.6232 -1.0209  2.2074
  102OSM    H6G10335   3.268   4.125   9.723  1.6630 -0.3953 -2.5561
  102OSM    C7F10336   3.339   4.266   9.581  0.4197  0.6391 -0.2858
  102OSM    H7F10337   3.431   4.205   9.567  1.2020  0.9721  2.7090
  102OSM    H7G10338   3.369   4.371   9.562  1.8360  0.2054 -0.6300
  102OSM    C8F10339   3.238   4.209   9.483  0.5673 -0.3482  0.1695
  102OSM    H8F10340   3.199   4.114   9.527 -4.2609  1.2612 -0.0853
  102OSM    H8G10341   3.280   4.172   9.387 -0.6598 -2.3965  0.3536
  102OSM    C9F10342   3.114   4.303   9.467 -0.5653  0.7315  0.3630
  102OSM    H9F10343   3.146   4.404   9.496  2.6791 -0.0482 -0.1568
  102OSM   C10F10344   2.995   4.275   9.423 -0.0125  0.1049  0.0296
  102OSM   H10F10345   2.908   4.341   9.409 -0.7017 -0.7570  0.1710
  102OSM   C11F10346   2.966   4.134   9.380  0.0729 -0.1067 -0.3357
  102OSM   H11F10347   2.857   4.124   9.394  0.2522 -0.6093  0.8073
  102OSM   H11G10348   3.018   4.063   9.448  1.7254  0.1524 -1.2728
  102OSM   C12F10349   2.988   4.094   9.232  0.0983 -0.3555  0.4093
  102OSM   H12F10350   2.979   3.984   9.227  2.2817 -0.5424 -1.1620
  102OSM   H12G10351   3.091   4.130   9.210  0.1400 -0.8986 -0.3154
  102OSM   C13F10352   2.887   4.152   9.135  0.7828 -0.4573  0.1170
  102OSM   H13F10353   2.892   4.263   9.138  1.3197 -0.4228 -1.1765
  102OSM   H13G10354   2.782   4.121   9.153  0.5121  0.1105 -0.4304
  102OSM   C14F10355   2.921   4.113   8.989  0.8384  0.3434 -0.5633
  102OSM   H14F10356   2.833   4.144   8.928  0.4234 -1.6430 -1.0607
  102OSM   H14G10357   2.923   4.002   8.989  0.9786  0.3373  0.5616
  102OSM   C15F10358   3.056   4.166   8.934  0.1694 -0.6698  0.3614
  102OSM   H15F10359   3.137   4.148   9.007  1.0900 -0.6147 -0.6316
  102OSM   H15G10360   3.036   4.272   8.906 -0.4980 -0.9318 -0.1836
  102OSM   C16F10361   3.107   4.084   8.818  0.2994  1.0108 -0.0636
  102OSM   H16F10362   3.126   3.982   8.859 -4.2679 -0.1598 -0.2150
  102OSM   H16G10363   3.190   4.130   8.761 -1.4419  3.1737 -1.0321
  102OSM   C17F10364   2.993   4.057   8.712  0.7062 -0.1294 -0.2338
  102OSM   H17F10365   2.946   4.153   8.682 -0.0501 -0.5603 -0.4551
  102OSM   H17G10366   2.908   3.998   8.755 -0.0449 -0.7955 -2.5161
  102OSM   C18F10367   3.036   3.970   8.591  0.7885 -0.6943 -0.2386
  102OSM   H18F10368   2.951   3.957   8.520  0.8510  3.3295 -1.2815
  102OSM   H18G10369   3.084   3.876   8.626  0.1329 -0.5118  1.2459
  102OSM   H18H10370   3.110   4.020   8.526 -0.4239 -1.0068 -1.9373
  103OSM      N10371   6.723   2.332  11.214 -0.0596 -0.6598 -0.0353
  103OSM    C1510372   6.713   2.183  11.218 -0.2036  0.3212  0.4003
  103OSM   H15A10373   6.810   2.138  11.234 -0.0239  0.4568 -0.2868
  103OSM   H15B10374   6.692   2.157  11.115  0.3561 -1.0379  0.6080
  103OSM   H15C10375   6.640   2.140  11.285 -2.0769  0.6172 -1.3637
  103OSM    C1410376   6.588   2.388  11.209 -0.6326  0.3761 -0.0380
  103OSM   H14A10377   6.598   2.495  11.216 -2.0730  0.5423 -0.3835
  103OSM   H14B10378   6.524   2.355  11.289 -0.3241 -3.1592 -1.0905
  103OSM   H14C10379   6.548   2.356  11.114 -2.0182  0.5353  0.4719
  103OSM    C1310380   6.792   2.375  11.341  1.0000  0.4381 -0.4096
  103OSM   H13A10381   6.886   2.322  11.343 -0.2619 -2.0988 -2.4662
  103OSM   H13B10382   6.745   2.342  11.432  0.8773 -0.8548 -0.9184
  103OSM   H13C10383   6.818   2.479  11.330  1.7774  0.0499 -3.1664
  103OSM    C1210384   6.800   2.376  11.089 -0.0276  0.1783 -0.6872
  103OSM   H12A10385   6.893   2.321  11.084  0.6847  1.2890  0.1014
  103OSM   H12B10386   6.820   2.479  11.115  0.7744  0.2072 -1.3777
  103OSM    C1110387   6.745   2.365  10.945  0.7509 -0.8018  0.4120
  103OSM   H11A10388   6.715   2.261  10.921 -0.4934 -0.3114 -0.2834
  103OSM   H11B10389   6.836   2.391  10.886  0.2737 -0.6451 -0.2619
  103OSM      P10390   6.662   2.614  10.921 -0.2411 -0.1847  0.2856
  103OSM    O1310391   6.553   2.686  10.994 -0.4459  0.7847 -0.9548
  103OSM    O1410392   6.802   2.652  10.959  0.3978 -0.2706  0.0480
  103OSM    O1110393   6.638   2.635  10.769  0.7750  0.3204 -0.1117
  103OSM    O1210394   6.637   2.455  10.930 -0.0446 -0.3183 -0.3756
  103OSM    C1S10395   6.717   2.570  10.668 -0.1678  0.4493  0.4738
  103OSM    H1S10396   6.694   2.462  10.652  0.1122  0.4507  0.0745
  103OSM    H1T10397   6.821   2.565  10.707 -0.3748 -0.6823  0.9162
  103OSM     NF10398   6.792   2.586  10.430  0.1770  0.0299  0.5587
  103OSM    HNF10399   6.881   2.629  10.415  0.0567 -0.1658 -0.8684
  103OSM    C2S10400   6.712   2.655  10.536 -0.2204 -0.1189 -0.2564
  103OSM    H2S10401   6.606   2.653  10.504  0.1116 -1.5062 -1.3831
  103OSM    C3S10402   6.748   2.804  10.555 -0.7564 -0.6006  0.0653
  103OSM    H3S10403   6.850   2.805  10.600 -0.2853  0.2365 -0.9666
  103OSM     O310404   6.663   2.873  10.642  0.6735  0.0554 -0.1956
  103OSM    HO310405   6.637   2.803  10.703  0.3910 -0.0025 -0.3840
  103OSM    C4S10406   6.755   2.868  10.425  0.2051 -0.4610 -0.7130
  103OSM    H4S10407   6.689   2.816  10.354 -4.2003  2.2163  1.0586
  103OSM    C5S10408   6.833   2.966  10.380 -0.1839 -0.6221 -0.3911
  103OSM    H5S10409   6.911   3.007  10.447  0.0537  3.0441 -2.6080
  103OSM    C6S10410   6.835   3.016  10.234  0.2459 -0.2267  0.6253
  103OSM    H6S10411   6.828   3.126  10.225  1.8947 -0.1499 -0.0556
  103OSM    H6T10412   6.753   2.982  10.166 -0.1016  0.4680  0.6913
  103OSM    C7S10413   6.977   2.994  10.165  0.7504  0.7156  0.0413
  103OSM    H7S10414   6.998   2.885  10.179 -1.1627 -0.1388 -2.8498
  103OSM    H7T10415   7.056   3.058  10.209  0.9045  0.0696  0.7377
  103OSM    C8S10416   6.971   3.017  10.014  0.4095 -0.0854  0.0789
  103OSM    H8S10417   6.944   3.121   9.987  1.2927  0.7348  2.1164
  103OSM    H8T10418   6.895   2.944   9.981 -0.3704  1.4111 -1.5739
  103OSM    C9S10419   7.103   2.981   9.942  0.4906  0.2224  0.1624
  103OSM    H9S10420   7.137   2.881   9.976  0.8701  0.7515  1.3907
  103OSM    H9T10421   7.184   3.052   9.970  0.6658  0.3960 -0.7668
  103OSM   C10S10422   7.101   2.993   9.794 -0.0188  0.2383  0.8219
  103OSM   H10S10423   7.196   2.969   9.743 -0.3129 -1.6993  1.1234
  103OSM   H10T10424   7.087   3.101   9.770  2.0772  0.9618  2.5357
  103OSM   C11S10425   6.989   2.910   9.729 -0.2327 -0.0979  0.9980
  103OSM   H11S10426   6.896   2.939   9.781 -1.0709  1.1799 -1.0638
  103OSM   H11T10427   6.997   2.799   9.734  1.6055 -0.0594  0.0618
  103OSM   C12S10428   6.978   2.934   9.579  0.4973  0.1395  0.5977
  103OSM   H12S10429   6.941   3.038   9.566 -0.5505 -0.2258  0.5474
  103OSM   H12T10430   6.891   2.877   9.541 -0.5753  2.2017 -0.2024
  103OSM   C13S10431   7.094   2.892   9.492 -0.2636  0.3454  0.0535
  103OSM   H13S10432   7.138   2.792   9.513 -2.0580 -1.0826 -2.4939
  103OSM   H13T10433   7.165   2.975   9.512 -0.2158  0.4065 -0.3643
  103OSM   C14S10434   7.061   2.889   9.345  0.0175  0.6322 -0.0999
  103OSM   H14S10435   6.998   2.976   9.316 -0.9125 -0.3247 -1.0248
  103OSM   H14T10436   7.000   2.798   9.327 -0.2912  0.8163  0.0010
  103OSM   C15S10437   7.189   2.900   9.259  0.2637  0.1644  0.0587
  103OSM   H15S10438   7.231   2.798   9.271  1.8995  0.7381 -0.6125
  103OSM   H15T10439   7.261   2.975   9.298  0.9337  0.1780 -1.1519
  103OSM   C16S10440   7.159   2.906   9.110  0.0360 -0.2550  0.1578
  103OSM   H16S10441   7.148   3.007   9.065 -0.0669 -0.1479  0.4245
  103OSM   H16T10442   7.060   2.859   9.090 -0.5946  0.3950  1.6474
  103OSM   C17S10443   7.270   2.822   9.042 -0.3102  0.3471 -0.6018
  103OSM   H17S10444   7.371   2.869   9.051 -0.1582 -0.1981  0.6362
  103OSM   H17T10445   7.250   2.821   8.932 -1.7336 -2.2140 -0.3781
  103OSM   C18S10446   7.274   2.670   9.071 -0.9403  0.5059  0.4051
  103OSM   H18S10447   7.340   2.644   9.157 -0.9406 -0.3268  0.1622
  103OSM   H18T10448   7.332   2.618   8.992 -0.7737  1.4561 -0.1125
  103OSM   H18U10449   7.174   2.625   9.087 -0.6841 -1.2427 -2.2834
  103OSM    C1F10450   6.757   2.469  10.376 -0.1525  0.5995  0.9569
  103OSM     OF10451   6.644   2.418  10.379 -0.2587 -0.0193  0.0138
  103OSM    C2F10452   6.873   2.394  10.313 -0.0736  0.4135 -0.0139
  103OSM    H2F10453   6.956   2.397  10.388  0.2487  2.0511 -0.3805
  103OSM    H2G10454   6.909   2.443  10.220  1.7906  0.9556  0.9296
  103OSM    C3F10455   6.840   2.248  10.275 -0.4864 -0.6266 -1.0395
  103OSM    H3F10456   6.765   2.255  10.193 -0.1290  0.2728 -1.3029
  103OSM    H3G10457   6.803   2.178  10.353  1.2287 -2.1497 -1.5111
  103OSM    C4F10458   6.956   2.173  10.202 -0.1059 -0.3801  0.4413
  103OSM    H4F10459   7.041   2.149  10.269 -0.8323  0.9054  1.8768
  103OSM    H4G10460   7.001   2.248  10.134 -1.9351  0.4027  0.0440
  103OSM    C5F10461   6.903   2.050  10.117 -0.0356  0.1562 -0.5389
  103OSM    H5F10462   6.842   1.975  10.172 -1.0089  0.9304 -0.5130
  103OSM    H5G10463   6.994   1.993  10.091 -0.9546 -1.2420 -0.8069
  103OSM    C6F10464   6.837   2.090   9.991 -0.1088  0.5051 -0.6263
  103OSM    H6F10465   6.897   2.168   9.938  0.2871  2.1966  2.1096
  103OSM    H6G10466   6.736   2.131  10.014  0.1439 -0.4083  2.5345
  103OSM    C7F10467   6.814   1.974   9.886 -0.1801  0.0367 -0.0020
  103OSM    H7F10468   6.755   1.896   9.939  1.0273 -1.5317 -0.8607
  103OSM    H7G10469   6.909   1.921   9.863 -1.0035 -2.4155  1.7369
  103OSM    C8F10470   6.749   2.021   9.761 -0.1354 -0.4344 -0.4111
  103OSM    H8F10471   6.816   2.098   9.717  1.2304 -0.5313  1.3649
  103OSM    H8G10472   6.648   2.059   9.787  0.2493 -0.1038  0.6550
  103OSM    C9F10473   6.742   1.908   9.669 -0.6776 -0.0656  0.0960
  103OSM    H9F10474   6.842   1.864   9.651 -0.2213 -0.0966  2.3586
  103OSM   C10F10475   6.642   1.862   9.600  0.6234 -0.6788 -0.6502
  103OSM   H10F10476   6.653   1.781   9.526 -1.8361 -1.8759  0.1804
  103OSM   C11F10477   6.503   1.919   9.605  0.1384  0.0949 -0.3028
  103OSM   H11F10478   6.486   2.009   9.543  1.9856  2.1658  2.0157
  103OSM   H11G10479   6.489   1.956   9.708 -0.2662 -0.9028  0.0128
  103OSM   C12F10480   6.390   1.817   9.577 -0.1179  0.0025  0.0849
  103OSM   H12F10481   6.296   1.862   9.615 -0.5631 -0.7977 -0.0259
  103OSM   H12G10482   6.409   1.722   9.632  1.5471  0.0327 -0.3771
  103OSM   C13F10483   6.372   1.803   9.425 -0.0980 -0.2888 -0.4453
  103OSM   H13F10484   6.451   1.750   9.368  2.3117  1.0566  1.4489
  103OSM   H13G10485   6.356   1.907   9.391 -0.5291  0.1604  1.0529
  103OSM   C14F10486   6.238   1.717   9.400  0.4505  0.2847 -0.3495
  103OSM   H14F10487   6.150   1.761   9.453  0.4504  1.1129 -1.0213
  103OSM   H14G10488   6.243   1.609   9.425 -2.5824 -0.7013 -3.2599
  103OSM   C15F10489   6.211   1.719   9.250  0.2505  0.1024  0.2022
  103OSM   H15F10490   6.295   1.684   9.187 -2.2717  0.8655 -3.9924
  103OSM   H15G10491   6.180   1.823   9.226 -0.5834 -0.5911 -2.0751
  103OSM   C16F10492   6.097   1.623   9.224  0.4153  0.4735 -0.3636
  103OSM   H16F10493   6.001   1.656   9.269  0.3763 -0.0592 -0.0470
  103OSM   H16G10494   6.117   1.521   9.264 -0.3655  0.0492 -1.0103
  103OSM   C17F10495   6.089   1.603   9.072  0.1508 -0.6150 -0.2633
  103OSM   H17F10496   6.190   1.564   9.047  0.4838 -2.8725  3.6839
  103OSM   H17G10497   6.075   1.704   9.027 -0.2559 -0.8439 -0.6527
  103OSM   C18F10498   5.984   1.509   9.020 -0.3610  0.0482 -0.2682
  103OSM   H18F10499   6.022   1.405   9.027  3.0228  1.2116  1.0406
  103OSM   H18G10500   5.958   1.512   8.912  1.0757  0.2795 -0.6256
  103OSM   H18H10501   5.887   1.506   9.074 -0.8140 -0.5453 -1.0902
  104OSM      N10502   3.315   0.071  10.996 -0.0629 -0.4000 -0.1821
  104OSM    C1510503   3.241  -0.032  11.065  0.0257  0.5438  0.0367
  104OSM   H15A10504   3.237  -0.017  11.172 -1.1833 -1.4833  0.3121
  104OSM   H15B10505   3.284  -0.128  11.042  0.4834  0.3732  1.5019
  104OSM   H15C10506   3.141  -0.020  11.025 -0.5954  2.0727  1.8978
  104OSM    C1410507   3.447   0.067  11.067 -0.0408  0.5877 -0.8350
  104OSM   H14A10508   3.494  -0.031  11.069  1.7715  1.4157  0.6296
  104OSM   H14B10509   3.433   0.096  11.170  0.0143  2.0963 -1.2328
  104OSM   H14C10510   3.517   0.141  11.030  1.2934 -0.5080 -0.6049
  104OSM    C1310511   3.327   0.027  10.854  0.0467 -0.0140  0.2713
  104OSM   H13A10512   3.371  -0.072  10.847 -0.0933 -0.1369  1.0109
  104OSM   H13B10513   3.390   0.088  10.791 -0.9423 -0.6922 -1.4534
  104OSM   H13C10514   3.234   0.014  10.800  1.0512 -0.8687 -1.3595
  104OSM    C1210515   3.241   0.205  11.010  0.2635 -0.8092 -0.4328
  104OSM   H12A10516   3.306   0.287  10.985  0.5958 -1.3298 -1.3468
  104OSM   H12B10517   3.219   0.223  11.114  2.9631  1.9514 -0.2142
  104OSM    C1110518   3.115   0.226  10.921 -0.4529  0.6761  0.8885
  104OSM   H11A10519   3.140   0.209  10.814 -2.2281  0.8875  0.4181
  104OSM   H11B10520   3.088   0.332  10.936 -0.0218  1.0609 -0.8312
  104OSM      P10521   2.856   0.183  10.936  0.0507  0.2226 -0.2027
  104OSM    O1310522   2.782   0.057  10.951  1.0741  0.9773  0.1564
  104OSM    O1410523   2.843   0.284  11.044 -0.2384 -0.0610  0.1563
  104OSM    O1110524   2.842   0.245  10.792  0.0371  0.8766 -0.4877
  104OSM    O1210525   3.008   0.130  10.939  0.4537  0.5266  0.1017
  104OSM    C1S10526   2.751   0.188  10.692  0.1217  0.0488  0.3355
  104OSM    H1S10527   2.662   0.144  10.742  0.3704 -1.1571 -0.2549
  104OSM    H1T10528   2.798   0.100  10.643  0.3274  0.6628 -0.5972
  104OSM     NF10529   2.607   0.256  10.501 -0.5441  0.3688  0.3010
  104OSM    HNF10530   2.632   0.235  10.406  1.0705 -0.5959  0.9059
  104OSM    C2S10531   2.720   0.289  10.578 -0.2434 -0.0697  0.0743
  104OSM    H2S10532   2.695   0.385  10.629 -2.9317  0.0091 -1.2133
  104OSM    C3S10533   2.848   0.314  10.498 -0.5727 -0.3582 -0.8480
  104OSM    H3S10534   2.878   0.213  10.461 -1.3625 -0.2421 -1.8325
  104OSM     O310535   2.945   0.371  10.579 -0.3907  0.2702 -0.2097
  104OSM    HO310536   2.919   0.335  10.664  0.0881 -0.3205 -0.3074
  104OSM    C4S10537   2.825   0.398  10.380  0.4243  0.2488 -0.0048
  104OSM    H4S10538   2.809   0.503  10.410  1.2526  0.1401  0.8641
  104OSM    C5S10539   2.833   0.363  10.248 -0.3330 -0.5051 -0.3026
  104OSM    H5S10540   2.855   0.256  10.231  0.4946 -0.6343  1.4033
  104OSM    C6S10541   2.807   0.434  10.120 -0.4410  0.3275  0.1169
  104OSM    H6S10542   2.881   0.414  10.040 -0.7166  1.3573 -0.4168
  104OSM    H6T10543   2.803   0.545  10.127  0.2680  0.4095 -0.5296
  104OSM    C7S10544   2.667   0.392  10.075 -0.0022 -0.1137  0.1810
  104OSM    H7S10545   2.602   0.408  10.163 -0.7994  1.9364 -0.7195
  104OSM    H7T10546   2.664   0.284  10.049 -1.3769  0.3861 -1.8779
  104OSM    C8S10547   2.617   0.475   9.953 -0.6415  0.2768 -0.1954
  104OSM    H8S10548   2.685   0.461   9.867 -0.0155 -2.1190  0.6209
  104OSM    H8T10549   2.619   0.577   9.998 -0.7665 -0.0053  0.4724
  104OSM    C9S10550   2.475   0.437   9.914  0.0333  0.0101 -0.2847
  104OSM    H9S10551   2.409   0.453  10.002 -0.7274 -2.8702 -0.2526
  104OSM    H9T10552   2.490   0.332   9.880  1.5110  0.3017 -0.5959
  104OSM   C10S10553   2.422   0.517   9.794  0.9753 -0.5879 -0.1356
  104OSM   H10S10554   2.419   0.627   9.809  0.8805 -0.8726  2.2833
  104OSM   H10T10555   2.321   0.479   9.769  0.8725  0.0701 -0.7609
  104OSM   C11S10556   2.511   0.489   9.671 -0.2119  0.1739  1.0442
  104OSM   H11S10557   2.517   0.378   9.662 -3.3868 -0.0422  0.6377
  104OSM   H11T10558   2.609   0.541   9.678  0.9095 -0.5489 -4.6529
  104OSM   C12S10559   2.443   0.529   9.542  0.1763 -0.0558 -0.1926
  104OSM   H12S10560   2.426   0.639   9.538  0.3471  0.0064  0.5606
  104OSM   H12T10561   2.339   0.491   9.542 -0.9505  2.7536  0.4850
  104OSM   C13S10562   2.516   0.481   9.421  0.0863 -0.5443  0.4265
  104OSM   H13S10563   2.526   0.370   9.425 -1.2180 -0.6974 -0.1262
  104OSM   H13T10564   2.618   0.526   9.416 -0.7225  1.3039 -0.2248
  104OSM   C14S10565   2.445   0.511   9.286  0.1892  0.1369  0.5048
  104OSM   H14S10566   2.454   0.621   9.269  2.0718 -0.3167 -2.1168
  104OSM   H14T10567   2.342   0.472   9.292  0.0596  0.3369 -0.2533
  104OSM   C15S10568   2.526   0.455   9.164  0.8575 -0.4804 -1.2546
  104OSM   H15S10569   2.510   0.346   9.149  0.2914 -0.7275  0.8628
  104OSM   H15T10570   2.634   0.468   9.188  0.5510 -1.3878  0.7957
  104OSM   C16S10571   2.514   0.528   9.034  0.1792 -0.3568 -0.0220
  104OSM   H16S10572   2.546   0.634   9.032 -1.0165  0.0293  0.3959
  104OSM   H16T10573   2.407   0.525   9.003  0.1607 -0.3667  0.0440
  104OSM   C17S10574   2.584   0.454   8.907 -0.6113 -0.1972  0.2064
  104OSM   H17S10575   2.559   0.348   8.929  0.9655 -0.2075  2.3740
  104OSM   H17T10576   2.695   0.453   8.918 -0.4610 -3.0898 -0.8525
  104OSM   C18S10577   2.538   0.522   8.778  0.5223 -0.6301  0.3681
  104OSM   H18S10578   2.568   0.465   8.687  0.7676 -2.5365  1.5829
  104OSM   H18T10579   2.573   0.627   8.769  2.7545 -1.3631 -0.2819
  104OSM   H18U10580   2.427   0.526   8.777  0.5526  2.8393 -1.0666
  104OSM    C1F10581   2.483   0.240  10.545  0.4658  0.0295 -0.1161
  104OSM     OF10582   2.452   0.278  10.657  0.2159 -1.2134  0.2669
  104OSM    C2F10583   2.395   0.168  10.449  0.1784  0.3304 -0.0816
  104OSM    H2F10584   2.393   0.062  10.483 -0.7248 -0.0638 -1.2657
  104OSM    H2G10585   2.440   0.183  10.348  0.1968  3.0904  0.2683
  104OSM    C3F10586   2.258   0.228  10.452  0.2500 -0.3629  0.5590
  104OSM    H3F10587   2.252   0.338  10.435  0.7263  0.2238  3.5742
  104OSM    H3G10588   2.210   0.211  10.551  0.3293 -0.1932  0.6278
  104OSM    C4F10589   2.160   0.174  10.348  0.3514  0.3291 -0.1584
  104OSM    H4F10590   2.072   0.121  10.389 -0.7872  0.3441 -2.3964
  104OSM    H4G10591   2.228   0.106  10.291  4.0604  2.8258  0.9260
  104OSM    C5F10592   2.115   0.279  10.251 -0.5030  0.6976 -0.6867
  104OSM    H5F10593   2.206   0.310  10.195 -0.6691  1.6134 -0.4694
  104OSM    H5G10594   2.075   0.367  10.307  1.0453  0.1245  1.4650
  104OSM    C6F10595   2.020   0.232  10.151 -0.2112 -0.4123 -0.0671
  104OSM    H6F10596   1.920   0.215  10.196  0.2165 -1.0945  0.6393
  104OSM    H6G10597   2.053   0.133  10.114  2.2719 -0.5542  2.2202
  104OSM    C7F10598   1.994   0.336  10.033 -0.4429 -0.1014 -0.1853
  104OSM    H7F10599   1.987   0.438  10.077 -0.5255 -0.0560 -0.3045
  104OSM    H7G10600   1.901   0.301   9.983  0.9112 -1.0397 -2.1748
  104OSM    C8F10601   2.109   0.343   9.920 -0.6391 -0.1134 -0.0452
  104OSM    H8F10602   2.203   0.384   9.963  0.5068 -2.7390  0.1493
  104OSM    H8G10603   2.065   0.417   9.850 -0.8281  0.9790  1.1854
  104OSM    C9F10604   2.132   0.209   9.863 -0.5841 -0.2103 -0.3958
  104OSM    H9F10605   2.184   0.134   9.925 -1.3673 -0.3970  0.0389
  104OSM   C10F10606   2.078   0.168   9.745  0.0274 -0.1623  0.3670
  104OSM   H10F10607   2.085   0.062   9.716 -1.6047 -0.2333  0.1412
  104OSM   C11F10608   1.977   0.233   9.651  0.3781  0.0319  0.0157
  104OSM   H11F10609   1.931   0.324   9.695  2.1069  2.0184 -2.0272
  104OSM   H11G10610   1.898   0.158   9.626  1.3581 -0.4547 -1.7870
  104OSM   C12F10611   2.048   0.293   9.531 -0.3584  0.0328  0.1939
  104OSM   H12F10612   2.141   0.339   9.572 -0.7453 -0.0390  1.1978
  104OSM   H12G10613   1.982   0.374   9.493 -0.7806  0.6461  2.0798
  104OSM   C13F10614   2.065   0.192   9.419 -0.1363  0.0546 -0.0536
  104OSM   H13F10615   1.980   0.123   9.403  1.0695 -1.8977  1.4973
  104OSM   H13G10616   2.158   0.136   9.443  2.3903  3.5936 -0.7370
  104OSM   C14F10617   2.089   0.266   9.284  0.4164  0.2468 -0.6839
  104OSM   H14F10618   2.171   0.340   9.297  1.9019 -1.4590  0.1777
  104OSM   H14G10619   2.001   0.330   9.262 -0.3479 -0.4096  0.3843
  104OSM   C15F10620   2.116   0.172   9.164  0.1803 -0.0494 -0.7175
  104OSM   H15F10621   2.041   0.091   9.170  0.9591 -0.6649  2.3564
  104OSM   H15G10622   2.215   0.124   9.182  0.3759  0.8500  0.7558
  104OSM   C16F10623   2.106   0.249   9.028  0.4599  0.0028 -0.1035
  104OSM   H16F10624   2.201   0.306   9.028  1.3666 -1.4312  0.2540
  104OSM   H16G10625   2.018   0.316   9.037  0.9551  0.4076  2.3216
  104OSM   C17F10626   2.093   0.161   8.911  0.0380 -0.2893 -0.2050
  104OSM   H17F10627   2.015   0.083   8.922  2.8256 -3.6418 -2.1264
  104OSM   H17G10628   2.187   0.103   8.904 -0.7510 -1.5997 -0.1318
  104OSM   C18F10629   2.046   0.230   8.777 -0.4087 -0.3928 -0.2706
  104OSM   H18F10630   2.131   0.295   8.746  0.4440 -0.2165  2.2103
  104OSM   H18G10631   1.951   0.284   8.798  0.2504  0.3417  0.9656
  104OSM   H18H10632   2.024   0.147   8.707 -1.3320  0.0774 -0.5451
  105OSM      N10633   5.049   3.945  10.846  0.1925  0.2692 -0.0835
  105OSM    C1510634   4.997   3.815  10.799  0.5262 -0.4196 -0.2064
  105OSM   H15A10635   4.938   3.836  10.711  1.4240 -2.4785 -1.3738
  105OSM   H15B10636   4.937   3.759  10.869  2.4045  0.6939  2.4727
  105OSM   H15C10637   5.083   3.756  10.771  0.6930 -0.3648  0.1875
  105OSM    C1410638   5.169   3.923  10.937  0.4401  0.2661 -0.0057
  105OSM   H14A10639   5.256   3.897  10.879 -1.3871  0.1029 -2.8638
  105OSM   H14B10640   5.161   3.835  11.000  1.8623 -1.7975 -2.4954
  105OSM   H14C10641   5.206   4.003  10.999 -0.2084  0.6261 -0.0743
  105OSM    C1310642   5.101   4.019  10.726  0.3680  0.2422 -0.2359
  105OSM   H13A10643   5.125   4.119  10.759  0.5328  0.6431 -1.4930
  105OSM   H13B10644   5.026   4.019  10.648 -0.6399 -1.5294  0.6891
  105OSM   H13C10645   5.190   3.986  10.675 -0.3222 -0.1512 -1.2035
  105OSM    C1210646   4.944   4.029  10.911 -0.2182 -0.3314  0.9417
  105OSM   H12A10647   4.896   3.969  10.986 -0.5401 -1.3908 -0.0868
  105OSM   H12B10648   4.866   4.062  10.844  0.8532 -1.2876 -0.8324
  105OSM    C1110649   4.995   4.151  10.993  0.2978  0.1054  0.8703
  105OSM   H11A10650   5.055   4.105  11.075 -0.7232 -1.2541  0.9021
  105OSM   H11B10651   4.907   4.192  11.046  1.0010  0.1477  2.0456
  105OSM      P10652   5.172   4.336  10.955 -0.2689 -0.0749  0.3902
  105OSM    O1310653   5.123   4.453  11.035  0.5268 -0.2378  0.2152
  105OSM    O1410654   5.271   4.249  11.027 -0.3807  0.6664 -0.1858
  105OSM    O1110655   5.232   4.385  10.819  0.3997  0.2815 -0.1535
  105OSM    O1210656   5.055   4.251  10.904 -0.0553 -0.3678 -0.7813
  105OSM    C1S10657   5.159   4.413  10.698 -0.7280  0.2332  0.8407
  105OSM    H1S10658   5.126   4.519  10.697  0.5359  0.6400  1.1300
  105OSM    H1T10659   5.072   4.344  10.692  1.0716 -2.0527 -1.5735
  105OSM     NF10660   5.178   4.472  10.460 -0.2340  0.4953 -0.2950
  105OSM    HNF10661   5.126   4.417  10.395 -0.0116  0.6912 -0.6419
  105OSM    C2S10662   5.246   4.404  10.567 -0.0104  0.1655 -0.0604
  105OSM    H2S10663   5.334   4.470  10.578 -1.3286  1.9226  0.4067
  105OSM    C3S10664   5.295   4.260  10.525  0.3924 -0.9932  0.3420
  105OSM    H3S10665   5.195   4.214  10.506 -0.2954  0.7171 -0.3663
  105OSM     O310666   5.361   4.183  10.627  0.7375  0.3529  0.1562
  105OSM    HO310667   5.335   4.229  10.707 -1.4169  1.6894 -1.2126
  105OSM    C4S10668   5.379   4.265  10.396 -0.3465  0.2621 -0.0930
  105OSM    H4S10669   5.320   4.256  10.304 -2.8288 -0.1360  1.4080
  105OSM    C5S10670   5.514   4.291  10.388  0.0079  0.1698 -0.3016
  105OSM    H5S10671   5.571   4.316  10.479  0.4920  0.1296 -0.5876
  105OSM    C6S10672   5.593   4.295  10.259  0.4690  0.8909 -0.3619
  105OSM    H6S10673   5.678   4.224  10.263 -0.4114 -0.3247 -2.1494
  105OSM    H6T10674   5.625   4.399  10.235  0.7843  1.9120  3.6765
  105OSM    C7S10675   5.513   4.232  10.141  0.3117  0.6529 -0.6361
  105OSM    H7S10676   5.438   4.300  10.095 -3.3832 -3.3859 -1.2474
  105OSM    H7T10677   5.463   4.136  10.167  1.9347  0.1245  0.7166
  105OSM    C8S10678   5.607   4.199  10.019  0.5732 -1.2134 -0.1555
  105OSM    H8S10679   5.663   4.106  10.043 -0.0838 -2.1421 -2.0123
  105OSM    H8T10680   5.669   4.290  10.006  0.7159 -1.5052 -1.7567
  105OSM    C9S10681   5.524   4.159   9.892 -0.2713  0.0698 -0.4976
  105OSM    H9S10682   5.445   4.237   9.884  0.0301  0.2923 -1.4942
  105OSM    H9T10683   5.480   4.058   9.909  0.8860 -0.0114  2.7200
  105OSM   C10S10684   5.616   4.173   9.767 -0.2653 -0.5953 -0.1520
  105OSM   H10S10685   5.699   4.101   9.773  2.0157  1.8216 -0.8802
  105OSM   H10T10686   5.661   4.275   9.769  1.2297 -1.2408  1.7825
  105OSM   C11S10687   5.541   4.159   9.634 -0.3576  0.2777  0.2677
  105OSM   H11S10688   5.467   4.241   9.624 -0.1397  0.3633 -0.6896
  105OSM   H11T10689   5.480   4.068   9.645 -0.2764  0.3685  1.7775
  105OSM   C12S10690   5.627   4.161   9.507 -0.0817  0.2138  0.9532
  105OSM   H12S10691   5.703   4.080   9.505 -0.6272 -0.2930  0.3824
  105OSM   H12T10692   5.677   4.260   9.498 -1.2897  0.8514  1.1048
  105OSM   C13S10693   5.533   4.139   9.384 -0.7283 -0.5756  0.1504
  105OSM   H13S10694   5.456   4.219   9.390  0.5210  0.7115 -0.6550
  105OSM   H13T10695   5.492   4.036   9.399 -1.0671 -0.6719 -1.2529
  105OSM   C14S10696   5.606   4.139   9.253 -0.2954 -0.6009  0.2023
  105OSM   H14S10697   5.690   4.066   9.253  1.2108  1.0186 -2.3793
  105OSM   H14T10698   5.665   4.232   9.270  0.8767 -1.4574  1.0492
  105OSM   C15S10699   5.529   4.108   9.121 -0.8519 -0.6364  0.4600
  105OSM   H15S10700   5.438   4.172   9.114 -0.1605  0.3238  0.2008
  105OSM   H15T10701   5.491   4.003   9.119  1.0314 -1.3396 -1.1238
  105OSM   C16S10702   5.608   4.152   8.992 -0.4263  1.1977 -0.0911
  105OSM   H16S10703   5.705   4.099   9.002 -0.9487  0.4352  0.9959
  105OSM   H16T10704   5.626   4.261   9.006  1.9625  1.2743 -2.7603
  105OSM   C17S10705   5.545   4.124   8.855 -0.1451 -0.2322 -0.4666
  105OSM   H17S10706   5.535   4.014   8.846 -1.0009 -0.5920  3.3897
  105OSM   H17T10707   5.618   4.158   8.778 -0.1344  1.3966  0.2218
  105OSM   C18S10708   5.420   4.209   8.838  0.3430 -0.1900  0.1066
  105OSM   H18S10709   5.351   4.168   8.915  1.7648 -0.5848  1.2070
  105OSM   H18T10710   5.381   4.204   8.735  0.6271 -2.8075  0.0700
  105OSM   H18U10711   5.448   4.313   8.865  1.4775 -0.7619  1.2242
  105OSM    C1F10712   5.160   4.607  10.454 -0.0696 -0.4816 -0.2752
  105OSM     OF10713   5.227   4.685  10.526 -0.6680 -0.8109  0.5203
  105OSM    C2F10714   5.052   4.657  10.351  0.7121  0.1449  0.8021
  105OSM    H2F10715   5.017   4.757  10.384  0.2530  0.4335 -0.4719
  105OSM    H2G10716   4.964   4.589  10.355 -0.5075  1.7101  2.0341
  105OSM    C3F10717   5.094   4.663  10.202 -0.2737  0.3435  0.0857
  105OSM    H3F10718   5.123   4.561  10.169 -1.0635  0.8847 -2.5245
  105OSM    H3G10719   5.180   4.730  10.185  0.7051 -0.7439  0.5966
  105OSM    C4F10720   4.975   4.708  10.115  0.1546 -0.5210  0.0044
  105OSM    H4F10721   4.962   4.818  10.123  1.7007 -0.4045  1.9935
  105OSM    H4G10722   4.884   4.675  10.170  0.5110  0.3862  1.1826
  105OSM    C5F10723   4.982   4.662   9.975 -0.2191 -0.6021  0.2720
  105OSM    H5F10724   4.872   4.652   9.960 -0.3943 -1.5052  1.9072
  105OSM    H5G10725   5.010   4.557   9.953  0.0657 -0.0210 -2.4921
  105OSM    C6F10726   5.031   4.765   9.870  0.1507 -0.5299 -0.2241
  105OSM    H6F10727   5.140   4.754   9.851  0.4428  1.9575 -0.3025
  105OSM    H6G10728   5.014   4.867   9.912  0.1954 -0.4196 -0.4703
  105OSM    C7F10729   4.976   4.745   9.727 -0.1885 -0.4802 -0.3004
  105OSM    H7F10730   4.866   4.743   9.742  0.0969 -1.3997  2.0211
  105OSM    H7G10731   5.009   4.655   9.669 -0.0876 -0.0434 -0.9319
  105OSM    C8F10732   4.985   4.869   9.634  0.4040 -0.7737  0.3891
  105OSM    H8F10733   4.925   4.944   9.690  0.6921  2.3292 -3.0808
  105OSM    H8G10734   4.934   4.839   9.541  1.5571 -1.4028 -0.0621
  105OSM    C9F10735   5.128   4.916   9.619  0.2245  0.3962  0.3312
  105OSM    H9F10736   5.175   4.935   9.717  1.1889 -0.3802  0.0345
  105OSM   C10F10737   5.184   4.971   9.509 -0.0116 -0.7357 -0.7983
  105OSM   H10F10738   5.293   4.977   9.517 -0.0749 -0.8350  0.3186
  105OSM   C11F10739   5.110   4.995   9.383  0.4057  0.8426  0.0087
  105OSM   H11F10740   5.134   5.092   9.333  0.9241  1.1100  0.7712
  105OSM   H11G10741   5.004   5.016   9.410  0.8674  3.9505 -0.2072
  105OSM   C12F10742   5.125   4.885   9.275 -0.2608 -0.0915 -0.0397
  105OSM   H12F10743   5.049   4.806   9.288 -0.9377  0.1339 -2.2510
  105OSM   H12G10744   5.225   4.837   9.282  0.1866  0.7851 -0.2344
  105OSM   C13F10745   5.092   4.926   9.131  0.5767 -0.4216 -0.3100
  105OSM   H13F10746   5.035   5.022   9.131 -1.8992 -1.7424 -3.0695
  105OSM   H13G10747   5.018   4.854   9.089  0.3490  0.2415 -1.0736
  105OSM   C14F10748   5.219   4.942   9.042  0.0207  1.1481 -0.4347
  105OSM   H14F10749   5.277   4.848   9.030 -1.8515 -0.1246 -0.0328
  105OSM   H14G10750   5.285   5.014   9.095 -0.2408  0.3143  1.0759
  105OSM   C15F10751   5.185   4.992   8.897 -0.3740 -0.0971 -0.0173
  105OSM   H15F10752   5.102   5.067   8.901 -1.0236 -0.8286  0.5073
  105OSM   H15G10753   5.143   4.903   8.846  1.3997 -0.1818 -1.4046
  105OSM   C16F10754   5.301   5.038   8.802  0.0219 -0.3798  0.2203
  105OSM   H16F10755   5.394   4.977   8.799  0.6172  0.4850  0.7302
  105OSM   H16G10756   5.329   5.141   8.832  2.3851 -0.4528 -1.4560
  105OSM   C17F10757   5.246   5.042   8.661  0.1682  0.3546 -0.6823
  105OSM   H17F10758   5.164   5.118   8.654  0.8494  1.1995  0.1751
  105OSM   H17G10759   5.219   4.938   8.634 -1.2048 -0.6329  3.6950
  105OSM   C18F10760   5.347   5.091   8.556 -0.6085 -0.3451 -0.1139
  105OSM   H18F10761   5.443   5.035   8.553 -0.8954 -0.8189 -0.5072
  105OSM   H18G10762   5.362   5.200   8.575  0.0131 -0.4922  0.2658
  105OSM   H18H10763   5.312   5.072   8.453  1.8469 -0.1559 -1.0452
  106OSM      N10764   4.357   2.510  11.097 -0.0124 -0.1767 -0.1641
  106OSM    C1510765   4.332   2.660  11.083 -0.1154  0.0664 -0.2998
  106OSM   H15A10766   4.328   2.687  10.979 -0.3453  1.6491  0.1046
  106OSM   H15B10767   4.410   2.721  11.127 -2.1945  1.2922  1.9201
  106OSM   H15C10768   4.230   2.681  11.110  0.0970  1.8914 -0.8010
  106OSM    C1410769   4.482   2.498  11.020 -0.4123 -0.0424 -0.1940
  106OSM   H14A10770   4.565   2.558  11.054 -0.4048 -1.3206  2.2990
  106OSM   H14B10771   4.464   2.520  10.916  2.7530  0.5490 -0.7255
  106OSM   H14C10772   4.503   2.392  11.018 -2.8544 -0.5801 -0.0814
  106OSM    C1310773   4.380   2.471  11.238 -0.9190  0.2042 -0.3816
  106OSM   H13A10774   4.475   2.515  11.264 -0.7383 -0.5532  0.3054
  106OSM   H13B10775   4.391   2.364  11.250 -0.6208  0.2067 -0.6276
  106OSM   H13C10776   4.300   2.508  11.300  1.3082  1.7623  1.7737
  106OSM    C1210777   4.244   2.424  11.030  0.5387 -0.0079  0.1754
  106OSM   H12A10778   4.259   2.318  11.033  0.0036 -0.1306 -1.0349
  106OSM   H12B10779   4.245   2.465  10.930 -2.7280  1.6441  0.6644
  106OSM    C1110780   4.098   2.451  11.067  0.1878 -1.3784  0.1076
  106OSM   H11A10781   4.090   2.443  11.178 -1.3649  2.2584  0.4036
  106OSM   H11B10782   4.043   2.370  11.014  0.0998 -0.2805 -1.5349
  106OSM      P10783   4.030   2.600  10.871 -0.2087  0.3610  0.5120
  106OSM    O1310784   3.975   2.737  10.854 -0.4367  0.3798  0.2064
  106OSM    O1410785   4.141   2.559  10.784 -0.3052 -0.7878 -0.1906
  106OSM    O1110786   3.918   2.494  10.846  0.1664 -0.3326  0.4402
  106OSM    O1210787   4.052   2.585  11.029 -0.1039 -0.1813  0.2865
  106OSM    C1S10788   3.843   2.479  10.722  0.1195 -0.6560  0.4183
  106OSM    H1S10789   3.804   2.576  10.685 -1.2614 -1.4253 -0.2309
  106OSM    H1T10790   3.746   2.431  10.745  0.9952 -1.9751  1.5072
  106OSM     NF10791   3.817   2.425  10.486  0.1151 -0.8469 -0.7835
  106OSM    HNF10792   3.734   2.371  10.484 -0.7715  0.4007  0.4332
  106OSM    C2S10793   3.911   2.409  10.604  0.5517 -0.3450  0.3943
  106OSM    H2S10794   4.004   2.464  10.579 -0.7637  1.4978 -0.7577
  106OSM    C3S10795   3.945   2.265  10.646  0.0487  0.0814 -0.1607
  106OSM    H3S10796   3.859   2.232  10.708 -1.0452  0.8712 -1.2141
  106OSM     O310797   4.063   2.262  10.723 -0.0159  0.4959  0.0183
  106OSM    HO310798   4.101   2.350  10.731 -0.5800  0.6404  1.2811
  106OSM    C4S10799   3.954   2.172  10.528 -0.3341 -0.1034 -0.6320
  106OSM    H4S10800   3.876   2.095  10.531 -1.6854  1.2657  1.1500
  106OSM    C5S10801   4.051   2.167  10.428 -0.8320 -0.3831  0.7617
  106OSM    H5S10802   4.128   2.244  10.410 -0.4722 -1.2023 -1.5194
  106OSM    C6S10803   4.058   2.060  10.322  0.2411  0.0274  1.0242
  106OSM    H6S10804   4.119   1.981  10.371 -0.9695  0.1582  2.8421
  106OSM    H6T10805   4.124   2.102  10.243 -0.2477  0.9332  1.0783
  106OSM    C7S10806   3.923   2.021  10.261  0.3022 -0.5182  0.0567
  106OSM    H7S10807   3.859   1.988  10.346  3.2048 -1.1493  2.1262
  106OSM    H7T10808   3.943   1.939  10.188 -1.2423  0.7810 -1.9640
  106OSM    C8S10809   3.856   2.134  10.178 -0.5874  0.7975  0.8796
  106OSM    H8S10810   3.935   2.176  10.112  0.0670 -1.9908 -0.2328
  106OSM    H8T10811   3.830   2.216  10.249  1.7394  2.6022 -0.1996
  106OSM    C9S10812   3.742   2.077  10.100  0.0023 -0.4989 -0.5911
  106OSM    H9S10813   3.684   2.167  10.069  1.8143  0.8985 -0.0981
  106OSM    H9T10814   3.671   2.028  10.169  0.5884 -0.0084  0.3755
  106OSM   C10S10815   3.775   1.997   9.978 -0.6743  0.4068 -0.6833
  106OSM   H10S10816   3.808   1.892   9.996 -2.0299 -0.3112 -2.1846
  106OSM   H10T10817   3.863   2.048   9.933  0.0545  2.0812  2.3277
  106OSM   C11S10818   3.669   1.978   9.869  0.6927 -1.1431  0.8047
  106OSM   H11S10819   3.570   1.947   9.911 -0.1299  0.5815  0.2504
  106OSM   H11T10820   3.705   1.901   9.797 -2.1761 -1.3799 -0.5119
  106OSM   C12S10821   3.656   2.115   9.800 -0.0168 -0.1049  0.3377
  106OSM   H12S10822   3.761   2.134   9.768 -0.6299  2.1752 -0.4465
  106OSM   H12T10823   3.634   2.199   9.869  1.2244 -0.3365  1.0572
  106OSM   C13S10824   3.577   2.115   9.670 -0.2660 -0.0031  0.1436
  106OSM   H13S10825   3.469   2.089   9.681  0.0252 -2.1597 -1.4710
  106OSM   H13T10826   3.616   2.036   9.602 -0.1069  1.4676 -1.5489
  106OSM   C14S10827   3.604   2.245   9.595 -0.2791  0.0997 -0.7264
  106OSM   H14S10828   3.696   2.297   9.630 -0.4708  0.9542 -1.4365
  106OSM   H14T10829   3.515   2.308   9.619 -1.4261 -1.4402 -0.7811
  106OSM   C15S10830   3.609   2.228   9.441  0.9366 -0.0474 -0.0164
  106OSM   H15S10831   3.527   2.160   9.408 -0.0054  0.8835  0.3833
  106OSM   H15T10832   3.708   2.180   9.424  0.0715 -2.0343  0.2853
  106OSM   C16S10833   3.598   2.363   9.373 -0.1739  0.0912  0.7882
  106OSM   H16S10834   3.670   2.431   9.423 -0.5719  0.8113  0.4020
  106OSM   H16T10835   3.496   2.406   9.375 -0.4127 -0.3896 -0.1405
  106OSM   C17S10836   3.651   2.363   9.233  0.9282 -0.3265 -0.0496
  106OSM   H17S10837   3.589   2.291   9.175  1.2542 -1.1405  0.5802
  106OSM   H17T10838   3.755   2.323   9.229  0.6580 -1.1301  0.5409
  106OSM   C18S10839   3.623   2.496   9.153  0.1754 -0.4658  0.5710
  106OSM   H18S10840   3.513   2.513   9.158  0.1160 -0.9538  1.1176
  106OSM   H18T10841   3.651   2.483   9.046 -3.6065 -1.3259 -0.4923
  106OSM   H18U10842   3.660   2.584   9.209 -0.9400  0.2729  0.1926
  106OSM    C1F10843   3.818   2.534  10.413  0.2570 -0.0790 -0.5040
  106OSM     OF10844   3.902   2.622  10.445  0.7926  0.4306 -0.6574
  106OSM    C2F10845   3.714   2.551  10.300 -0.1125 -1.3177 -0.6085
  106OSM    H2F10846   3.617   2.581  10.345  0.4102  0.2724 -0.4602
  106OSM    H2G10847   3.692   2.456  10.247  0.1938 -2.2076  0.8184
  106OSM    C3F10848   3.763   2.653  10.194 -0.4058 -0.3494 -0.1993
  106OSM    H3F10849   3.866   2.626  10.162  0.9860  0.4367  3.1887
  106OSM    H3G10850   3.768   2.758  10.231  0.4491 -1.3269  2.7182
  106OSM    C4F10851   3.678   2.646  10.063 -0.4458  0.4720  0.0068
  106OSM    H4F10852   3.571   2.678  10.067 -0.9179 -0.3753 -3.2556
  106OSM    H4G10853   3.669   2.536  10.051  1.1034 -0.0055  2.3833
  106OSM    C5F10854   3.737   2.713   9.940 -0.1930  0.4639 -1.0420
  106OSM    H5F10855   3.843   2.679   9.938 -0.8002 -1.5278 -2.1848
  106OSM    H5G10856   3.736   2.821   9.967 -2.9299  0.2915 -0.0770
  106OSM    C6F10857   3.658   2.670   9.818 -0.5735 -0.4290 -0.9498
  106OSM    H6F10858   3.548   2.681   9.829 -0.3599  0.9150  0.1760
  106OSM    H6G10859   3.697   2.567   9.800 -0.0786 -0.7562  1.5261
  106OSM    C7F10860   3.709   2.763   9.705  0.6968  0.1014 -0.6822
  106OSM    H7F10861   3.817   2.771   9.731  0.4114 -0.5508  0.7735
  106OSM    H7G10862   3.657   2.861   9.703 -1.6927 -1.0748 -0.4749
  106OSM    C8F10863   3.692   2.698   9.568 -0.1471 -0.1304  0.0372
  106OSM    H8F10864   3.746   2.601   9.574 -1.2111 -0.6704  1.1864
  106OSM    H8G10865   3.734   2.763   9.488 -1.3315  0.5186 -0.0786
  106OSM    C9F10866   3.547   2.665   9.542 -0.5623 -0.0696  0.1840
  106OSM    H9F10867   3.509   2.573   9.590  0.1769  0.1573  1.2513
  106OSM   C10F10868   3.463   2.751   9.477  0.7864  0.3619 -0.2147
  106OSM   H10F10869   3.366   2.710   9.445  1.0949  0.9451 -2.0184
  106OSM   C11F10870   3.498   2.894   9.427  0.3387  0.2019 -0.1674
  106OSM   H11F10871   3.581   2.931   9.491 -0.4690 -0.1730  1.1442
  106OSM   H11G10872   3.413   2.964   9.445  1.9946  1.8955  1.5402
  106OSM   C12F10873   3.542   2.901   9.276 -0.2878 -0.3467 -1.2417
  106OSM   H12F10874   3.637   2.844   9.268 -0.2426 -0.5090  0.2393
  106OSM   H12G10875   3.565   3.008   9.261  2.5376 -0.3915  1.6931
  106OSM   C13F10876   3.430   2.857   9.187 -0.1834 -0.4973 -0.5118
  106OSM   H13F10877   3.338   2.861   9.251 -0.6635 -2.0600 -1.0640
  106OSM   H13G10878   3.467   2.757   9.154  2.5089  0.9413 -2.2054
  106OSM   C14F10879   3.410   2.938   9.058  0.0971  0.1165 -0.1462
  106OSM   H14F10880   3.397   3.045   9.083 -1.7658 -0.1152  0.0393
  106OSM   H14G10881   3.313   2.916   9.008 -0.7135 -2.6897  2.3970
  106OSM   C15F10882   3.524   2.908   8.960  1.0762  0.0212 -0.2134
  106OSM   H15F10883   3.512   2.801   8.934 -2.2912  0.2730 -0.1823
  106OSM   H15G10884   3.623   2.934   9.003  0.3525  1.9710  0.3627
  106OSM   C16F10885   3.526   2.989   8.825 -0.7287 -0.1856 -0.1890
  106OSM   H16F10886   3.623   2.960   8.779 -0.7601  0.3813 -0.6289
  106OSM   H16G10887   3.540   3.097   8.847  1.8841 -0.4566 -0.1868
  106OSM   C17F10888   3.423   2.951   8.725 -0.5613 -0.2148 -0.0581
  106OSM   H17F10889   3.323   2.969   8.769 -1.1216 -3.5304  0.3001
  106OSM   H17G10890   3.423   2.841   8.706 -0.1402 -0.3862  0.8309
  106OSM   C18F10891   3.449   3.040   8.605  0.3749  0.1488  0.6002
  106OSM   H18F10892   3.371   3.019   8.528  0.4139 -0.9980  0.8535
  106OSM   H18G10893   3.547   3.035   8.553 -1.1651 -0.0674 -2.5314
  106OSM   H18H10894   3.438   3.149   8.623  2.3149  1.2924 -3.8112
  107OSM      N10895   0.174   1.114  10.980  0.3578  0.0007  0.1966
  107OSM    C1510896   0.144   1.056  10.850 -0.4119  0.9002  0.7440
  107OSM   H15A10897   0.231   1.049  10.786 -1.9318 -1.5992 -1.2199
  107OSM   H15B10898   0.070   1.116  10.799 -0.9884 -0.9922 -0.7268
  107OSM   H15C10899   0.108   0.955  10.863  0.7447  0.2726 -0.6325
  107OSM    C1410900   0.217   1.252  10.955 -0.0848  0.2807  0.3071
  107OSM   H14A10901   0.311   1.249  10.902  0.3811  0.4851  1.1097
  107OSM   H14B10902   0.244   1.296  11.049 -0.0147 -1.6252  1.2392
  107OSM   H14C10903   0.138   1.311  10.910 -0.7358  1.3952  2.7575
  107OSM    C1310904   0.054   1.108  11.068 -0.0046 -0.1233 -0.0723
  107OSM   H13A10905   0.029   1.009  11.102 -0.3233 -0.4851 -1.2891
  107OSM   H13B10906  -0.034   1.150  11.022  0.1459  0.5468  0.2358
  107OSM   H13C10907   0.076   1.180  11.146 -1.4356 -1.5208  1.6897
  107OSM    C1210908   0.288   1.033  11.043  0.8415 -0.1734  0.6829
  107OSM   H12A10909   0.255   0.931  11.051  1.1204 -0.2957  0.3312
  107OSM   H12B10910   0.294   1.066  11.146 -0.2229 -0.1587  0.7533
  107OSM    C1110911   0.434   1.043  10.984  0.4050  0.0496 -0.0687
  107OSM   H11A10912   0.508   0.993  11.049 -0.5619  0.2372  1.2267
  107OSM   H11B10913   0.454   1.152  10.991  1.6432 -0.2384  1.2551
  107OSM      P10914   0.442   0.844  10.828 -0.0413  0.4922  0.1456
  107OSM    O1310915   0.573   0.809  10.770 -0.0865 -0.1428  0.2553
  107OSM    O1410916   0.396   0.758  10.939  0.2811  0.7468  0.0037
  107OSM    O1110917   0.332   0.834  10.715 -0.1944 -0.6454 -0.1896
  107OSM    O1210918   0.438   0.994  10.853 -0.1082  0.1462  0.3169
  107OSM    C1S10919   0.326   0.900  10.586  0.0914  0.2046  0.1368
  107OSM    H1S10920   0.430   0.913  10.549 -0.0016  1.7023  0.3620
  107OSM    H1T10921   0.270   0.995  10.588 -0.4993 -0.0358 -2.2955
  107OSM     NF10922   0.293   0.852  10.353 -0.0646 -0.2882  0.4366
  107OSM    HNF10923   0.252   0.933  10.311  0.6785 -0.0929  0.0767
  107OSM    C2S10924   0.248   0.809  10.485  0.8620 -0.0177 -0.1268
  107OSM    H2S10925   0.275   0.701  10.495  0.6988 -0.2492 -1.8320
  107OSM    C3S10926   0.096   0.822  10.512 -1.0783  0.3524 -0.4169
  107OSM    H3S10927   0.073   0.931  10.509 -0.7914  0.3960 -1.7775
  107OSM     O310928   0.059   0.770  10.642 -0.5778 -0.4662 -0.3192
  107OSM    HO310929   0.140   0.778  10.693 -0.6549  0.4786 -0.3169
  107OSM    C4S10930   0.004   0.758  10.415  0.6247  0.1593 -0.1197
  107OSM    H4S10931  -0.015   0.656  10.453 -0.4655  0.8159  1.2000
  107OSM    C5S10932  -0.071   0.814  10.315 -0.5087  0.6628 -0.1180
  107OSM    H5S10933  -0.051   0.919  10.287  1.2004  0.2625 -0.5357
  107OSM    C6S10934  -0.154   0.719  10.236 -0.3618 -0.4495 -0.9817
  107OSM    H6S10935  -0.237   0.777  10.189 -0.3171  2.4307  2.1331
  107OSM    H6T10936  -0.193   0.641  10.305 -1.4043  0.0695 -0.9554
  107OSM    C7S10937  -0.063   0.650  10.130  0.1424 -0.2802 -0.4560
  107OSM    H7S10938  -0.113   0.566  10.078 -0.1855 -0.8322  0.7087
  107OSM    H7T10939   0.008   0.590  10.192  0.3293 -0.0208 -0.4177
  107OSM    C8S10940   0.030   0.738  10.041 -0.2629  0.1137 -0.0000
  107OSM    H8S10941   0.110   0.680   9.991 -0.0350  1.4470 -1.2444
  107OSM    H8T10942   0.081   0.823  10.089 -1.3378  2.9120 -3.4076
  107OSM    C9S10943  -0.062   0.790   9.929  0.1294  0.5768 -0.6138
  107OSM    H9S10944  -0.109   0.879   9.975  1.7924  1.5294 -0.6832
  107OSM    H9T10945  -0.137   0.712   9.904 -0.3920  0.9725 -0.3023
  107OSM   C10S10946   0.014   0.827   9.807  0.0779  0.0635  0.2851
  107OSM   H10S10947   0.076   0.738   9.782  0.5252  0.7997 -1.3783
  107OSM   H10T10948   0.093   0.901   9.827  0.4963 -0.5260  0.8631
  107OSM   C11S10949  -0.073   0.847   9.684  0.7434  0.6719  0.4950
  107OSM   H11S10950  -0.080   0.956   9.664 -0.7552  0.4077 -0.6347
  107OSM   H11T10951  -0.179   0.822   9.706  0.4570  2.0021  0.7264
  107OSM   C12S10952  -0.032   0.773   9.555 -0.1038  0.0695 -0.4330
  107OSM   H12S10953  -0.048   0.670   9.593  0.5503 -0.0161 -0.3810
  107OSM   H12T10954   0.068   0.796   9.513  0.1532  2.8573  1.4667
  107OSM   C13S10955  -0.131   0.800   9.438  0.1498  0.1456 -0.0403
  107OSM   H13S10956  -0.184   0.897   9.454  0.3515  0.0511  1.3392
  107OSM   H13T10957  -0.212   0.724   9.438  2.0394 -1.9727 -0.5535
  107OSM   C14S10958  -0.056   0.798   9.307  0.3615 -0.0720  0.1353
  107OSM   H14S10959  -0.009   0.699   9.286 -0.9816 -0.4673 -1.1862
  107OSM   H14T10960   0.031   0.867   9.309  1.7427 -1.7592  0.6672
  107OSM   C15S10961  -0.151   0.826   9.185 -0.8255  0.8239  0.4432
  107OSM   H15S10962  -0.187   0.929   9.204 -0.3131  0.9896  0.5277
  107OSM   H15T10963  -0.236   0.754   9.187 -0.6823  0.6397 -0.0655
  107OSM   C16S10964  -0.097   0.786   9.053 -0.3512 -0.6168 -0.0211
  107OSM   H16S10965  -0.167   0.795   8.968 -2.2213 -1.2139  1.3932
  107OSM   H16T10966  -0.057   0.683   9.062  0.2105 -0.5751 -1.7098
  107OSM   C17S10967   0.022   0.878   9.016 -0.1380 -0.5104 -0.0459
  107OSM   H17S10968   0.073   0.916   9.108  1.9654 -0.0494 -1.3469
  107OSM   H17T10969  -0.009   0.970   8.963  2.7980  1.8046  1.8804
  107OSM   C18S10970   0.128   0.809   8.928  0.6267 -0.4058 -0.2407
  107OSM   H18S10971   0.189   0.729   8.975  2.1316  0.2242 -1.0292
  107OSM   H18T10972   0.203   0.884   8.892  2.3545 -2.4227 -1.0989
  107OSM   H18U10973   0.081   0.771   8.835 -0.2099  1.9875 -0.8573
  107OSM    C1F10974   0.405   0.817  10.289 -0.9416  0.0765 -0.6201
  107OSM     OF10975   0.485   0.736  10.343  0.2571 -0.3757  0.1097
  107OSM    C2F10976   0.431   0.884  10.164 -0.0186  0.6037 -0.5516
  107OSM    H2F10977   0.532   0.931  10.153 -0.0178  1.0015  1.0100
  107OSM    H2G10978   0.363   0.972  10.160 -1.3460 -0.3702 -0.0911
  107OSM    C3F10979   0.421   0.776  10.053 -0.0461 -0.5346  0.2159
  107OSM    H3F10980   0.320   0.730  10.048 -1.7878  3.0532 -1.6844
  107OSM    H3G10981   0.508   0.709  10.069  1.6714  0.8611 -2.4685
  107OSM    C4F10982   0.444   0.826   9.906  0.2737 -0.4534  0.1983
  107OSM    H4F10983   0.540   0.880   9.891 -0.2579  0.4295 -0.0733
  107OSM    H4G10984   0.356   0.891   9.888 -0.3171 -0.9903  1.0505
  107OSM    C5F10985   0.440   0.710   9.798  0.1099  0.0699 -0.0415
  107OSM    H5F10986   0.347   0.652   9.817 -2.8056  4.7123  1.6158
  107OSM    H5G10987   0.527   0.643   9.817  0.1138  0.3045  0.8193
  107OSM    C6F10988   0.433   0.762   9.656  0.0156  0.0005 -0.1911
  107OSM    H6F10989   0.334   0.806   9.634 -1.6140 -3.0276  0.4281
  107OSM    H6G10990   0.441   0.668   9.597  1.2632  0.4019 -0.6797
  107OSM    C7F10991   0.551   0.853   9.615  0.7230  0.2991  0.2277
  107OSM    H7F10992   0.648   0.807   9.644  0.2697 -0.4286  0.6229
  107OSM    H7G10993   0.548   0.938   9.685 -1.5454 -1.5275  2.5594
  107OSM    C8F10994   0.559   0.903   9.468  0.1427 -0.6683  0.2444
  107OSM    H8F10995   0.642   0.977   9.470  2.1398 -2.7804 -0.3794
  107OSM    H8G10996   0.467   0.965   9.459  0.6295  0.1449  0.6999
  107OSM    C9F10997   0.573   0.815   9.344  0.0533  0.3631  0.7644
  107OSM    H9F10998   0.645   0.732   9.348 -1.1865 -0.7051  3.1537
  107OSM   C10F10999   0.494   0.814   9.235 -0.1421  0.0277  0.1040
  107OSM   H10F11000   0.536   0.748   9.157  0.7689 -0.7930  1.2501
  107OSM   C11F11001   0.371   0.904   9.221  0.6017  0.0360 -0.6878
  107OSM   H11F11002   0.333   0.918   9.325  1.3270  0.4682 -0.4777
  107OSM   H11G11003   0.292   0.844   9.170 -0.6225  1.1837 -0.2025
  107OSM   C12F11004   0.412   1.027   9.146 -0.1734  0.2060 -0.9577
  107OSM   H12F11005   0.498   1.075   9.197 -0.9544  3.6370 -2.5538
  107OSM   H12G11006   0.319   1.088   9.149  0.4581  1.1530  1.1419
  107OSM   C13F11007   0.457   0.998   9.003 -0.5969  0.1669 -0.0266
  107OSM   H13F11008   0.398   0.910   8.969 -1.7917  0.8151  0.3164
  107OSM   H13G11009   0.566   0.985   8.989 -0.3575  1.4391  0.4941
  107OSM   C14F11010   0.421   1.094   8.892  0.2022 -0.7222  0.1522
  107OSM   H14F11011   0.440   1.199   8.923 -0.2769 -1.1461  2.0583
  107OSM   H14G11012   0.310   1.094   8.888  0.1513  0.9643  0.7993
  107OSM   C15F11013   0.494   1.075   8.758 -0.7203  0.0886 -0.6392
  107OSM   H15F11014   0.490   0.973   8.716  2.5990  0.5006 -2.2253
  107OSM   H15G11015   0.602   1.089   8.781 -0.7971 -0.1757 -0.1058
  107OSM   C16F11016   0.439   1.175   8.652  0.1014  0.9181 -0.4936
  107OSM   H16F11017   0.450   1.278   8.693  1.6101  0.9844 -1.0100
  107OSM   H16G11018   0.334   1.141   8.643  0.5129 -0.0812 -1.8348
  107OSM   C17F11019   0.501   1.167   8.515  0.2273 -0.1302  0.0114
  107OSM   H17F11020   0.488   1.060   8.488 -0.1645  0.0651 -0.5919
  107OSM   H17G11021   0.611   1.178   8.529 -0.0560  1.5844  1.1780
  107OSM   C18F11022   0.454   1.270   8.413 -0.3907  0.4574  0.2997
  107OSM   H18F11023   0.469   1.373   8.451  1.5352  0.7218 -1.0289
  107OSM   H18G11024   0.348   1.248   8.388  0.3752 -2.4350 -0.8290
  107OSM   H18H11025   0.509   1.260   8.317 -2.7885 -0.8599 -1.0326
  108OSM      N11026   3.657   1.697  11.386 -0.2045 -0.3846 -0.4355
  108OSM    C1511027   3.705   1.567  11.447 -0.9718 -0.0310  0.3188
  108OSM   H15A11028   3.676   1.485  11.383 -2.0112  0.8876 -0.4392
  108OSM   H15B11029   3.665   1.563  11.547  0.8415 -1.2743  1.0362
  108OSM   H15C11030   3.812   1.570  11.453 -0.8537 -0.9077 -0.9243
  108OSM    C1411031   3.507   1.713  11.388  0.1240 -0.1486 -0.4805
  108OSM   H14A11032   3.466   1.640  11.319 -2.1353 -0.5177  1.1239
  108OSM   H14B11033   3.472   1.807  11.349 -2.3737  0.2111  2.2665
  108OSM   H14C11034   3.463   1.700  11.485  0.2670 -0.2923 -0.4361
  108OSM    C1311035   3.718   1.791  11.476  0.1665  0.0720  0.8175
  108OSM   H13A11036   3.823   1.772  11.494  0.6685 -1.3779 -2.6961
  108OSM   H13B11037   3.668   1.792  11.571 -1.0675  1.0450  0.1910
  108OSM   H13C11038   3.713   1.894  11.443 -3.5697  0.0938  1.0209
  108OSM    C1211039   3.718   1.716  11.244  0.3944  0.8670  0.0696
  108OSM   H12A11040   3.821   1.692  11.263  0.3532  1.1018  0.6297
  108OSM   H12B11041   3.704   1.821  11.223 -0.7663  0.7006 -0.0990
  108OSM    C1111042   3.665   1.629  11.131  0.6608  0.8006  0.1258
  108OSM   H11A11043   3.712   1.655  11.033  0.1295 -1.3946 -0.7767
  108OSM   H11B11044   3.557   1.647  11.115  0.5987  1.1236  0.8746
  108OSM      P11045   3.833   1.435  11.127 -0.1938 -0.2967  0.6983
  108OSM    O1311046   3.930   1.506  11.215 -0.3481 -1.2813  0.8003
  108OSM    O1411047   3.841   1.287  11.133  0.0548  0.4691  0.2226
  108OSM    O1111048   3.866   1.482  10.980 -0.5945 -0.0789  0.4486
  108OSM    O1211049   3.683   1.486  11.160 -1.0687 -0.3191  0.3933
  108OSM    C1S11050   3.865   1.386  10.871 -0.1698 -0.3160 -0.1504
  108OSM    H1S11051   3.761   1.346  10.861 -0.4824  0.7082 -1.3201
  108OSM    H1T11052   3.930   1.298  10.886  1.2410  0.6201 -0.6007
  108OSM     NF11053   3.890   1.353  10.623 -0.3326 -0.4199 -0.1797
  108OSM    HNF11054   3.968   1.291  10.619 -0.0775 -0.0700 -0.9120
  108OSM    C2S11055   3.903   1.445  10.733  0.0665  0.5573  0.3209
  108OSM    H2S11056   3.830   1.525  10.710 -0.5305  0.0086  0.2923
  108OSM    C3S11057   4.044   1.518  10.730 -0.0422  0.1569 -0.2293
  108OSM    H3S11058   4.116   1.433  10.732  0.1547  0.3349  0.9543
  108OSM     O311059   4.084   1.604  10.846  0.9728  0.3641  0.2470
  108OSM    HO311060   4.003   1.609  10.897  0.8211  0.9624 -0.0407
  108OSM    C4S11061   4.062   1.584  10.591 -0.7279 -0.2281 -0.0160
  108OSM    H4S11062   3.972   1.636  10.556 -1.2855 -0.4845  0.9925
  108OSM    C5S11063   4.183   1.595  10.526 -0.4937 -0.3459  0.2589
  108OSM    H5S11064   4.272   1.546  10.569 -0.7456  0.8503  2.2586
  108OSM    C6S11065   4.198   1.656  10.391 -0.2549 -0.2881  0.1586
  108OSM    H6S11066   4.258   1.748  10.407  0.1098 -0.7340  1.4908
  108OSM    H6T11067   4.094   1.678  10.357 -0.1582 -1.7086 -1.1272
  108OSM    C7S11068   4.262   1.549  10.297 -0.2919 -0.6107 -1.2098
  108OSM    H7S11069   4.205   1.453  10.299 -0.2025 -0.6600 -0.9833
  108OSM    H7T11070   4.366   1.526  10.327  0.8010  2.3661 -2.3541
  108OSM    C8S11071   4.264   1.595  10.145 -0.1424  1.0947 -0.7523
  108OSM    H8S11072   4.321   1.690  10.136 -0.1489  1.3443  1.3759
  108OSM    H8T11073   4.156   1.604  10.121 -0.2169 -0.0636 -0.9158
  108OSM    C9S11074   4.320   1.481  10.059  0.0787  0.9505  0.4993
  108OSM    H9S11075   4.259   1.392  10.087  0.2454  0.6508 -0.0658
  108OSM    H9T11076   4.429   1.466  10.075 -0.3878 -0.8977  2.4826
  108OSM   C10S11077   4.306   1.512   9.912 -0.0368 -0.1663  0.3519
  108OSM   H10S11078   4.370   1.603   9.898 -1.9152  1.0480 -0.7452
  108OSM   H10T11079   4.201   1.517   9.878 -0.4862 -2.9085  1.1532
  108OSM   C11S11080   4.372   1.404   9.834  0.4855  0.2388  0.6630
  108OSM   H11S11081   4.319   1.308   9.855 -0.8368  1.5225  3.8653
  108OSM   H11T11082   4.478   1.400   9.866 -0.1170  0.6888  2.8994
  108OSM   C12S11083   4.369   1.419   9.679  0.2726 -0.1941 -0.3240
  108OSM   H12S11084   4.437   1.500   9.645  0.2887 -0.1425 -0.1734
  108OSM   H12T11085   4.264   1.445   9.656 -0.4821 -1.0761  1.8701
  108OSM   C13S11086   4.407   1.283   9.613  0.5713  0.2630  0.2343
  108OSM   H13S11087   4.347   1.190   9.628  1.6088 -0.7281 -1.4981
  108OSM   H13T11088   4.499   1.248   9.664 -0.2286 -0.9552  0.9120
  108OSM   C14S11089   4.426   1.302   9.465  0.0421 -0.0816  0.3320
  108OSM   H14S11090   4.472   1.206   9.433  0.1246  0.0477  0.0576
  108OSM   H14T11091   4.496   1.383   9.433  0.5396 -0.2344  1.0070
  108OSM   C15S11092   4.296   1.335   9.400  1.1064 -0.4704 -0.0132
  108OSM   H15S11093   4.233   1.409   9.455  0.7484 -0.5564 -0.3022
  108OSM   H15T11094   4.242   1.241   9.419  0.9491 -0.3337  0.2132
  108OSM   C16S11095   4.300   1.366   9.249  0.3667  1.0386  0.5761
  108OSM   H16S11096   4.353   1.276   9.209  0.4584 -0.1144  3.1168
  108OSM   H16T11097   4.358   1.454   9.215  0.2032  1.1845  0.6735
  108OSM   C17S11098   4.168   1.357   9.183 -0.1961 -0.1479 -0.0009
  108OSM   H17S11099   4.177   1.365   9.072  1.6562  4.0324  0.2870
  108OSM   H17T11100   4.108   1.443   9.219 -1.1247 -1.0415  0.6344
  108OSM   C18S11101   4.081   1.228   9.215 -0.0358 -0.4680  0.7581
  108OSM   H18S11102   4.032   1.231   9.315  0.1783  0.0701  0.8502
  108OSM   H18T11103   4.145   1.137   9.220 -1.2930 -1.4672 -0.6069
  108OSM   H18U11104   4.007   1.212   9.134  0.0779  0.0602  0.5477
  108OSM    C1F11105   3.782   1.314  10.555  0.5025  0.0112 -0.6527
  108OSM     OF11106   3.668   1.364  10.584 -0.3670  0.4893  0.5550
  108OSM    C2F11107   3.804   1.202  10.452  0.0398  0.2576 -0.2263
  108OSM    H2F11108   3.708   1.146  10.444 -0.8124  1.9418 -4.1929
  108OSM    H2G11109   3.875   1.132  10.502 -0.4869 -0.2081 -0.1166
  108OSM    C3F11110   3.845   1.259  10.315  1.1235  0.4414  0.1078
  108OSM    H3F11111   3.921   1.338  10.337 -0.5751  2.9499 -2.3606
  108OSM    H3G11112   3.762   1.318  10.271 -0.5206 -2.0408 -0.3231
  108OSM    C4F11113   3.902   1.162  10.216 -0.4953  0.4524 -0.1724
  108OSM    H4F11114   3.828   1.097  10.165  0.3370 -0.5471 -0.1462
  108OSM    H4G11115   3.972   1.099  10.275 -0.9997 -0.6345 -0.6988
  108OSM    C5F11116   3.979   1.242  10.108 -0.1256 -0.2892 -0.0965
  108OSM    H5F11117   4.071   1.286  10.152  1.9137 -2.1149 -2.2340
  108OSM    H5G11118   3.922   1.330  10.073  0.3385  0.2739  0.5493
  108OSM    C6F11119   4.018   1.172   9.983  0.5787 -0.6372  0.1596
  108OSM    H6F11120   4.047   1.068  10.008  0.7737 -0.6222 -0.0057
  108OSM    H6G11121   4.106   1.220   9.936 -0.4876 -1.4606 -2.9555
  108OSM    C7F11122   3.902   1.172   9.877 -0.2203 -0.3485 -0.3675
  108OSM    H7F11123   3.899   1.281   9.855  1.7792  0.1821  1.6128
  108OSM    H7G11124   3.806   1.138   9.922 -0.3727 -1.1592 -1.2830
  108OSM    C8F11125   3.944   1.104   9.744  0.0025  0.3803 -0.2798
  108OSM    H8F11126   4.046   1.142   9.721  0.2383 -0.5896 -0.9131
  108OSM    H8G11127   3.873   1.142   9.668 -1.2828  1.5305  1.4184
  108OSM    C9F11128   3.948   0.952   9.752 -0.2056 -0.4779 -0.5824
  108OSM    H9F11129   3.942   0.922   9.857 -0.6382 -1.7058 -0.9504
  108OSM   C10F11130   3.945   0.868   9.647  0.3531 -0.5078  0.0628
  108OSM   H10F11131   3.952   0.759   9.666 -0.2113 -0.5672 -0.0683
  108OSM   C11F11132   3.946   0.900   9.496  0.0321  0.1547 -0.6430
  108OSM   H11F11133   3.975   0.816   9.429  0.4719 -0.0902 -0.1452
  108OSM   H11G11134   4.023   0.977   9.475  1.0230 -0.5600  0.3011
  108OSM   C12F11135   3.818   0.970   9.448 -0.4744  0.0083 -0.4515
  108OSM   H12F11136   3.839   0.992   9.341  0.8919 -1.8892 -0.6116
  108OSM   H12G11137   3.801   1.070   9.493  0.4217  0.4224 -1.0142
  108OSM   C13F11138   3.692   0.887   9.458  0.0698 -0.3952 -0.1689
  108OSM   H13F11139   3.671   0.871   9.566  0.7529  0.8130  0.1644
  108OSM   H13G11140   3.704   0.794   9.399  0.0182  0.8944 -2.3175
  108OSM   C14F11141   3.571   0.967   9.391 -0.0170  0.1682 -0.4434
  108OSM   H14F11142   3.567   1.064   9.444  0.2417 -0.8050  1.4494
  108OSM   H14G11143   3.481   0.906   9.415  0.3983 -0.6520 -0.9073
  108OSM   C15F11144   3.581   0.977   9.237  0.2501 -0.3737 -0.4804
  108OSM   H15F11145   3.589   0.878   9.187 -0.0835 -2.4367  3.2052
  108OSM   H15G11146   3.671   1.040   9.219 -0.7251  1.4804  0.8735
  108OSM   C16F11147   3.459   1.055   9.188  0.7703  0.4816 -0.0749
  108OSM   H16F11148   3.479   1.093   9.085  4.5123  2.7062  1.2566
  108OSM   H16G11149   3.435   1.149   9.243 -0.0615  0.5946 -0.6053
  108OSM   C17F11150   3.342   0.963   9.170 -0.6143  0.2177  0.1548
  108OSM   H17F11151   3.255   1.027   9.144 -0.3570 -0.3089 -2.2499
  108OSM   H17G11152   3.317   0.904   9.261 -1.1976 -3.3096 -2.0970
  108OSM   C18F11153   3.366   0.858   9.061  0.1290 -0.0302  0.2633
  108OSM   H18F11154   3.269   0.804   9.055 -1.4024  2.3964  1.4465
  108OSM   H18G11155   3.448   0.785   9.079 -0.7699 -1.0163  0.4247
  108OSM   H18H11156   3.373   0.909   8.963 -1.1364 -0.3399  0.0008
  109OSM      N11157   2.634   6.288  10.950  0.1059  0.2337 -0.3569
  109OSM    C1511158   2.611   6.146  10.935  0.1013  0.3585 -0.4163
  109OSM   H15A11159   2.632   6.099  11.029 -1.5872 -0.7300 -0.5565
  109OSM   H15B11160   2.676   6.106  10.858 -1.1688 -1.6295 -0.5165
  109OSM   H15C11161   2.506   6.127  10.917  0.0854  0.2853 -0.2402
  109OSM    C1411162   2.517   6.346  11.024 -0.2686 -0.1810  0.1207
  109OSM   H14A11163   2.505   6.286  11.113  1.4269  0.7446  1.0093
  109OSM   H14B11164   2.422   6.366  10.977 -1.0242 -0.3822  1.4960
  109OSM   H14C11165   2.548   6.443  11.060  3.6571 -1.7447  1.4716
  109OSM    C1311166   2.758   6.305  11.022 -0.4491  0.2175  0.1298
  109OSM   H13A11167   2.737   6.239  11.105 -0.3076 -2.8591 -2.1436
  109OSM   H13B11168   2.779   6.407  11.053  0.5889 -0.5210  1.9894
  109OSM   H13C11169   2.838   6.253  10.973  0.9201  0.5129  1.9623
  109OSM    C1211170   2.642   6.354  10.813 -0.7596 -0.0414  0.6487
  109OSM   H12A11171   2.674   6.457  10.828 -0.7813  0.0681 -0.0153
  109OSM   H12B11172   2.542   6.356  10.772 -1.1969 -0.5795  1.6535
  109OSM    C1111173   2.733   6.285  10.711 -0.0896 -0.3467  0.1090
  109OSM   H11A11174   2.712   6.344  10.619  1.1931  1.4010  0.8791
  109OSM   H11B11175   2.696   6.181  10.698 -1.4453  0.0887  0.3427
  109OSM      P11176   2.975   6.391  10.692  0.0414  0.4662  0.0465
  109OSM    O1311177   2.915   6.527  10.696 -0.3807 -0.1976  0.5938
  109OSM    O1411178   3.105   6.368  10.759  0.0405 -0.2332 -0.3391
  109OSM    O1111179   2.992   6.346  10.542 -0.2403 -0.3361 -0.2722
  109OSM    O1211180   2.871   6.287  10.755  0.0942  0.0828  0.2447
  109OSM    C1S11181   3.002   6.209  10.501 -0.2251 -0.5421 -0.1302
  109OSM    H1S11182   2.903   6.170  10.468 -1.0009  1.5452 -0.3750
  109OSM    H1T11183   3.043   6.137  10.575  1.2713 -0.4270 -0.8207
  109OSM     NF11184   3.092   6.074  10.323 -0.7113 -0.0908 -0.1267
  109OSM    HNF11185   3.163   6.014  10.359 -1.0968  0.0300  0.8800
  109OSM    C2S11186   3.087   6.208  10.370  0.8713 -0.1635  0.3528
  109OSM    H2S11187   3.035   6.269  10.293 -2.2989 -1.2494  1.4509
  109OSM    C3S11188   3.225   6.280  10.395  0.5330 -0.6368 -0.7004
  109OSM    H3S11189   3.279   6.231  10.479  2.3014  1.0277 -0.8206
  109OSM     O311190   3.218   6.421  10.427  0.0541 -0.2386  0.1592
  109OSM    HO311191   3.138   6.429  10.480  0.1030  0.7147  0.1166
  109OSM    C4S11192   3.313   6.271  10.271  0.1856 -0.6048  0.9752
  109OSM    H4S11193   3.419   6.256  10.296  1.0467  1.4323 -1.1022
  109OSM    C5S11194   3.266   6.286  10.141 -0.3685 -0.1216 -0.3938
  109OSM    H5S11195   3.159   6.309  10.128 -0.3781  0.3681  0.4861
  109OSM    C6S11196   3.345   6.278  10.010  0.0409 -0.2512 -0.3666
  109OSM    H6S11197   3.290   6.203   9.948 -0.8833  1.0528 -1.1769
  109OSM    H6T11198   3.449   6.241  10.009 -0.0259 -0.6433 -3.5182
  109OSM    C7S11199   3.338   6.414   9.936  0.3710  0.3211  0.3880
  109OSM    H7S11200   3.397   6.481  10.003 -1.6961  2.7163 -0.0233
  109OSM    H7T11201   3.233   6.449   9.928  0.5044  0.9095  1.0095
  109OSM    C8S11202   3.402   6.408   9.787  0.2885 -0.1602  0.1131
  109OSM    H8S11203   3.349   6.329   9.729  1.6449  0.1787 -1.6933
  109OSM    H8T11204   3.513   6.401   9.789  0.3814  1.2946  1.2644
  109OSM    C9S11205   3.371   6.539   9.718 -0.0367  0.3246  0.8463
  109OSM    H9S11206   3.393   6.617   9.794  1.1839  0.8535 -0.0118
  109OSM    H9T11207   3.264   6.541   9.688 -0.3254  1.8817  1.8971
  109OSM   C10S11208   3.456   6.557   9.590  0.2955 -0.2243  0.3646
  109OSM   H10S11209   3.563   6.538   9.615  0.1002 -1.1864  0.5074
  109OSM   H10T11210   3.454   6.665   9.563 -0.5380 -0.6224 -1.2478
  109OSM   C11S11211   3.404   6.461   9.475 -0.3112  0.0931 -0.5976
  109OSM   H11S11212   3.369   6.373   9.533 -0.5615  1.5222  1.5495
  109OSM   H11T11213   3.473   6.444   9.390 -1.9415 -1.7857 -1.6212
  109OSM   C12S11214   3.279   6.519   9.414 -0.2633 -0.2227 -0.1056
  109OSM   H12S11215   3.247   6.608   9.471  1.0146  0.7184 -0.7967
  109OSM   H12T11216   3.201   6.441   9.426  1.3507 -2.1287 -1.3117
  109OSM   C13S11217   3.296   6.565   9.271  0.1437  0.1326  0.1660
  109OSM   H13S11218   3.375   6.642   9.260  0.3921  0.2758  2.4735
  109OSM   H13T11219   3.197   6.607   9.241 -0.9506 -2.4482 -0.0743
  109OSM   C14S11220   3.313   6.449   9.170  0.1339 -0.5026  0.6474
  109OSM   H14S11221   3.246   6.361   9.183 -0.0833 -0.5301 -0.5393
  109OSM   H14T11222   3.420   6.420   9.163  0.4821  1.0156 -1.3196
  109OSM   C15S11223   3.269   6.491   9.024 -0.4766  0.4481  0.6542
  109OSM   H15S11224   3.315   6.589   9.001  0.1939  0.6549  2.6190
  109OSM   H15T11225   3.159   6.499   9.030 -0.6047  0.0970 -0.8352
  109OSM   C16S11226   3.301   6.397   8.908  0.0772  0.3494  0.4101
  109OSM   H16S11227   3.301   6.291   8.942  0.2002  0.4660  0.7778
  109OSM   H16T11228   3.402   6.426   8.873  0.7383 -0.7564  1.3130
  109OSM   C17S11229   3.196   6.416   8.794  0.4856  0.5449 -0.3651
  109OSM   H17S11230   3.197   6.521   8.756 -2.8106  0.2380 -1.5843
  109OSM   H17T11231   3.096   6.400   8.840  0.7387  0.3470  0.1230
  109OSM   C18S11232   3.218   6.313   8.684  0.6449  0.1131 -0.3282
  109OSM   H18S11233   3.210   6.208   8.721  4.5516 -0.7911 -1.5732
  109OSM   H18T11234   3.316   6.334   8.637  0.3937  1.1534 -0.3989
  109OSM   H18U11235   3.143   6.317   8.601  0.7250  2.6771 -0.3391
  109OSM    C1F11236   2.994   6.017  10.254  0.8425 -0.3632 -0.8800
  109OSM     OF11237   2.903   6.094  10.222  0.1083 -0.4474 -0.4779
  109OSM    C2F11238   2.987   5.868  10.222  0.5473  0.7631 -0.1136
  109OSM    H2F11239   2.892   5.836  10.269  1.0667 -1.0152 -0.1923
  109OSM    H2G11240   3.069   5.812  10.272  0.2176 -0.6048 -1.0303
  109OSM    C3F11241   2.987   5.846  10.065  0.1794 -0.1258 -0.4641
  109OSM    H3F11242   2.926   5.927  10.019 -0.9918 -1.0836 -0.6348
  109OSM    H3G11243   2.949   5.746  10.035  0.6983 -0.1869 -0.9340
  109OSM    C4F11244   3.127   5.864  10.006 -0.4422 -0.5267  0.0293
  109OSM    H4F11245   3.186   5.773  10.029  0.4782  0.8463  3.8065
  109OSM    H4G11246   3.174   5.951  10.058  1.7717 -1.9252  0.4919
  109OSM    C5F11247   3.120   5.903   9.860  0.2118 -0.3197  0.0642
  109OSM    H5F11248   3.073   6.004   9.858  1.6328  0.3679 -0.0763
  109OSM    H5G11249   3.065   5.820   9.811 -0.2552  0.5436 -0.9461
  109OSM    C6F11250   3.261   5.924   9.803  0.6799  0.3494  0.6546
  109OSM    H6F11251   3.318   5.831   9.784 -1.5821 -1.2318  1.2242
  109OSM    H6G11252   3.317   5.966   9.890  0.7875 -1.1652  1.3569
  109OSM    C7F11253   3.264   6.026   9.686 -0.1142  0.3002 -0.2166
  109OSM    H7F11254   3.369   6.044   9.656  0.0972 -2.5926 -1.5023
  109OSM    H7G11255   3.219   6.124   9.712  1.1701  0.8052  0.1779
  109OSM    C8F11256   3.187   5.991   9.560  0.8038 -0.3619  0.3758
  109OSM    H8F11257   3.159   6.073   9.491 -0.1642 -1.1805 -0.2333
  109OSM    H8G11258   3.086   5.965   9.597  0.8767  0.7749  1.4374
  109OSM    C9F11259   3.244   5.868   9.492 -0.9145 -0.9461  0.2695
  109OSM    H9F11260   3.221   5.770   9.537  3.5828 -2.8567 -1.0176
  109OSM   C10F11261   3.306   5.863   9.376 -0.5838 -0.4427  0.6745
  109OSM   H10F11262   3.362   5.775   9.339  0.6145  1.5675 -2.7547
  109OSM   C11F11263   3.326   5.992   9.298 -0.6405  0.9352 -0.3489
  109OSM   H11F11264   3.361   6.078   9.357  0.7706  0.2138 -0.1044
  109OSM   H11G11265   3.230   6.024   9.252 -1.1066 -0.1548 -0.1719
  109OSM   C12F11266   3.411   5.970   9.168  0.2349  0.2162  0.1751
  109OSM   H12F11267   3.351   5.900   9.106  0.0016  0.0014  0.6328
  109OSM   H12G11268   3.505   5.918   9.196  0.6257  0.6034 -0.3999
  109OSM   C13F11269   3.444   6.083   9.080  0.3881  0.1904 -0.2550
  109OSM   H13F11270   3.487   6.161   9.146  0.5061 -2.5371  3.1872
  109OSM   H13G11271   3.351   6.122   9.034 -0.0093 -0.4082  0.0357
  109OSM   C14F11272   3.541   6.047   8.965 -0.6170  0.1139  0.0172
  109OSM   H14F11273   3.493   5.954   8.929  0.8488 -0.2749 -0.9780
  109OSM   H14G11274   3.636   6.024   9.017 -0.6196  0.9281  0.4103
  109OSM   C15F11275   3.562   6.147   8.848 -1.0054  0.1505  0.1723
  109OSM   H15F11276   3.586   6.246   8.893  1.2796 -0.1511 -0.2877
  109OSM   H15G11277   3.478   6.168   8.778  0.8676  0.1060 -2.1805
  109OSM   C16F11278   3.681   6.102   8.759  0.1282 -1.0785  0.3554
  109OSM   H16F11279   3.687   5.997   8.725  0.8385 -1.0972  0.5204
  109OSM   H16G11280   3.774   6.107   8.821 -0.4463 -0.3057  1.1935
  109OSM   C17F11281   3.696   6.195   8.636  0.5381  0.4471 -0.2933
  109OSM   H17F11282   3.601   6.189   8.579 -1.1359 -2.6624  2.4200
  109OSM   H17G11283   3.777   6.160   8.568  0.6213 -1.8887  0.8891
  109OSM   C18F11284   3.716   6.338   8.673  0.0501  0.1326 -0.1090
  109OSM   H18F11285   3.803   6.343   8.742  0.8601 -2.2248 -0.8529
  109OSM   H18G11286   3.632   6.386   8.727  1.7820 -0.9840  3.9917
  109OSM   H18H11287   3.739   6.396   8.581  0.1087  0.9786  0.4342
  110OSM      N11288   0.489   0.065  10.830  0.3347  0.2746  0.4991
  110OSM    C1511289   0.556   0.117  10.954 -0.3327 -0.2583 -0.2132
  110OSM   H15A11290   0.502   0.099  11.046  0.9810  0.8156  0.8026
  110OSM   H15B11291   0.579   0.222  10.954 -1.4868  0.0300  1.3596
  110OSM   H15C11292   0.649   0.063  10.968 -0.8749 -1.0877  0.2603
  110OSM    C1411293   0.352   0.114  10.832  0.4459 -0.5501 -0.7037
  110OSM   H14A11294   0.361   0.212  10.788  1.7812 -0.4383 -0.2203
  110OSM   H14B11295   0.298   0.114  10.925 -1.0076  0.1379 -1.5131
  110OSM   H14C11296   0.288   0.055  10.767 -0.6422 -1.0626  0.7734
  110OSM    C1311297   0.574   0.111  10.713  0.4282 -0.3037 -0.2436
  110OSM   H13A11298   0.569   0.219  10.716  1.0947 -0.2631  2.3225
  110OSM   H13B11299   0.543   0.092  10.612 -0.3917  3.4030 -0.8261
  110OSM   H13C11300   0.681   0.103  10.727  0.6914  2.5832  0.0334
  110OSM    C1211301   0.497  -0.093  10.847 -0.5050 -0.4111  1.0656
  110OSM   H12A11302   0.458  -0.112  10.945 -2.0095  0.8045  0.7365
  110OSM   H12B11303   0.602  -0.120  10.849 -0.3866  0.0714  1.5572
  110OSM    C1111304   0.424  -0.182  10.751  0.0845  0.1580  0.3807
  110OSM   H11A11305   0.448  -0.288  10.774  4.1387  1.0975  1.2658
  110OSM   H11B11306   0.464  -0.164  10.648  1.9270 -0.2139  0.9963
  110OSM      P11307   0.174  -0.189  10.829 -0.0469  0.0133 -0.0797
  110OSM    O1311308   0.217  -0.243  10.959 -0.2326 -0.1593 -0.0372
  110OSM    O1411309   0.077  -0.077  10.833  0.4193 -0.5471 -0.5558
  110OSM    O1111310   0.112  -0.307  10.745  0.2858 -0.9714  0.6964
  110OSM    O1211311   0.289  -0.140  10.740  0.3202  0.0624 -0.0490
  110OSM    C1S11312   0.019  -0.280  10.640  0.4180  0.5750  0.1388
  110OSM    H1S11313  -0.031  -0.181  10.647 -0.1767  0.1932  1.9717
  110OSM    H1T11314  -0.065  -0.348  10.664  1.0331 -0.4185 -0.4695
  110OSM     NF11315   0.001  -0.277  10.384  0.0483 -0.3355 -0.1023
  110OSM    HNF11316  -0.032  -0.352  10.327  1.8997 -0.0110 -1.6927
  110OSM    C2S11317   0.083  -0.316  10.497  0.1043 -0.5457 -0.4057
  110OSM    H2S11318   0.181  -0.264  10.491  0.2066 -0.3517  2.0563
  110OSM    C3S11319   0.120  -0.474  10.495 -0.5279 -0.5111  0.1423
  110OSM    H3S11320   0.024  -0.530  10.494 -0.7174 -0.2060  0.7288
  110OSM     O311321   0.201  -0.522  10.603  0.5719 -0.0087  0.4311
  110OSM    HO311322   0.188  -0.454  10.670  0.5870 -0.3028  0.7360
  110OSM    C4S11323   0.183  -0.490  10.360  0.2382  0.0225  0.0772
  110OSM    H4S11324   0.112  -0.488  10.275  0.9033  0.6414 -0.4770
  110OSM    C5S11325   0.313  -0.495  10.329 -0.3484  0.5695  0.0127
  110OSM    H5S11326   0.385  -0.482  10.411 -0.9193  1.1266  0.4385
  110OSM    C6S11327   0.370  -0.505  10.190 -0.6323  0.0162 -0.4754
  110OSM    H6S11328   0.451  -0.581  10.196 -3.2724 -3.0372 -0.4150
  110OSM    H6T11329   0.423  -0.411  10.166  0.8798 -0.2591  1.4973
  110OSM    C7S11330   0.278  -0.545  10.079 -0.5594 -0.0868  0.5977
  110OSM    H7S11331   0.188  -0.480  10.075 -1.4094 -1.2804 -1.2437
  110OSM    H7T11332   0.233  -0.645  10.101 -1.1159 -0.8053 -3.2106
  110OSM    C8S11333   0.340  -0.540   9.938 -0.3067  0.2851  0.0060
  110OSM    H8S11334   0.435  -0.597   9.936  0.2613  1.2207 -0.7489
  110OSM    H8T11335   0.372  -0.437   9.913  0.8765  0.0209  0.3860
  110OSM    C9S11336   0.242  -0.586   9.834  0.4075  0.6356  0.0171
  110OSM    H9S11337   0.157  -0.517   9.850  1.4302  1.9229  0.0329
  110OSM    H9T11338   0.204  -0.690   9.848  0.1975  0.5531 -1.0637
  110OSM   C10S11339   0.297  -0.569   9.695  0.0186 -0.3771 -0.1186
  110OSM   H10S11340   0.380  -0.642   9.693 -1.1543 -1.7384 -0.9343
  110OSM   H10T11341   0.341  -0.468   9.680 -0.2320  0.1760  2.4166
  110OSM   C11S11342   0.201  -0.619   9.584 -0.2167 -0.3331 -0.2946
  110OSM   H11S11343   0.111  -0.557   9.567 -0.5483 -0.6195  0.3804
  110OSM   H11T11344   0.173  -0.721   9.618  1.8524 -0.2128  2.1418
  110OSM   C12S11345   0.280  -0.613   9.454 -0.1880 -0.7914  0.2819
  110OSM   H12S11346   0.374  -0.671   9.469 -0.7383 -1.3989  1.4958
  110OSM   H12T11347   0.299  -0.504   9.445 -0.2343 -0.8880 -1.1573
  110OSM   C13S11348   0.200  -0.655   9.328 -0.2151  0.2576 -0.5684
  110OSM   H13S11349   0.105  -0.598   9.337  0.7280  1.4663  5.3696
  110OSM   H13T11350   0.183  -0.765   9.330 -1.9287  0.4938  1.5623
  110OSM   C14S11351   0.260  -0.625   9.191  0.0046 -0.2656  0.1471
  110OSM   H14S11352   0.357  -0.678   9.174 -0.4300 -1.2979  0.7849
  110OSM   H14T11353   0.275  -0.515   9.184 -2.2488  0.3629  3.2142
  110OSM   C15S11354   0.175  -0.674   9.075  0.2794 -0.4716 -0.1131
  110OSM   H15S11355   0.219  -0.631   8.982  1.5477  0.3782  0.8535
  110OSM   H15T11356   0.072  -0.632   9.080 -0.8283 -2.6853 -2.1457
  110OSM   C16S11357   0.141  -0.821   9.063  0.4778 -0.1069 -0.0752
  110OSM   H16S11358   0.072  -0.852   9.144 -1.0609  0.5756 -1.0823
  110OSM   H16T11359   0.234  -0.882   9.058  1.0999  0.9220 -1.6878
  110OSM   C17S11360   0.068  -0.841   8.931  0.7709 -0.6702 -0.3317
  110OSM   H17S11361   0.132  -0.801   8.850  1.3722  1.8953  1.2854
  110OSM   H17T11362  -0.025  -0.779   8.937  1.5713  0.6107 -0.8469
  110OSM   C18S11363   0.027  -0.990   8.918  0.5569 -0.0502 -0.0039
  110OSM   H18S11364   0.127  -1.039   8.927  1.3840  1.4502 -0.6683
  110OSM   H18T11365  -0.014  -1.016   8.818 -1.9696  0.0343  0.9480
  110OSM   H18U11366  -0.042  -1.026   8.997  0.8211 -0.8375 -0.1249
  110OSM    C1F11367  -0.028  -0.145  10.359  0.4917 -0.3631  0.0499
  110OSM     OF11368   0.022  -0.052  10.414 -0.1068 -0.7440  0.1037
  110OSM    C2F11369  -0.130  -0.116  10.259  0.3656  0.1180  0.1577
  110OSM    H2F11370  -0.139  -0.005  10.257 -0.0153  0.1596  2.1626
  110OSM    H2G11371  -0.229  -0.153  10.293  1.1588 -1.0302  1.3114
  110OSM    C3F11372  -0.100  -0.179  10.121 -0.2358  0.0651  0.1155
  110OSM    H3F11373  -0.179  -0.142  10.052  0.7741  0.6060 -0.7977
  110OSM    H3G11374  -0.124  -0.287  10.122 -4.9086  0.8414 -2.0716
  110OSM    C4F11375   0.035  -0.145  10.054 -0.7003  0.0180  0.5495
  110OSM    H4F11376   0.124  -0.162  10.117  0.3755  2.0880 -0.3308
  110OSM    H4G11377   0.024  -0.038  10.028  1.7598 -0.1778 -1.6616
  110OSM    C5F11378   0.055  -0.210   9.917  0.0156 -0.2118  0.8672
  110OSM    H5F11379   0.016  -0.314   9.926 -1.0117  0.0782 -0.1041
  110OSM    H5G11380   0.160  -0.212   9.880 -0.2187  0.4921  0.1483
  110OSM    C6F11381  -0.024  -0.151   9.801  0.4097 -0.2648  0.1339
  110OSM    H6F11382  -0.009  -0.046   9.769 -0.8749 -0.1452 -0.1292
  110OSM    H6G11383  -0.130  -0.149   9.834 -0.1562  1.2966 -1.6461
  110OSM    C7F11384  -0.005  -0.241   9.674  0.5505 -0.3654  0.9722
  110OSM    H7F11385  -0.025  -0.345   9.705  0.0394  0.2481  2.8336
  110OSM    H7G11386   0.100  -0.223   9.641  0.3969  1.0611  1.1885
  110OSM    C8F11387  -0.103  -0.206   9.556  0.3216  0.3756 -0.0009
  110OSM    H8F11388  -0.069  -0.242   9.456 -2.8018 -0.1383 -1.0036
  110OSM    H8G11389  -0.122  -0.097   9.549 -2.0360 -0.0564 -1.8843
  110OSM    C9F11390  -0.243  -0.275   9.579 -0.0150 -0.5725 -0.2214
  110OSM    H9F11391  -0.299  -0.242   9.668  0.9604 -0.5273  0.3926
  110OSM   C10F11392  -0.298  -0.373   9.516  0.0493  0.2925 -0.7595
  110OSM   H10F11393  -0.395  -0.416   9.544 -1.3302  3.4669 -0.2219
  110OSM   C11F11394  -0.234  -0.451   9.410 -0.3880 -0.1636  0.3060
  110OSM   H11F11395  -0.240  -0.559   9.436 -0.0478 -0.4427 -0.7176
  110OSM   H11G11396  -0.128  -0.428   9.385 -0.3848  1.3454  1.5439
  110OSM   C12F11397  -0.326  -0.444   9.281  0.0420 -0.0976  0.5447
  110OSM   H12F11398  -0.420  -0.492   9.313  0.6062  0.3001  2.9873
  110OSM   H12G11399  -0.272  -0.516   9.215  1.3722  1.6425 -0.3696
  110OSM   C13F11400  -0.352  -0.302   9.230  0.0544 -0.0855 -0.6548
  110OSM   H13F11401  -0.255  -0.249   9.219  1.5787 -2.3838  0.8635
  110OSM   H13G11402  -0.404  -0.243   9.309  1.3342  0.6818 -0.3670
  110OSM   C14F11403  -0.441  -0.297   9.107 -0.0104 -0.0978 -0.8663
  110OSM   H14F11404  -0.419  -0.377   9.033  0.2500  0.7556 -1.7315
  110OSM   H14G11405  -0.438  -0.201   9.051 -1.4240  1.1141  0.9885
  110OSM   C15F11406  -0.594  -0.309   9.146 -0.0737  0.3429  0.3706
  110OSM   H15F11407  -0.612  -0.231   9.222 -0.7409  1.0806 -0.5260
  110OSM   H15G11408  -0.611  -0.416   9.172  0.3799 -0.1268 -1.1327
  110OSM   C16F11409  -0.690  -0.264   9.032 -0.3164 -0.2914  0.3919
  110OSM   H16F11410  -0.667  -0.318   8.938 -3.1292  0.2645 -0.7259
  110OSM   H16G11411  -0.661  -0.160   9.003  2.4740 -0.7081  1.3809
  110OSM   C17F11412  -0.840  -0.280   9.068  0.0239  0.6773 -0.1631
  110OSM   H17F11413  -0.854  -0.215   9.157 -0.7999 -0.5637  0.6320
  110OSM   H17G11414  -0.852  -0.384   9.105  0.2535  0.2376 -1.2716
  110OSM   C18F11415  -0.937  -0.267   8.955 -0.3022 -0.3965  1.0812
  110OSM   H18F11416  -0.926  -0.161   8.922  0.5902 -0.5893  0.7380
  110OSM   H18G11417  -1.039  -0.291   8.992  0.0137 -3.5306  0.1784
  110OSM   H18H11418  -0.924  -0.335   8.868  1.5533 -2.0218  2.5369
  111OSM      N11419   4.363   4.415  10.782  0.6584 -0.5211 -0.1060
  111OSM    C1511420   4.315   4.514  10.673  0.0766  0.1618 -0.0057
  111OSM   H15A11421   4.396   4.549  10.610  0.5655  1.0407  1.0675
  111OSM   H15B11422   4.266   4.596  10.723  0.1152 -0.2433  0.7199
  111OSM   H15C11423   4.241   4.463  10.614 -1.0385  1.4397  0.2461
  111OSM    C1411424   4.464   4.493  10.860  0.2480 -0.1576  0.4164
  111OSM   H14A11425   4.420   4.577  10.912  0.1507 -0.9976  1.7341
  111OSM   H14B11426   4.543   4.528  10.796  1.4691 -1.6082  1.0514
  111OSM   H14C11427   4.516   4.441  10.939  0.2303 -0.5768  0.1502
  111OSM    C1311428   4.246   4.368  10.869 -0.2864 -0.4097 -0.4329
  111OSM   H13A11429   4.153   4.349  10.817 -1.6737  0.4245  1.5750
  111OSM   H13B11430   4.213   4.445  10.938 -1.5028  1.8087 -3.2938
  111OSM   H13C11431   4.283   4.288  10.932  1.1063  1.3916  1.1630
  111OSM    C1211432   4.423   4.293  10.708  0.1483 -0.7489  0.6100
  111OSM   H12A11433   4.348   4.226  10.670  1.1149 -2.1847  1.1585
  111OSM   H12B11434   4.470   4.246  10.793  0.8347 -1.1918 -0.0039
  111OSM    C1111435   4.526   4.325  10.588  1.0202 -0.1698  0.5212
  111OSM   H11A11436   4.466   4.383  10.514 -1.2869 -0.2279  2.2207
  111OSM   H11B11437   4.557   4.228  10.546  1.6282  0.2591 -0.0359
  111OSM      P11438   4.762   4.337  10.704  0.0388 -0.0888  0.2484
  111OSM    O1311439   4.838   4.449  10.767 -0.0284 -0.0481 -0.8604
  111OSM    O1411440   4.701   4.235  10.799 -0.0471  0.2594  0.0246
  111OSM    O1111441   4.843   4.264  10.590 -0.1926  0.1472 -0.4505
  111OSM    O1211442   4.635   4.403  10.635 -0.1529 -0.5940 -0.0956
  111OSM    C1S11443   4.831   4.279  10.456  0.1119 -0.7165 -0.0600
  111OSM    H1S11444   4.878   4.374  10.424 -1.3838 -0.3629 -1.3274
  111OSM    H1T11445   4.724   4.291  10.428  0.7595  3.2542 -1.5251
  111OSM     NF11446   4.910   4.188  10.236 -0.2858 -0.0054  0.5051
  111OSM    HNF11447   4.828   4.166  10.184  0.7444 -0.3451 -1.0260
  111OSM    C2S11448   4.897   4.161  10.382 -0.1624  0.0547  0.8237
  111OSM    H2S11449   5.003   4.164  10.414 -0.2279 -1.9766  1.3654
  111OSM    C3S11450   4.822   4.023  10.410 -0.1156 -0.4207  0.3561
  111OSM    H3S11451   4.716   4.027  10.377  0.3308 -0.9400 -1.2204
  111OSM     O311452   4.832   3.988  10.546  0.0372  0.2653 -0.3523
  111OSM    HO311453   4.821   4.072  10.591  1.2519 -0.7031  1.9307
  111OSM    C4S11454   4.893   3.908  10.344  0.2247 -0.0907 -0.5240
  111OSM    H4S11455   4.991   3.888  10.391 -0.8138 -0.9989  1.3701
  111OSM    C5S11456   4.849   3.834  10.234 -0.2468  0.2900 -0.8485
  111OSM    H5S11457   4.750   3.866  10.200 -0.1707  3.1107  1.2155
  111OSM    C6S11458   4.928   3.722  10.171 -0.0693  0.3338 -0.3261
  111OSM    H6S11459   4.866   3.632  10.153  0.6586 -0.3828  0.6500
  111OSM    H6T11460   5.016   3.699  10.235 -0.8025  1.0204  0.9776
  111OSM    C7S11461   4.976   3.768  10.035  0.2221  0.0611  0.3801
  111OSM    H7S11462   5.068   3.708  10.015  1.5146  2.0324  0.1033
  111OSM    H7T11463   5.008   3.875  10.036  0.3800  0.0205 -0.1244
  111OSM    C8S11464   4.868   3.750   9.928  0.5614 -0.0177 -0.0463
  111OSM    H8S11465   4.770   3.790   9.960  0.3203  0.4872 -1.3472
  111OSM    H8T11466   4.847   3.644   9.900  0.4532 -0.3145  1.1357
  111OSM    C9S11467   4.919   3.811   9.793  0.2038 -0.2902 -0.4434
  111OSM    H9S11468   5.015   3.764   9.762 -0.4134 -2.1815  0.3968
  111OSM    H9T11469   4.942   3.919   9.804  0.3523 -0.2338 -1.2381
  111OSM   C10S11470   4.815   3.785   9.679  1.0698  0.7800 -0.3638
  111OSM   H10S11471   4.715   3.824   9.707 -0.4974 -2.8912 -0.3330
  111OSM   H10T11472   4.799   3.675   9.682  1.5450  0.7215  1.1955
  111OSM   C11S11473   4.868   3.841   9.542  0.5165 -0.0816 -0.0526
  111OSM   H11S11474   4.957   3.777   9.522 -0.4186 -1.4706  0.0746
  111OSM   H11T11475   4.912   3.943   9.552 -0.2961  0.2916 -0.1976
  111OSM   C12S11476   4.769   3.830   9.425  0.0737  0.0479 -0.1891
  111OSM   H12S11477   4.677   3.890   9.445  0.3385  0.6473 -0.7227
  111OSM   H12T11478   4.742   3.723   9.417  0.6664 -0.2622  1.5003
  111OSM   C13S11479   4.838   3.877   9.294  1.2982 -0.2520 -0.9358
  111OSM   H13S11480   4.935   3.823   9.303  0.3041 -1.8759  0.8690
  111OSM   H13T11481   4.845   3.986   9.316 -2.1203 -0.3041  1.2770
  111OSM   C14S11482   4.769   3.843   9.163  0.4716 -0.3980 -0.6464
  111OSM   H14S11483   4.659   3.855   9.164  0.3753 -1.2484 -0.3497
  111OSM   H14T11484   4.795   3.738   9.140 -1.1009 -1.3660  1.6807
  111OSM   C15S11485   4.819   3.934   9.051 -0.2970 -0.0491  1.0134
  111OSM   H15S11486   4.788   4.040   9.065  0.7421  0.1594  1.8209
  111OSM   H15T11487   4.772   3.924   8.951 -0.4298  2.4809  0.7624
  111OSM   C16S11488   4.971   3.933   9.027 -0.5234 -0.0013  0.2983
  111OSM   H16S11489   5.021   3.866   9.100  2.2798  0.5849 -0.9489
  111OSM   H16T11490   5.002   4.038   9.047  0.0718 -0.1690  0.2810
  111OSM   C17S11491   5.021   3.901   8.882 -0.1420  0.0843 -0.3207
  111OSM   H17S11492   4.983   3.980   8.815  0.1161  0.7872  0.3493
  111OSM   H17T11493   4.973   3.806   8.849 -0.5271  0.6530 -1.4392
  111OSM   C18S11494   5.174   3.895   8.864 -0.4907 -0.0586  0.1914
  111OSM   H18S11495   5.200   3.881   8.757  2.1276 -0.0983  0.7633
  111OSM   H18T11496   5.210   3.813   8.929 -2.3710 -1.8113 -0.8462
  111OSM   H18U11497   5.226   3.986   8.902 -0.4672  0.0123 -0.0090
  111OSM    C1F11498   5.010   4.260  10.182 -0.0605  0.2766 -0.2340
  111OSM     OF11499   5.083   4.335  10.244 -0.6705  0.1938  0.3668
  111OSM    C2F11500   5.023   4.235  10.032 -0.2659 -0.4178 -1.2630
  111OSM    H2F11501   4.943   4.306  10.003  0.0812  0.3394 -0.3869
  111OSM    H2G11502   4.991   4.130  10.013  0.5863 -0.7583 -0.8873
  111OSM    C3F11503   5.164   4.274   9.987  0.0343  0.4456  0.4341
  111OSM    H3F11504   5.249   4.209  10.016  0.6116  1.1306  0.3213
  111OSM    H3G11505   5.194   4.378  10.013 -2.1633  1.8606 -2.1523
  111OSM    C4F11506   5.182   4.269   9.828  0.5658  0.1211  0.1100
  111OSM    H4F11507   5.288   4.274   9.795  0.5818 -0.5189  0.0479
  111OSM    H4G11508   5.124   4.356   9.793 -4.3399 -2.2232  1.5335
  111OSM    C5F11509   5.115   4.146   9.752  0.8796  0.0575 -0.5648
  111OSM    H5F11510   5.008   4.146   9.780  1.3495 -0.7017  1.3621
  111OSM    H5G11511   5.166   4.052   9.781 -0.0540 -1.0797 -2.4269
  111OSM    C6F11512   5.119   4.152   9.601 -0.3444  0.0055 -0.8207
  111OSM    H6F11513   5.083   4.057   9.557 -0.2778  0.0509 -0.9742
  111OSM    H6G11514   5.223   4.169   9.565  0.3449 -1.4988  0.3453
  111OSM    C7F11515   5.027   4.264   9.551 -0.1636  0.4936 -0.0206
  111OSM    H7F11516   5.055   4.362   9.596 -0.9088  0.8428 -0.2867
  111OSM    H7G11517   4.922   4.239   9.578 -0.7093  2.6986  0.1434
  111OSM    C8F11518   5.041   4.285   9.400  0.3475 -0.6149  0.2007
  111OSM    H8F11519   4.952   4.343   9.367  1.0590  0.0006 -0.6387
  111OSM    H8G11520   5.027   4.196   9.335  2.6840 -1.2627  0.5137
  111OSM    C9F11521   5.164   4.358   9.357  0.2696 -0.1923 -0.0240
  111OSM    H9F11522   5.220   4.403   9.440 -0.0920 -1.3569  0.8855
  111OSM   C10F11523   5.202   4.394   9.229 -0.1482 -0.1126 -0.0195
  111OSM   H10F11524   5.296   4.446   9.206 -0.6217 -0.1105 -2.1695
  111OSM   C11F11525   5.134   4.349   9.101  0.5111 -0.1884 -0.0968
  111OSM   H11F11526   5.029   4.315   9.108  0.4941 -0.4095 -1.2563
  111OSM   H11G11527   5.191   4.260   9.067 -0.9643 -1.6147  1.0074
  111OSM   C12F11528   5.123   4.462   8.997  0.9856  0.2108  0.0220
  111OSM   H12F11529   5.050   4.529   9.047 -0.1421 -0.9559 -0.0043
  111OSM   H12G11530   5.076   4.424   8.904  3.0092 -2.8105  0.0969
  111OSM   C13F11531   5.260   4.525   8.954 -0.4521 -0.0558  0.4517
  111OSM   H13F11532   5.320   4.440   8.914 -1.2453  0.5218 -2.1281
  111OSM   H13G11533   5.305   4.576   9.042 -2.2846  1.0969  0.7643
  111OSM   C14F11534   5.242   4.628   8.844  0.3898 -0.2580  0.5008
  111OSM   H14F11535   5.326   4.700   8.836  1.1365 -1.1388  0.2162
  111OSM   H14G11536   5.156   4.691   8.874  0.8337 -0.5248  2.4347
  111OSM   C15F11537   5.220   4.566   8.708  0.8230 -0.0319 -0.1474
  111OSM   H15F11538   5.177   4.638   8.635  1.1066  0.2374 -0.0533
  111OSM   H15G11539   5.139   4.491   8.719  0.1606  0.4127 -1.7854
  111OSM   C16F11540   5.352   4.528   8.632  0.5877 -0.0972 -0.1189
  111OSM   H16F11541   5.404   4.455   8.698 -0.5227  1.1241  2.2300
  111OSM   H16G11542   5.407   4.623   8.617 -0.3526  0.4979  0.1396
  111OSM   C17F11543   5.332   4.476   8.489 -0.9942  0.5024  0.1868
  111OSM   H17F11544   5.278   4.548   8.424 -0.0154  0.7639 -0.3503
  111OSM   H17G11545   5.273   4.382   8.487  0.0052 -0.1290 -1.0613
  111OSM   C18F11546   5.473   4.447   8.436 -0.1128 -0.0897 -0.0191
  111OSM   H18F11547   5.451   4.399   8.339 -0.1116 -2.6739  1.1917
  111OSM   H18G11548   5.529   4.368   8.490 -0.3259 -0.9072 -0.9811
  111OSM   H18H11549   5.534   4.539   8.418 -2.4026  1.5110 -0.1073
  112OSM      N11550   4.613   0.004  11.393 -0.3215  0.3502  0.2765
  112OSM    C1511551   4.541  -0.125  11.435  0.3833 -0.3828  0.3448
  112OSM   H15A11552   4.562  -0.205  11.365 -2.8039 -0.8146 -0.2566
  112OSM   H15B11553   4.434  -0.111  11.435  0.4029  0.0412  2.3576
  112OSM   H15C11554   4.564  -0.156  11.536  1.7667  0.1012  0.2059
  112OSM    C1411555   4.556   0.123  11.462  0.2526 -0.3091 -0.1316
  112OSM   H14A11556   4.546   0.104  11.568 -1.2615  0.1707 -0.1763
  112OSM   H14B11557   4.462   0.146  11.416  0.5005 -2.7200 -2.0689
  112OSM   H14C11558   4.616   0.211  11.444 -1.6085  0.7904 -1.2493
  112OSM    C1311559   4.757   0.007  11.441  0.0880 -0.2072 -0.1470
  112OSM   H13A11560   4.807  -0.080  11.400  0.1806 -1.3844  2.3278
  112OSM   H13B11561   4.759  -0.002  11.548  2.3472 -0.8313 -0.1932
  112OSM   H13C11562   4.818   0.093  11.420  0.0966 -0.3777 -0.8604
  112OSM    C1211563   4.612   0.019  11.248  0.1506  0.3306  0.4535
  112OSM   H12A11564   4.512  -0.008  11.215 -0.5060  3.3342 -0.2942
  112OSM   H12B11565   4.686  -0.048  11.208  2.0859  0.9931  2.7416
  112OSM    C1111566   4.668   0.155  11.191 -0.3223  0.0802 -0.0487
  112OSM   H11A11567   4.606   0.242  11.223 -1.4539  1.3604 -4.7592
  112OSM   H11B11568   4.645   0.140  11.083 -0.5342  0.1856 -0.0191
  112OSM      P11569   4.912   0.115  11.104  0.0893 -0.4139  0.1743
  112OSM    O1311570   5.019   0.212  11.099  0.2964 -0.4291  0.2793
  112OSM    O1411571   4.943  -0.027  11.138 -0.1774 -0.5264  0.9040
  112OSM    O1111572   4.839   0.111  10.965  0.4485  0.1221  0.4534
  112OSM    O1211573   4.804   0.176  11.206 -0.2379  0.6767  0.1049
  112OSM    C1S11574   4.854   0.206  10.864 -0.1419 -0.1889 -0.1503
  112OSM    H1S11575   4.962   0.218  10.839 -0.0341 -0.1630  0.3328
  112OSM    H1T11576   4.814   0.299  10.909  0.2914  0.1588 -0.4708
  112OSM     NF11577   4.795   0.270  10.631  0.0932  0.1969 -0.7574
  112OSM    HNF11578   4.714   0.326  10.613  0.7248  1.3920 -0.0708
  112OSM    C2S11579   4.774   0.171  10.734  0.0389 -0.3912 -0.0309
  112OSM    H2S11580   4.823   0.077  10.701 -1.1126  0.0211 -3.3578
  112OSM    C3S11581   4.622   0.141  10.772 -0.5368 -0.1912 -0.7290
  112OSM    H3S11582   4.571   0.231  10.814 -0.4892 -0.1453 -0.7695
  112OSM     O311583   4.615   0.024  10.857 -0.1172 -0.3521  0.3818
  112OSM    HO311584   4.706   0.018  10.889  1.0890 -1.2583 -2.7746
  112OSM    C4S11585   4.564   0.096  10.639 -0.0417 -0.5298 -0.5745
  112OSM    H4S11586   4.597  -0.003  10.604 -1.4144 -1.6538  1.1615
  112OSM    C5S11587   4.468   0.155  10.571  0.1273  0.1166 -0.3366
  112OSM    H5S11588   4.408   0.237  10.613 -1.3932 -0.9078 -0.4210
  112OSM    C6S11589   4.415   0.113  10.428  0.3964  0.1894 -0.7587
  112OSM    H6S11590   4.435   0.199  10.361 -0.6578 -0.5480 -2.0774
  112OSM    H6T11591   4.305   0.094  10.431  0.5490 -0.6346  0.5502
  112OSM    C7S11592   4.479  -0.007  10.364  0.0082 -0.0197 -0.3978
  112OSM    H7S11593   4.431  -0.100  10.400  1.0915 -0.3875  0.1445
  112OSM    H7T11594   4.588  -0.011  10.387 -0.1936  1.5637  0.9853
  112OSM    C8S11595   4.466  -0.011  10.207  0.3380 -0.8195 -0.0075
  112OSM    H8S11596   4.360   0.012  10.185  0.6128 -1.9366 -2.8813
  112OSM    H8T11597   4.505  -0.108  10.169  2.0373 -0.8173  1.5455
  112OSM    C9S11598   4.558   0.083  10.137  0.1010  0.0409 -0.1744
  112OSM    H9S11599   4.665   0.081  10.167 -0.3183  1.9815  1.6961
  112OSM    H9T11600   4.533   0.186  10.170  1.3479  0.3169 -0.0478
  112OSM   C10S11601   4.541   0.087   9.984  1.1775  0.2232  0.0379
  112OSM   H10S11602   4.436   0.120   9.967  1.1304  0.5237  0.8357
  112OSM   H10T11603   4.567  -0.015   9.949  0.6432 -0.5874  1.8679
  112OSM   C11S11604   4.645   0.178   9.913 -0.3244 -0.4993  0.0315
  112OSM   H11S11605   4.747   0.148   9.943  0.0311  0.8159  0.2010
  112OSM   H11T11606   4.634   0.274   9.968 -1.9077 -1.5115  1.5825
  112OSM   C12S11607   4.626   0.186   9.757 -0.8579 -0.2906 -0.7048
  112OSM   H12S11608   4.609   0.085   9.716  1.7001  0.1062 -3.0137
  112OSM   H12T11609   4.726   0.221   9.723 -0.9309 -0.4911 -1.1303
  112OSM   C13S11610   4.517   0.291   9.734  0.2537 -0.3355  0.5817
  112OSM   H13S11611   4.520   0.387   9.788 -0.2490  2.0272 -3.2203
  112OSM   H13T11612   4.423   0.243   9.768  0.0599 -0.9198 -0.6908
  112OSM   C14S11613   4.504   0.318   9.583  1.2678 -0.3201  0.2675
  112OSM   H14S11614   4.403   0.353   9.554  1.1127 -1.8933 -1.2059
  112OSM   H14T11615   4.514   0.223   9.526  0.4866  0.6748 -1.5957
  112OSM   C15S11616   4.603   0.430   9.543 -0.0041 -0.2944 -0.2464
  112OSM   H15S11617   4.707   0.411   9.576  0.3870  0.4229 -1.0106
  112OSM   H15T11618   4.573   0.518   9.604 -0.7351  0.6337 -1.8554
  112OSM   C16S11619   4.597   0.472   9.394  0.4331  0.4455  0.0019
  112OSM   H16S11620   4.655   0.567   9.394  0.9239  0.1878  1.9426
  112OSM   H16T11621   4.491   0.483   9.363  0.8031  0.9518 -1.1292
  112OSM   C17S11622   4.658   0.365   9.303 -0.3236 -0.0370 -0.0995
  112OSM   H17S11623   4.588   0.279   9.317 -0.6775 -0.0441 -1.6916
  112OSM   H17T11624   4.762   0.337   9.329 -0.5863 -2.9931 -1.7693
  112OSM   C18S11625   4.651   0.421   9.162  0.1443  0.2347  0.5507
  112OSM   H18S11626   4.548   0.441   9.123  0.1139 -0.1673  0.4202
  112OSM   H18T11627   4.700   0.342   9.102  1.6234 -0.2721  2.3491
  112OSM   H18U11628   4.718   0.508   9.148 -0.2542  0.1578 -2.6960
  112OSM    C1F11629   4.893   0.258  10.544  0.3975  0.1616  0.0386
  112OSM     OF11630   4.957   0.156  10.546  0.1840 -0.4650 -0.0240
  112OSM    C2F11631   4.914   0.363  10.441  0.3850  0.5459  0.2321
  112OSM    H2F11632   5.007   0.422  10.459 -0.6926  1.3839  4.0373
  112OSM    H2G11633   4.847   0.449  10.465  0.7822  0.3235  2.3347
  112OSM    C3F11634   4.897   0.297  10.299 -0.0209 -0.3519  0.2782
  112OSM    H3F11635   4.797   0.251  10.286 -0.5784  0.4603  1.5215
  112OSM    H3G11636   4.972   0.214  10.300 -0.7248 -1.0495 -1.2915
  112OSM    C4F11637   4.928   0.385  10.177 -0.4754  0.5603  0.5303
  112OSM    H4F11638   4.959   0.324  10.090 -0.0434  0.2050  0.9297
  112OSM    H4G11639   5.021   0.440  10.199  0.6507 -1.9031  2.4592
  112OSM    C5F11640   4.805   0.466  10.133 -0.0970  0.4328  0.1193
  112OSM    H5F11641   4.771   0.536  10.213 -0.1546 -0.0062  0.4844
  112OSM    H5G11642   4.721   0.397  10.108  0.9370 -0.7265 -0.2243
  112OSM    C6F11643   4.831   0.554  10.011 -0.3918 -0.3201 -0.9840
  112OSM    H6F11644   4.834   0.484   9.924  1.1153 -1.3769 -0.1205
  112OSM    H6G11645   4.927   0.609  10.008 -0.5217 -0.1151 -1.4450
  112OSM    C7F11646   4.721   0.645   9.966  0.1506  0.6440  0.2267
  112OSM    H7F11647   4.687   0.708  10.051 -2.7839  2.3696 -2.0445
  112OSM    H7G11648   4.630   0.586   9.946 -0.4591  1.2516  1.0980
  112OSM    C8F11649   4.754   0.752   9.848  0.0835  0.2434  0.1477
  112OSM    H8F11650   4.801   0.836   9.903 -2.7418  1.0609  1.5066
  112OSM    H8G11651   4.658   0.798   9.816 -1.4370 -2.5412  0.3895
  112OSM    C9F11652   4.839   0.721   9.731  0.6405 -0.2874 -0.0057
  112OSM    H9F11653   4.909   0.637   9.743  0.1051 -0.8259 -0.5573
  112OSM   C10F11654   4.835   0.778   9.607  1.0530 -0.5037 -0.3129
  112OSM   H10F11655   4.904   0.741   9.529  2.0258 -1.0604  0.7851
  112OSM   C11F11656   4.748   0.893   9.565  0.9039  0.6161  0.3682
  112OSM   H11F11657   4.800   0.991   9.558 -3.3871  3.0774 -1.2428
  112OSM   H11G11658   4.665   0.906   9.637 -1.1754 -1.9777 -1.3710
  112OSM   C12F11659   4.679   0.879   9.430 -0.1424  0.2774  0.4354
  112OSM   H12F11660   4.593   0.948   9.419  1.9745  2.7374 -2.5396
  112OSM   H12G11661   4.640   0.778   9.410 -0.3959  0.5450 -0.4685
  112OSM   C13F11662   4.763   0.918   9.304  0.0722  0.2700 -0.1850
  112OSM   H13F11663   4.869   0.884   9.313 -0.0604  0.0565  0.5877
  112OSM   H13G11664   4.753   1.028   9.296  0.9768  0.5098  1.5418
  112OSM   C14F11665   4.702   0.855   9.170 -0.0618  0.0699  0.6486
  112OSM   H14F11666   4.594   0.883   9.176 -0.2107 -0.7996  3.9514
  112OSM   H14G11667   4.705   0.745   9.184  0.6559  0.0286  0.1894
  112OSM   C15F11668   4.766   0.892   9.041 -0.1599  0.2360  0.6034
  112OSM   H15F11669   4.860   0.834   9.052 -0.5268 -0.4191  0.3341
  112OSM   H15G11670   4.786   1.002   9.044  1.0798  0.0295  0.2529
  112OSM   C16F11671   4.675   0.871   8.917  0.8339  0.2590  0.6581
  112OSM   H16F11672   4.701   0.936   8.831  2.3863  1.3338  1.8957
  112OSM   H16G11673   4.575   0.911   8.943  0.0421 -0.4345 -1.1387
  112OSM   C17F11674   4.662   0.728   8.866 -0.2996  0.7468 -0.2812
  112OSM   H17F11675   4.573   0.722   8.799 -1.7349 -2.1858  1.6687
  112OSM   H17G11676   4.647   0.644   8.938 -1.4387  0.0286 -1.3107
  112OSM   C18F11677   4.785   0.681   8.792 -0.0231  0.4895 -0.4159
  112OSM   H18F11678   4.879   0.688   8.851 -0.6119  1.4996  0.4214
  112OSM   H18G11679   4.790   0.733   8.694 -0.7148  0.7542 -0.3175
  112OSM   H18H11680   4.785   0.572   8.767 -0.2966  0.5047 -0.4896
  113OSM      N11681   5.716   6.446  11.203 -0.0404  0.4457  0.2963
  113OSM    C1511682   5.594   6.426  11.277  0.5908 -0.1089  0.5691
  113OSM   H15A11683   5.611   6.438  11.383  1.1194 -1.2137  0.6233
  113OSM   H15B11684   5.543   6.334  11.251  0.0615  0.5111 -0.6948
  113OSM   H15C11685   5.524   6.500  11.242  1.5182  0.0977 -0.9514
  113OSM    C1411686   5.752   6.592  11.214  0.4771  0.2256 -0.5413
  113OSM   H14A11687   5.764   6.605  11.320 -1.5666  0.7644 -0.3370
  113OSM   H14B11688   5.674   6.653  11.172  0.4623  0.3396 -0.3449
  113OSM   H14C11689   5.844   6.617  11.163  1.3391 -0.2849  0.7267
  113OSM    C1311690   5.820   6.357  11.265  0.3289 -0.0577 -0.7935
  113OSM   H13A11691   5.829   6.391  11.367  1.0655 -2.5483  0.0440
  113OSM   H13B11692   5.919   6.369  11.224  1.3691 -0.2088  1.5398
  113OSM   H13C11693   5.799   6.251  11.266  5.7085 -1.4238 -0.9754
  113OSM    C1211694   5.696   6.402  11.057  0.4467 -0.3271 -1.2410
  113OSM   H12A11695   5.661   6.300  11.053 -3.7471  0.9032 -1.3390
  113OSM   H12B11696   5.795   6.411  11.016  2.1131 -0.4785  2.3607
  113OSM    C1111697   5.596   6.489  10.975  0.9222  0.3086  0.5000
  113OSM   H11A11698   5.615   6.477  10.867 -0.4173 -2.1116  0.4702
  113OSM   H11B11699   5.628   6.595  10.981 -1.4948  1.2543 -1.6273
  113OSM      P11700   5.347   6.396  10.965 -0.3522  0.4873  0.0556
  113OSM    O1311701   5.377   6.260  11.005  0.3671  0.3710 -1.0597
  113OSM    O1411702   5.218   6.447  11.014  0.3848  0.3625  0.1275
  113OSM    O1111703   5.349   6.411  10.812 -0.2801  0.4342 -0.2830
  113OSM    O1211704   5.460   6.484  11.020 -0.2441  0.0875  0.2778
  113OSM    C1S11705   5.301   6.522  10.739 -0.8830  0.3909  0.7531
  113OSM    H1S11706   5.377   6.602  10.749 -1.7592  1.4574 -0.7269
  113OSM    H1T11707   5.204   6.556  10.782 -0.4110  0.7215  1.5714
  113OSM     NF11708   5.250   6.612  10.506  0.2107  0.0143  0.0710
  113OSM    HNF11709   5.163   6.604  10.457  1.1184  2.5249 -2.1553
  113OSM    C2S11710   5.284   6.491  10.582  0.0528 -0.0112  0.4200
  113OSM    H2S11711   5.390   6.467  10.560  0.2147  0.8604  0.1929
  113OSM    C3S11712   5.192   6.367  10.551 -0.7159  0.0229 -0.1852
  113OSM    H3S11713   5.086   6.392  10.576 -1.2620 -3.1060  1.0367
  113OSM     O311714   5.221   6.254  10.631 -0.4063 -0.4122 -0.3132
  113OSM    HO311715   5.280   6.301  10.690  0.2434 -0.9239 -0.5439
  113OSM    C4S11716   5.210   6.334  10.409 -0.3498 -0.0333  0.1283
  113OSM    H4S11717   5.116   6.349  10.354 -0.3761  1.1082  0.4657
  113OSM    C5S11718   5.313   6.286  10.335  0.0867 -0.1397 -0.1087
  113OSM    H5S11719   5.404   6.260  10.391  0.3472  1.8811  0.4817
  113OSM    C6S11720   5.323   6.254  10.186 -0.0793 -1.3194 -0.4282
  113OSM    H6S11721   5.338   6.144  10.182  0.3009 -1.3039  0.4725
  113OSM    H6T11722   5.412   6.312  10.155 -1.9098  2.1968  0.3494
  113OSM    C7S11723   5.212   6.285  10.082 -0.5997  0.4092  0.3597
  113OSM    H7S11724   5.204   6.394  10.062 -0.7063  0.3050 -0.1973
  113OSM    H7T11725   5.113   6.245  10.112 -1.9747  2.2113 -1.4671
  113OSM    C8S11726   5.252   6.228   9.941  0.2833 -0.4145 -0.4569
  113OSM    H8S11727   5.173   6.255   9.868  0.4024  2.4522  0.3287
  113OSM    H8T11728   5.250   6.118   9.953  0.0320 -0.3003  0.5990
  113OSM    C9S11729   5.379   6.285   9.878  0.2254  0.2049  0.5940
  113OSM    H9S11730   5.467   6.271   9.944 -0.7518  1.6675  2.2901
  113OSM    H9T11731   5.365   6.395   9.870 -0.2361  0.0725 -0.7332
  113OSM   C10S11732   5.414   6.251   9.725  0.1884  0.2389 -0.6861
  113OSM   H10S11733   5.377   6.147   9.709 -1.8610  0.7410  0.4663
  113OSM   H10T11734   5.524   6.250   9.714  0.1867 -0.6044 -0.6857
  113OSM   C11S11735   5.350   6.350   9.628 -0.2327  0.1778  0.1411
  113OSM   H11S11736   5.424   6.432   9.623  0.8532 -0.8048 -0.4765
  113OSM   H11T11737   5.250   6.383   9.665 -0.8580  0.0090 -1.3057
  113OSM   C12S11738   5.364   6.287   9.494  0.4296 -0.5595  0.7926
  113OSM   H12S11739   5.300   6.354   9.432 -1.0838 -1.0187  1.7843
  113OSM   H12T11740   5.311   6.190   9.492 -0.0087 -0.3628 -2.5998
  113OSM   C13S11741   5.505   6.284   9.443 -0.4823 -0.6054  0.0231
  113OSM   H13S11742   5.570   6.220   9.506  1.9171  1.2095 -0.5052
  113OSM   H13T11743   5.533   6.389   9.462 -0.6389 -0.3607 -1.0320
  113OSM   C14S11744   5.525   6.254   9.297  0.4434 -0.0327  0.2344
  113OSM   H14S11745   5.487   6.153   9.272  1.4815 -0.1004 -1.2457
  113OSM   H14T11746   5.636   6.245   9.290  0.6961  0.2283  2.9652
  113OSM   C15S11747   5.461   6.362   9.209 -0.1096  0.5104  0.1297
  113OSM   H15S11748   5.499   6.458   9.250  3.7064 -0.9794  0.5060
  113OSM   H15T11749   5.350   6.363   9.216 -0.0198 -0.6481  3.2368
  113OSM   C16S11750   5.515   6.339   9.065 -0.1285  0.1319  0.0755
  113OSM   H16S11751   5.464   6.254   9.016 -0.4476  0.2803  0.1478
  113OSM   H16T11752   5.622   6.308   9.059 -0.1665  0.3096 -2.3210
  113OSM   C17S11753   5.482   6.461   8.969  0.5340 -0.5593 -0.8309
  113OSM   H17S11754   5.503   6.553   9.028 -3.0022 -1.4209  2.1113
  113OSM   H17T11755   5.372   6.469   8.959  0.2790 -3.3760 -1.0820
  113OSM   C18S11756   5.528   6.455   8.830  0.3039 -0.8451  0.2706
  113OSM   H18S11757   5.506   6.555   8.787 -0.7027 -1.7863 -1.5476
  113OSM   H18T11758   5.476   6.379   8.768  0.1186  0.2631 -0.9654
  113OSM   H18U11759   5.638   6.445   8.834  0.4468  0.7494  1.5089
  113OSM    C1F11760   5.335   6.716  10.500 -0.2923 -0.5672  0.4271
  113OSM     OF11761   5.441   6.727  10.560  0.2773 -0.4683  0.2123
  113OSM    C2F11762   5.286   6.827  10.405 -0.0717  0.0834  0.0403
  113OSM    H2F11763   5.321   6.918  10.458  0.7215 -0.7774  1.0338
  113OSM    H2G11764   5.175   6.827  10.409 -0.0402  0.3892  1.0353
  113OSM    C3F11765   5.335   6.795  10.263  0.1453 -0.4744 -0.1510
  113OSM    H3F11766   5.307   6.889  10.211  0.9524  0.4413  1.0187
  113OSM    H3G11767   5.276   6.712  10.220  1.6102 -1.1939 -0.8244
  113OSM    C4F11768   5.484   6.772  10.235  0.1177 -0.2529  0.5495
  113OSM    H4F11769   5.520   6.669  10.258  1.9640  0.4335  0.9479
  113OSM    H4G11770   5.541   6.835  10.306  1.8436 -0.6465 -0.4163
  113OSM    C5F11771   5.538   6.795  10.101 -0.1193 -0.1416 -0.4489
  113OSM    H5F11772   5.640   6.751  10.097 -1.0933 -2.4197 -1.7741
  113OSM    H5G11773   5.545   6.905  10.084 -0.1615 -0.3578 -1.9807
  113OSM    C6F11774   5.457   6.747   9.979  0.6910 -0.0644 -0.4350
  113OSM    H6F11775   5.357   6.796   9.982  0.4773 -0.5124 -0.0742
  113OSM    H6G11776   5.443   6.638   9.994 -0.9293  0.1578 -0.1141
  113OSM    C7F11777   5.521   6.781   9.845  0.2177  0.5182  0.3994
  113OSM    H7F11778   5.627   6.753   9.863 -0.3107 -1.2611  0.9394
  113OSM    H7G11779   5.517   6.891   9.828  2.6534  0.9944  2.3519
  113OSM    C8F11780   5.461   6.703   9.731 -0.5363 -0.1455 -0.5622
  113OSM    H8F11781   5.357   6.741   9.725  0.4570  2.7799 -0.7646
  113OSM    H8G11782   5.458   6.598   9.768 -2.3531 -0.1022 -0.4660
  113OSM    C9F11783   5.540   6.710   9.601  0.9579 -0.4065  0.2847
  113OSM    H9F11784   5.646   6.683   9.602  1.3042  0.8298 -0.6434
  113OSM   C10F11785   5.494   6.765   9.484  0.4633  0.2728  0.1829
  113OSM   H10F11786   5.558   6.766   9.395  0.6673 -1.6586  0.2772
  113OSM   C11F11787   5.358   6.825   9.460  0.6758 -0.0187 -0.7767
  113OSM   H11F11788   5.307   6.847   9.557 -1.6977 -2.1359 -1.4196
  113OSM   H11G11789   5.296   6.744   9.414 -3.2275  3.4777 -2.3526
  113OSM   C12F11790   5.362   6.947   9.368  0.0808 -0.1721 -0.3155
  113OSM   H12F11791   5.454   6.999   9.401 -0.4169  0.4747  0.0668
  113OSM   H12G11792   5.273   7.003   9.404  0.1874  0.9815 -1.7729
  113OSM   C13F11793   5.358   6.911   9.219  0.4227 -0.1803 -0.1217
  113OSM   H13F11794   5.436   6.835   9.200  0.9455  0.0104  1.1290
  113OSM   H13G11795   5.380   7.004   9.162 -3.5847  1.6040  0.9387
  113OSM   C14F11796   5.219   6.861   9.172 -0.7446  0.3955 -0.1433
  113OSM   H14F11797   5.140   6.923   9.219  0.4653  0.0870  2.5174
  113OSM   H14G11798   5.214   6.760   9.219  0.1442  1.0003  1.3226
  113OSM   C15F11799   5.208   6.830   9.024  0.1161  1.0274  0.1711
  113OSM   H15F11800   5.113   6.776   9.003  1.1866 -0.2485 -1.6519
  113OSM   H15G11801   5.282   6.754   8.991 -1.3817 -0.0019 -0.9403
  113OSM   C16F11802   5.227   6.951   8.931 -0.4614  0.6332  0.4029
  113OSM   H16F11803   5.329   6.995   8.938 -0.2159 -0.1202  1.8417
  113OSM   H16G11804   5.157   7.032   8.961 -0.3590  1.1245 -0.6471
  113OSM   C17F11805   5.205   6.912   8.792 -0.1174 -0.9606  0.5971
  113OSM   H17F11806   5.098   6.881   8.785  0.0908 -1.4721 -0.4005
  113OSM   H17G11807   5.271   6.828   8.761 -0.8292 -1.3561  0.1236
  113OSM   C18F11808   5.231   7.027   8.697  0.4654 -0.1112 -0.2737
  113OSM   H18F11809   5.341   7.035   8.685  0.5088  0.5318  0.4682
  113OSM   H18G11810   5.179   7.117   8.735 -0.5841  0.0366 -1.9822
  113OSM   H18H11811   5.181   7.004   8.601 -1.9857 -1.7360  1.2594
  114OSM      N11812   3.712   2.463  11.133  0.1971  0.0349 -0.0120
  114OSM    C1511813   3.819   2.537  11.215  0.5238 -0.3038  0.0627
  114OSM   H15A11814   3.863   2.474  11.291 -2.8550 -1.9454  0.8401
  114OSM   H15B11815   3.777   2.627  11.257 -1.0467 -0.3359 -1.3456
  114OSM   H15C11816   3.900   2.565  11.149  0.3575 -2.0433 -0.9223
  114OSM    C1411817   3.609   2.411  11.230  0.3181 -0.2540 -0.3025
  114OSM   H14A11818   3.529   2.482  11.223  0.0689 -0.6171 -1.3383
  114OSM   H14B11819   3.643   2.395  11.331  0.7243  0.9851 -0.2342
  114OSM   H14C11820   3.571   2.315  11.198 -0.3781 -0.1682  0.2539
  114OSM    C1311821   3.640   2.564  11.048 -0.5730  0.2773 -0.5320
  114OSM   H13A11822   3.610   2.642  11.116  1.0965  0.2605  0.2762
  114OSM   H13B11823   3.551   2.520  11.005 -0.8180  2.3684 -2.3154
  114OSM   H13C11824   3.695   2.608  10.966  0.3968 -1.3723 -0.8228
  114OSM    C1211825   3.762   2.346  11.049  0.0798 -0.5853 -0.2992
  114OSM   H12A11826   3.798   2.267  11.113  1.4482 -0.4771 -0.9128
  114OSM   H12B11827   3.833   2.390  10.981  0.6122  0.1788  0.7369
  114OSM    C1111828   3.656   2.270  10.970 -0.1054  0.0619  0.3532
  114OSM   H11A11829   3.701   2.214  10.885  0.3292  1.8811 -0.6938
  114OSM   H11B11830   3.582   2.335  10.919 -0.8154 -0.8516  0.1992
  114OSM      P11831   3.618   2.030  11.062  0.0628 -0.1341  0.0802
  114OSM    O1311832   3.748   2.023  11.129 -0.2414 -0.3398 -0.2892
  114OSM    O1411833   3.505   1.968  11.138 -0.5350 -0.1776  0.4838
  114OSM    O1111834   3.616   1.972  10.916  0.6631 -0.6337  0.1381
  114OSM    O1211835   3.579   2.186  11.048 -0.3450  0.6625  0.0376
  114OSM    C1S11836   3.534   2.004  10.806 -0.6997 -0.3735 -0.8659
  114OSM    H1S11837   3.517   2.113  10.803 -1.5179 -0.4279  0.5353
  114OSM    H1T11838   3.435   1.954  10.818 -0.5568 -0.5845 -0.5117
  114OSM     NF11839   3.506   2.005  10.569 -0.4293 -0.1172  0.3732
  114OSM    HNF11840   3.444   1.948  10.517  2.0546 -1.9625 -0.7963
  114OSM    C2S11841   3.588   1.952  10.668 -0.1265 -0.3552 -0.6285
  114OSM    H2S11842   3.693   1.987  10.655  0.2080 -0.5451  1.2206
  114OSM    C3S11843   3.602   1.798  10.659 -0.1417  0.4257 -0.3390
  114OSM    H3S11844   3.503   1.752  10.636  0.3940 -0.0437 -1.7610
  114OSM     O311845   3.665   1.734  10.770  0.1843 -0.5593  0.1214
  114OSM    HO311846   3.656   1.796  10.843  1.5839  1.2814 -1.2020
  114OSM    C4S11847   3.690   1.754  10.542  0.7779 -0.0309  0.0177
  114OSM    H4S11848   3.791   1.792  10.565  0.8958 -0.8058  0.8231
  114OSM    C5S11849   3.671   1.678  10.432 -0.3859 -0.2744 -0.6854
  114OSM    H5S11850   3.573   1.633  10.408 -1.3214  1.8470 -1.0847
  114OSM    C6S11851   3.781   1.658  10.329  0.2031  0.3911 -0.1081
  114OSM    H6S11852   3.842   1.569  10.355  2.0014  1.4205 -0.6301
  114OSM    H6T11853   3.858   1.739  10.332  0.8140 -0.2074  1.0158
  114OSM    C7S11854   3.743   1.651  10.181  0.1717  0.1802  0.0605
  114OSM    H7S11855   3.691   1.744  10.150  0.1777  0.0659 -0.2949
  114OSM    H7T11856   3.666   1.571  10.171 -0.5444  0.7590  0.7945
  114OSM    C8S11857   3.860   1.614  10.096 -0.1202  0.7808 -0.5296
  114OSM    H8S11858   3.899   1.519  10.137 -0.5994  1.2462  1.0782
  114OSM    H8T11859   3.935   1.696  10.099 -0.0878  0.7528 -0.5845
  114OSM    C9S11860   3.821   1.615   9.947 -0.4974  0.3485 -0.0771
  114OSM    H9S11861   3.786   1.714   9.909 -1.3356  0.3277  0.6185
  114OSM    H9T11862   3.750   1.531   9.931  0.2123 -0.2431 -0.1508
  114OSM   C10S11863   3.939   1.591   9.850  0.1119  0.6702 -0.7708
  114OSM   H10S11864   3.998   1.500   9.871 -2.0442 -0.6201  0.0942
  114OSM   H10T11865   4.009   1.677   9.857  1.1622 -0.3071  3.2272
  114OSM   C11S11866   3.884   1.589   9.705  0.2776  0.0465 -0.1456
  114OSM   H11S11867   3.852   1.693   9.680  0.4239  0.0569 -0.2890
  114OSM   H11T11868   3.791   1.529   9.698 -1.5346  2.4287  1.7101
  114OSM   C12S11869   3.991   1.551   9.604 -0.5773 -0.2062  0.2138
  114OSM   H12S11870   4.012   1.442   9.612  0.2009 -0.1606 -1.0466
  114OSM   H12T11871   4.082   1.610   9.625  0.5631 -1.0361 -2.0924
  114OSM   C13S11872   3.936   1.558   9.461  0.6851  0.3740 -0.2028
  114OSM   H13S11873   4.007   1.510   9.390 -0.8006 -1.0305 -0.7902
  114OSM   H13T11874   3.919   1.663   9.428 -0.2248  0.2833 -0.0436
  114OSM   C14S11875   3.820   1.449   9.442 -0.2352  0.9121  0.3130
  114OSM   H14S11876   3.725   1.471   9.496 -0.0646  1.4436  0.4110
  114OSM   H14T11877   3.862   1.352   9.476 -1.2045 -0.0042 -1.0148
  114OSM   C15S11878   3.790   1.432   9.295 -0.2095  0.2909  0.7013
  114OSM   H15S11879   3.703   1.363   9.285 -1.2781  1.7265 -0.3597
  114OSM   H15T11880   3.872   1.392   9.233  1.0302  1.1427  1.7367
  114OSM   C16S11881   3.747   1.560   9.221 -0.9771  0.5395 -0.4695
  114OSM   H16S11882   3.834   1.628   9.217 -1.3978  1.0964 -0.3471
  114OSM   H16T11883   3.663   1.611   9.274  0.1967  0.9175  1.0966
  114OSM   C17S11884   3.711   1.520   9.073 -0.5624  0.0544 -0.4152
  114OSM   H17S11885   3.618   1.459   9.076 -0.4601 -0.1590 -1.2503
  114OSM   H17T11886   3.795   1.472   9.018  0.1266  0.7387  0.0216
  114OSM   C18S11887   3.675   1.640   8.986  0.1068 -0.1906 -0.2938
  114OSM   H18S11888   3.758   1.714   8.988 -0.8489  0.9009  0.5457
  114OSM   H18T11889   3.586   1.699   9.018 -0.1066  1.1110 -2.9268
  114OSM   H18U11890   3.656   1.607   8.881  0.4315 -0.4742 -0.2639
  114OSM    C1F11891   3.501   2.134  10.535  0.3434  0.3999 -1.6169
  114OSM     OF11892   3.591   2.212  10.576 -0.1942 -0.7584  0.3130
  114OSM    C2F11893   3.394   2.157  10.437  0.6705  0.5547 -0.1594
  114OSM    H2F11894   3.297   2.165  10.490 -1.7578 -0.8397 -4.0010
  114OSM    H2G11895   3.377   2.071  10.370  3.6078  1.0174 -1.6800
  114OSM    C3F11896   3.428   2.284  10.351  0.2930  0.6835  0.5566
  114OSM    H3F11897   3.535   2.273  10.322  0.0851 -0.5059  0.2162
  114OSM    H3G11898   3.406   2.375  10.411  0.4134  2.7167 -2.2460
  114OSM    C4F11899   3.341   2.297  10.226 -0.6336  0.2425  0.0046
  114OSM    H4F11900   3.231   2.300  10.238 -0.9200  0.2384 -2.3184
  114OSM    H4G11901   3.354   2.196  10.180  0.6157  1.3099 -2.1290
  114OSM    C5F11902   3.376   2.408  10.131 -0.2672  0.3418 -0.2456
  114OSM    H5F11903   3.486   2.415  10.115  0.4082 -0.2490  3.3131
  114OSM    H5G11904   3.373   2.508  10.180  2.4878 -0.9508  2.9565
  114OSM    C6F11905   3.305   2.409  10.001  0.4878  0.1177  0.6358
  114OSM    H6F11906   3.198   2.432  10.023 -0.2331 -3.0594  1.0100
  114OSM    H6G11907   3.298   2.305   9.963 -0.1314  0.3878 -0.0208
  114OSM    C7F11908   3.349   2.500   9.890  0.3416  0.0987  0.8447
  114OSM    H7F11909   3.437   2.455   9.840 -1.7047 -0.6766 -2.3801
  114OSM    H7G11910   3.376   2.602   9.923 -0.2075  0.5983 -0.2012
  114OSM    C8F11911   3.250   2.524   9.770 -0.2029  0.1811  0.2518
  114OSM    H8F11912   3.310   2.578   9.694  0.5742  3.0836  2.7357
  114OSM    H8G11913   3.169   2.593   9.801 -0.0026 -0.0322  1.2879
  114OSM    C9F11914   3.180   2.399   9.722 -0.2260 -0.3797  0.2412
  114OSM    H9F11915   3.122   2.346   9.799  1.0605 -2.3113 -0.0501
  114OSM   C10F11916   3.184   2.351   9.597 -0.1874  0.0616  0.0253
  114OSM   H10F11917   3.148   2.248   9.581  0.4142 -0.0923 -0.3540
  114OSM   C11F11918   3.249   2.413   9.471  0.3086 -0.4008  0.1429
  114OSM   H11F11919   3.290   2.321   9.425  0.2242 -2.6025  4.0180
  114OSM   H11G11920   3.330   2.488   9.485  1.1917 -1.2988 -0.1009
  114OSM   C12F11921   3.148   2.481   9.373  0.3966  0.8213 -0.2241
  114OSM   H12F11922   3.131   2.579   9.422  0.9919  0.9750 -0.3283
  114OSM   H12G11923   3.052   2.426   9.358  0.9904 -0.4245  0.3234
  114OSM   C13F11924   3.213   2.491   9.236 -0.1639  0.8350 -0.4433
  114OSM   H13F11925   3.231   2.390   9.191 -0.3717  1.8837 -3.0797
  114OSM   H13G11926   3.305   2.553   9.243 -0.7041  1.6612 -0.5407
  114OSM   C14F11927   3.122   2.564   9.139 -0.5942  0.4564 -0.4687
  114OSM   H14F11928   3.116   2.667   9.179 -0.4702 -0.0450  0.9131
  114OSM   H14G11929   3.015   2.537   9.148  0.1580 -2.4895  1.2305
  114OSM   C15F11930   3.172   2.568   8.995  0.4371 -0.4404  0.0453
  114OSM   H15F11931   3.253   2.644   8.993  0.2212 -0.2041  0.2000
  114OSM   H15G11932   3.090   2.610   8.932  1.6231  1.0417 -0.5456
  114OSM   C16F11933   3.213   2.438   8.926  0.3422 -1.5459 -0.0689
  114OSM   H16F11934   3.139   2.360   8.950  1.7318 -2.5129  1.2644
  114OSM   H16G11935   3.311   2.397   8.958  0.8202 -1.1773 -1.0167
  114OSM   C17F11936   3.214   2.443   8.778 -0.2689  0.2690 -0.2378
  114OSM   H17F11937   3.113   2.473   8.744  0.1147  1.2534 -0.5345
  114OSM   H17G11938   3.234   2.347   8.725 -2.3672  0.5433 -1.6611
  114OSM   C18F11939   3.309   2.545   8.705 -0.0545  0.1724  0.0031
  114OSM   H18F11940   3.416   2.532   8.734 -0.1334 -1.8027 -0.4356
  114OSM   H18G11941   3.285   2.647   8.741  1.2251  0.7487 -0.7105
  114OSM   H18H11942   3.302   2.541   8.594 -1.4827  0.6296  0.0592
  115OSM      N11943   2.358   2.988   6.182  0.2767  1.2340 -0.0598
  115OSM    C1511944   2.280   2.867   6.223  0.1124 -0.7771  0.2048
  115OSM   H15A11945   2.311   2.831   6.320  1.1763 -3.3020 -0.9535
  115OSM   H15B11946   2.289   2.789   6.149 -3.2303  0.6994 -2.0178
  115OSM   H15C11947   2.175   2.890   6.217  0.4964  1.0711  0.1029
  115OSM    C1411948   2.313   3.032   6.046 -0.2436  0.6849  0.4556
  115OSM   H14A11949   2.214   3.073   6.036  0.2565  1.3489 -2.9362
  115OSM   H14B11950   2.329   2.959   5.968 -0.8032  1.3364 -0.2892
  115OSM   H14C11951   2.378   3.109   6.007 -0.6426  0.0486 -1.5986
  115OSM    C1311952   2.332   3.090   6.282  0.4120 -0.3569 -0.6298
  115OSM   H13A11953   2.358   3.067   6.385 -0.1291 -0.6023 -0.5428
  115OSM   H13B11954   2.225   3.108   6.281  0.5315  0.6312  0.7852
  115OSM   H13C11955   2.395   3.173   6.253 -0.5371  0.7408  0.3286
  115OSM    C1211956   2.504   2.955   6.167  0.0688 -0.2526 -0.5656
  115OSM   H12A11957   2.506   2.865   6.107 -6.3016 -1.4150  0.1802
  115OSM   H12B11958   2.558   2.936   6.258  3.0031 -0.2354 -2.1962
  115OSM    C1111959   2.594   3.059   6.114 -0.1561  0.1022  0.0415
  115OSM   H11A11960   2.566   3.093   6.012  1.9021 -0.9570 -0.9300
  115OSM   H11B11961   2.697   3.016   6.113  1.4782  3.3010  3.6205
  115OSM      P11962   2.668   3.301   6.156  0.1982 -0.1816  0.3864
  115OSM    O1311963   2.810   3.275   6.149 -0.1495  0.3747  0.0475
  115OSM    O1411964   2.592   3.362   6.042  0.2299 -0.0981 -0.0076
  115OSM    O1111965   2.639   3.400   6.279  0.0057 -0.3924 -0.2743
  115OSM    O1211966   2.606   3.167   6.199  0.0461 -0.4467  0.1371
  115OSM    C1S11967   2.689   3.370   6.409 -1.1482  0.2357 -0.5042
  115OSM    H1S11968   2.799   3.387   6.413 -1.0199 -0.2844 -1.5106
  115OSM    H1T11969   2.673   3.262   6.431  1.2014 -0.7188 -2.8545
  115OSM     NF11970   2.705   3.438   6.646  0.6695  0.0964  0.8220
  115OSM    HNF11971   2.657   3.404   6.727 -0.4339  1.9622  0.9954
  115OSM    C2S11972   2.630   3.458   6.518 -0.1725  0.1341  0.0224
  115OSM    H2S11973   2.641   3.565   6.489 -1.9642  0.1799 -0.6563
  115OSM    C3S11974   2.474   3.425   6.513 -0.2019 -0.3749  0.0082
  115OSM    H3S11975   2.462   3.315   6.528 -1.8695 -0.2089  0.0597
  115OSM     O311976   2.412   3.464   6.392 -0.2291 -0.0104 -0.1726
  115OSM    HO311977   2.487   3.487   6.337 -0.6951  0.1778 -0.7414
  115OSM    C4S11978   2.399   3.494   6.623 -0.0715  0.1327 -0.3851
  115OSM    H4S11979   2.395   3.445   6.722 -0.6768  2.3640  0.7901
  115OSM    C5S11980   2.329   3.610   6.617 -0.1914  0.1104  0.5386
  115OSM    H5S11981   2.317   3.653   6.516  0.7133 -3.3866 -1.1954
  115OSM    C6S11982   2.254   3.672   6.730 -0.2182 -0.2547  0.0180
  115OSM    H6S11983   2.146   3.677   6.705 -0.3363  1.6965  0.6997
  115OSM    H6T11984   2.287   3.777   6.743  1.7902 -0.7526 -0.6657
  115OSM    C7S11985   2.280   3.599   6.865  0.3609 -0.0518  0.8635
  115OSM    H7S11986   2.388   3.582   6.883  0.8006  1.0401 -0.6038
  115OSM    H7T11987   2.237   3.497   6.867 -0.1065  0.0661 -1.2470
  115OSM    C8S11988   2.220   3.683   6.980 -0.0857  0.4544 -0.3668
  115OSM    H8S11989   2.115   3.660   7.008 -0.8228  3.2349 -0.5752
  115OSM    H8T11990   2.209   3.789   6.952 -2.3494 -0.6574 -4.4849
  115OSM    C9S11991   2.294   3.641   7.111  0.4724  0.7267  0.3929
  115OSM    H9S11992   2.398   3.677   7.097  0.1044  1.3668 -0.8671
  115OSM    H9T11993   2.303   3.530   7.108 -0.9452  0.5951 -2.5062
  115OSM   C10S11994   2.236   3.706   7.238  0.3892 -0.0185 -0.2084
  115OSM   H10S11995   2.126   3.689   7.236  0.7193 -2.4855 -0.5684
  115OSM   H10T11996   2.280   3.807   7.231  0.5202 -0.1610 -2.1077
  115OSM   C11S11997   2.291   3.655   7.370  0.2171 -0.9645  0.2717
  115OSM   H11S11998   2.398   3.685   7.370  0.3849 -1.1003  3.7251
  115OSM   H11T11999   2.288   3.544   7.372 -1.9598 -0.9953  3.3555
  115OSM   C12S12000   2.206   3.705   7.490  0.5148  0.2433 -0.1063
  115OSM   H12S12001   2.102   3.666   7.491  0.3713  0.6228  0.1213
  115OSM   H12T12002   2.196   3.816   7.482 -0.6520  0.0930 -0.9363
  115OSM   C13S12003   2.287   3.694   7.626 -0.3175 -0.5486  0.3844
  115OSM   H13S12004   2.395   3.704   7.605 -0.2199 -4.5476 -2.0817
  115OSM   H13T12005   2.271   3.591   7.664  1.0284 -1.3410 -1.0634
  115OSM   C14S12006   2.241   3.797   7.728  0.2272 -1.2100 -0.1310
  115OSM   H14S12007   2.131   3.807   7.741  0.5561  2.0878  1.3250
  115OSM   H14T12008   2.269   3.899   7.693 -0.6232 -0.9941 -0.2215
  115OSM   C15S12009   2.291   3.789   7.873  0.1554 -0.0192  0.9356
  115OSM   H15S12010   2.303   3.883   7.931  2.3425 -0.1011  0.7112
  115OSM   H15T12011   2.387   3.734   7.861  0.3929  0.5896 -0.0822
  115OSM   C16S12012   2.199   3.709   7.969 -0.0473  0.5540  0.4217
  115OSM   H16S12013   2.197   3.607   7.926 -0.8096  0.3453  0.9325
  115OSM   H16T12014   2.098   3.756   7.964 -0.3385  0.0134  1.0354
  115OSM   C17S12015   2.242   3.699   8.113  0.5260  0.0474 -0.2442
  115OSM   H17S12016   2.163   3.646   8.170 -0.0143  1.7526  0.6743
  115OSM   H17T12017   2.251   3.803   8.152  0.6978  0.0083 -0.1800
  115OSM   C18S12018   2.368   3.623   8.135  0.1244 -0.1822 -0.1608
  115OSM   H18S12019   2.406   3.633   8.239  3.0481 -1.4876 -0.9926
  115OSM   H18T12020   2.450   3.641   8.062  1.1698 -1.3805  0.6663
  115OSM   H18U12021   2.354   3.513   8.121  1.9583 -0.3905 -0.6483
  115OSM    C1F12022   2.828   3.486   6.674  0.8882 -0.7332 -0.2660
  115OSM     OF12023   2.882   3.559   6.594 -0.4788 -0.8943 -0.0991
  115OSM    C2F12024   2.883   3.442   6.808  0.1596  0.7062 -0.1159
  115OSM    H2F12025   2.972   3.380   6.786 -0.2806  0.2702 -0.7081
  115OSM    H2G12026   2.809   3.373   6.856  0.4843 -0.7538 -1.6267
  115OSM    C3F12027   2.918   3.556   6.910  0.7647  0.2965  0.2701
  115OSM    H3F12028   2.985   3.624   6.854  0.0182 -0.6129 -1.8381
  115OSM    H3G12029   2.960   3.512   7.003 -1.7167  1.1540  1.8935
  115OSM    C4F12030   2.800   3.643   6.950 -0.4479  0.3218  0.6974
  115OSM    H4F12031   2.756   3.670   6.852  0.9679  1.2090  0.2624
  115OSM    H4G12032   2.830   3.741   6.993 -0.9377  0.6067  0.3928
  115OSM    C5F12033   2.712   3.567   7.044  0.5760  0.0180 -0.5589
  115OSM    H5F12034   2.731   3.458   7.031  1.2708 -0.2050  1.7874
  115OSM    H5G12035   2.602   3.578   7.031  0.0087 -0.5259  2.8904
  115OSM    C6F12036   2.757   3.591   7.189 -0.3894 -0.4955 -0.5475
  115OSM    H6F12037   2.732   3.695   7.219 -2.7842 -1.4669  1.1568
  115OSM    H6G12038   2.866   3.570   7.201  0.1745  2.5619  0.5178
  115OSM    C7F12039   2.678   3.506   7.287 -0.7265  0.1929 -0.3542
  115OSM    H7F12040   2.721   3.404   7.294  2.5018  1.3417 -1.5724
  115OSM    H7G12041   2.578   3.506   7.238 -0.0444 -0.4567 -1.7970
  115OSM    C8F12042   2.673   3.564   7.434 -0.3891 -0.9467 -0.1264
  115OSM    H8F12043   2.641   3.670   7.423 -2.7706 -1.4746  0.9807
  115OSM    H8G12044   2.780   3.564   7.465 -0.3572 -0.5444 -0.2292
  115OSM    C9F12045   2.597   3.473   7.524  0.9458  0.2694 -0.2466
  115OSM    H9F12046   2.543   3.385   7.486 -0.2238  1.5831 -1.7669
  115OSM   C10F12047   2.579   3.483   7.656  0.2578  0.1237 -0.0230
  115OSM   H10F12048   2.521   3.409   7.713 -1.6696  1.6389  0.0768
  115OSM   C11F12049   2.641   3.586   7.748  0.0800 -0.0975  0.6330
  115OSM   H11F12050   2.565   3.665   7.766 -1.7013 -1.5580 -0.0305
  115OSM   H11G12051   2.735   3.625   7.705 -0.1560  0.8415  0.9432
  115OSM   C12F12052   2.677   3.537   7.892  0.5976 -0.2407  1.3903
  115OSM   H12F12053   2.735   3.444   7.878 -0.7575 -0.9870  0.4736
  115OSM   H12G12054   2.585   3.524   7.954 -1.9124  2.0396 -1.5234
  115OSM   C13F12055   2.765   3.641   7.955  0.0207 -0.0619 -0.4053
  115OSM   H13F12056   2.718   3.740   7.940 -0.7970 -0.4638 -0.5252
  115OSM   H13G12057   2.863   3.654   7.905  1.4750  1.5852  2.5770
  115OSM   C14F12058   2.786   3.623   8.100  0.5194  0.3400  0.0895
  115OSM   H14F12059   2.694   3.585   8.149  1.0506 -1.0612  0.0303
  115OSM   H14G12060   2.816   3.715   8.154 -2.1702  0.5220  1.4523
  115OSM   C15F12061   2.884   3.505   8.118  0.9010  0.5026  0.0432
  115OSM   H15F12062   2.972   3.507   8.051  0.6277  0.2384 -0.3335
  115OSM   H15G12063   2.836   3.409   8.086  0.1495  0.8511  0.1059
  115OSM   C16F12064   2.922   3.472   8.268 -0.4992 -0.3929 -0.3127
  115OSM   H16F12065   2.835   3.478   8.336 -0.9078 -0.4469 -0.8190
  115OSM   H16G12066   2.995   3.552   8.293 -0.5656 -0.4227 -0.0250
  115OSM   C17F12067   2.998   3.339   8.279 -0.2520  0.8428 -0.4218
  115OSM   H17F12068   3.077   3.336   8.201 -0.0878  2.1806 -0.3265
  115OSM   H17G12069   2.924   3.259   8.257  1.1737 -0.4997 -0.5387
  115OSM   C18F12070   3.059   3.315   8.420 -1.0915  0.0976 -0.1621
  115OSM   H18F12071   2.977   3.307   8.495 -0.2617 -2.1388  0.5766
  115OSM   H18G12072   3.138   3.388   8.446 -1.3090  0.3055 -0.0842
  115OSM   H18H12073   3.102   3.213   8.413  1.0626  0.9769 -0.7167
  116OSM      N12074   5.211   0.261   6.287 -0.2011  0.5948  0.5335
  116OSM    C1512075   5.309   0.267   6.400 -0.0495 -0.7228 -0.1872
  116OSM   H15A12076   5.263   0.236   6.493 -0.3660  0.0157 -0.0863
  116OSM   H15B12077   5.348   0.366   6.421  0.4864 -1.1683  1.0300
  116OSM   H15C12078   5.395   0.205   6.381  0.0731  0.1517 -2.9753
  116OSM    C1412079   5.272   0.319   6.167 -0.4975 -0.2626  0.5382
  116OSM   H14A12080   5.300   0.420   6.190 -2.4757 -0.1811  3.0611
  116OSM   H14B12081   5.206   0.332   6.083  1.8873 -0.3420 -1.4520
  116OSM   H14C12082   5.368   0.276   6.141  0.1307  1.0448  0.6005
  116OSM    C1312083   5.177   0.116   6.255  0.2524  0.5671 -0.4455
  116OSM   H13A12084   5.102   0.108   6.178  0.1923  0.3669 -0.3681
  116OSM   H13B12085   5.140   0.076   6.348 -0.0982 -0.1283 -0.8732
  116OSM   H13C12086   5.258   0.057   6.214  0.7712  1.0530 -0.1192
  116OSM    C1212087   5.088   0.341   6.320 -0.3692 -0.2404  0.1948
  116OSM   H12A12088   5.024   0.328   6.233  0.3542 -1.2266 -0.2036
  116OSM   H12B12089   5.113   0.445   6.332  0.6589 -0.4454 -0.0880
  116OSM    C1112090   5.011   0.317   6.458  0.1617 -0.1098  0.1596
  116OSM   H11A12091   4.937   0.398   6.477  0.9233  0.1061  2.3757
  116OSM   H11B12092   5.084   0.345   6.536 -0.4756  0.9498  0.3846
  116OSM      P12093   4.840   0.127   6.405  0.2589 -0.1135 -0.0345
  116OSM    O1312094   4.791   0.210   6.289 -0.0235  0.1873  0.2338
  116OSM    O1412095   4.868  -0.020   6.372 -0.4646  0.1943  0.0856
  116OSM    O1112096   4.718   0.118   6.508  0.0858 -0.1744  0.1816
  116OSM    O1212097   4.964   0.183   6.479 -0.3578  0.3154  0.3215
  116OSM    C1S12098   4.744   0.095   6.653 -0.3468  0.4514  0.3552
  116OSM    H1S12099   4.849   0.063   6.671 -0.0955  1.4016  0.6200
  116OSM    H1T12100   4.674   0.015   6.688  0.3645 -0.4310 -0.2041
  116OSM     NF12101   4.755   0.208   6.871  0.2091 -0.0949 -0.0859
  116OSM    HNF12102   4.682   0.213   6.939  0.4590  3.3078  0.1214
  116OSM    C2S12103   4.711   0.223   6.733  0.6059  0.3044  0.0352
  116OSM    H2S12104   4.772   0.301   6.684 -1.0091  1.9050  0.4521
  116OSM    C3S12105   4.561   0.256   6.710 -0.4414 -0.6880  0.6500
  116OSM    H3S12106   4.502   0.167   6.740 -5.3188 -0.0247 -5.1371
  116OSM     O312107   4.512   0.271   6.575  0.0761  0.3155 -0.4295
  116OSM    HO312108   4.589   0.244   6.524  0.3623  0.3026  0.0084
  116OSM    C4S12109   4.527   0.379   6.790  0.3613 -0.3020 -0.3397
  116OSM    H4S12110   4.489   0.356   6.891  0.8943  1.3466  0.2726
  116OSM    C5S12111   4.548   0.510   6.748 -0.1644  0.7349  0.1091
  116OSM    H5S12112   4.591   0.528   6.649  1.8877 -2.9611  0.1561
  116OSM    C6S12113   4.531   0.628   6.840 -0.2842  0.0292  0.1874
  116OSM    H6S12114   4.427   0.668   6.839  0.9919  3.6698 -0.4860
  116OSM    H6T12115   4.595   0.715   6.813  1.9805 -1.8533 -0.8567
  116OSM    C7S12116   4.568   0.600   6.983  0.5242 -0.3763 -0.4616
  116OSM    H7S12117   4.526   0.508   7.029 -1.5808 -0.6526 -2.6876
  116OSM    H7T12118   4.520   0.682   7.041 -0.9229 -1.3118 -0.2817
  116OSM    C8S12119   4.718   0.597   7.021 -0.4932 -0.7884  0.6218
  116OSM    H8S12120   4.770   0.691   6.995 -2.6942  0.5688  0.8254
  116OSM    H8T12121   4.761   0.513   6.963 -0.0315 -0.3524  0.3277
  116OSM    C9S12122   4.727   0.575   7.173 -0.5147  0.8609 -0.2928
  116OSM    H9S12123   4.648   0.508   7.213  0.7822  0.0910  1.1015
  116OSM    H9T12124   4.709   0.664   7.237 -0.1630 -0.0888  1.1825
  116OSM   C10S12125   4.864   0.515   7.210 -0.2422 -0.5610 -0.5502
  116OSM   H10S12126   4.946   0.574   7.164  0.6411 -0.2347  1.3281
  116OSM   H10T12127   4.871   0.409   7.177 -0.3863 -1.2060  1.3736
  116OSM   C11S12128   4.900   0.530   7.362  0.0327  0.3611  0.0419
  116OSM   H11S12129   4.892   0.632   7.403  0.3734 -0.1117  1.3236
  116OSM   H11T12130   5.008   0.502   7.366  0.5755  2.4206  0.7800
  116OSM   C12S12131   4.812   0.436   7.451 -0.4796 -0.2183 -0.1493
  116OSM   H12S12132   4.834   0.334   7.415  0.9877  0.0503 -0.0991
  116OSM   H12T12133   4.706   0.450   7.421 -0.8842 -3.8500 -0.8125
  116OSM   C13S12134   4.844   0.453   7.605 -0.1290  0.1477 -0.0525
  116OSM   H13S12135   4.848   0.558   7.639  1.0643  0.1834 -0.2577
  116OSM   H13T12136   4.948   0.422   7.630  0.5137  2.5600  0.5236
  116OSM   C14S12137   4.756   0.358   7.688 -0.1416  0.0855  0.0888
  116OSM   H14S12138   4.772   0.256   7.646  1.6547  1.0281 -1.6701
  116OSM   H14T12139   4.649   0.383   7.672 -0.2308 -0.6898 -0.6282
  116OSM   C15S12140   4.781   0.367   7.842  0.1310  1.2590  0.4059
  116OSM   H15S12141   4.792   0.475   7.865  0.5304  1.1132  0.9021
  116OSM   H15T12142   4.879   0.319   7.861 -0.7285 -0.3524  1.0039
  116OSM   C16S12143   4.672   0.294   7.920  0.3707  0.0564  0.3469
  116OSM   H16S12144   4.645   0.197   7.873  1.9971 -0.7308  0.9624
  116OSM   H16T12145   4.579   0.352   7.904  0.7260  0.9238  1.2957
  116OSM   C17S12146   4.701   0.285   8.069  0.3003  0.8379  0.1395
  116OSM   H17S12147   4.679   0.385   8.112 -1.0029  0.7588 -0.2883
  116OSM   H17T12148   4.812   0.280   8.072  0.3196  0.4957 -0.8524
  116OSM   C18S12149   4.645   0.165   8.157  0.5130 -0.1682 -0.1458
  116OSM   H18S12150   4.535   0.178   8.159  0.3837 -0.9533  3.2594
  116OSM   H18T12151   4.687   0.172   8.260  1.8267 -0.5276 -0.6383
  116OSM   H18U12152   4.680   0.071   8.109  1.5293  0.5335 -0.8298
  116OSM    C1F12153   4.882   0.180   6.910  0.2092 -0.2974  0.7431
  116OSM     OF12154   4.973   0.187   6.829  0.5107  0.3219  0.4762
  116OSM    C2F12155   4.907   0.136   7.048  0.3439 -0.1625 -0.3106
  116OSM    H2F12156   4.897   0.026   7.050  1.2206 -0.2647 -1.0486
  116OSM    H2G12157   4.827   0.181   7.111  0.7894  0.7412 -0.3680
  116OSM    C3F12158   5.045   0.172   7.108 -0.8851 -0.1649  0.2250
  116OSM    H3F12159   5.070   0.280   7.107  2.6705 -0.8473  1.8636
  116OSM    H3G12160   5.127   0.120   7.054  1.3432  1.7087  1.6192
  116OSM    C4F12161   5.044   0.136   7.252 -0.8368 -0.1488 -0.2438
  116OSM    H4F12162   5.058   0.028   7.276 -1.2931  0.3536  2.7199
  116OSM    H4G12163   4.944   0.170   7.287 -0.0890  1.0782  0.7997
  116OSM    C5F12164   5.151   0.217   7.332 -0.5620  0.4830 -0.2904
  116OSM    H5F12165   5.153   0.320   7.290 -0.1259  0.6448  0.1225
  116OSM    H5G12166   5.255   0.183   7.313 -0.3524  2.3708 -3.0151
  116OSM    C6F12167   5.118   0.219   7.481 -0.4531 -0.1708 -0.3344
  116OSM    H6F12168   5.011   0.244   7.498 -1.1450  0.0028 -4.0496
  116OSM    H6G12169   5.181   0.291   7.538 -2.8677  1.4099  0.5279
  116OSM    C7F12170   5.127   0.082   7.549  0.6792  0.5087 -0.2630
  116OSM    H7F12171   5.232   0.044   7.548  0.4010 -0.2660 -0.2334
  116OSM    H7G12172   5.066   0.013   7.489 -1.0014 -0.6867  2.6150
  116OSM    C8F12173   5.080   0.076   7.693 -0.2733  0.1423  0.0006
  116OSM    H8F12174   5.078  -0.030   7.726  0.0766  0.1123 -0.0687
  116OSM    H8G12175   4.985   0.132   7.690 -0.5110 -0.2777 -1.6687
  116OSM    C9F12176   5.168   0.159   7.782 -0.1003  0.3390  0.3344
  116OSM    H9F12177   5.233   0.226   7.724  0.4855  0.3431  0.9915
  116OSM   C10F12178   5.172   0.142   7.919  0.3925  0.6061  0.0368
  116OSM   H10F12179   5.241   0.191   7.989 -1.0721  2.7096  0.1057
  116OSM   C11F12180   5.090   0.045   8.000  0.4014  0.3377 -0.5378
  116OSM   H11F12181   5.004   0.012   7.939  0.3992 -0.3798 -0.1450
  116OSM   H11G12182   5.036   0.104   8.077  0.7724  2.1245 -1.5712
  116OSM   C12F12183   5.183  -0.073   8.045 -0.1481  0.0108  0.0400
  116OSM   H12F12184   5.217  -0.132   7.957 -3.1856 -1.9910  0.0617
  116OSM   H12G12185   5.135  -0.152   8.106 -2.4809  0.6437 -0.8729
  116OSM   C13F12186   5.302  -0.040   8.136  0.1259  0.1395  0.7605
  116OSM   H13F12187   5.265   0.039   8.204  0.9098  0.9802  0.2436
  116OSM   H13G12188   5.387  -0.003   8.074 -0.1201 -0.8208 -0.1806
  116OSM   C14F12189   5.352  -0.146   8.237  0.4087  0.1062  0.0891
  116OSM   H14F12190   5.378  -0.240   8.184  1.1363  0.4877 -0.2488
  116OSM   H14G12191   5.271  -0.170   8.309 -0.8492  0.6944 -1.0876
  116OSM   C15F12192   5.475  -0.098   8.312 -0.2909  0.4928 -0.2648
  116OSM   H15F12193   5.465  -0.003   8.368  0.4793  0.6281 -0.3497
  116OSM   H15G12194   5.554  -0.092   8.234 -1.1448  0.6705 -1.1178
  116OSM   C16F12195   5.532  -0.206   8.406 -0.7941 -0.1744  0.2871
  116OSM   H16F12196   5.522  -0.305   8.355 -1.0010 -0.1329  0.2481
  116OSM   H16G12197   5.467  -0.204   8.496  0.2714 -1.2117  1.1227
  116OSM   C17F12198   5.680  -0.187   8.443 -0.1573 -0.6821 -0.1639
  116OSM   H17F12199   5.748  -0.200   8.356  0.0470 -1.0990  0.0535
  116OSM   H17G12200   5.693  -0.275   8.510  2.2389 -1.5407 -1.6236
  116OSM   C18F12201   5.716  -0.049   8.505 -0.7490  0.1419 -0.1315
  116OSM   H18F12202   5.706   0.033   8.431  2.3097  0.4547 -0.3313
  116OSM   H18G12203   5.822  -0.040   8.535 -1.0543  0.9408  0.8081
  116OSM   H18H12204   5.666  -0.025   8.601 -0.9189  2.3516 -0.7152
  117OSM      N12205   2.002   1.562   6.035 -0.6720 -0.2467  0.7020
  117OSM    C1512206   1.882   1.603   5.946 -0.3560  0.4854 -0.2380
  117OSM   H15A12207   1.791   1.558   5.982 -0.3973 -0.2406 -1.1908
  117OSM   H15B12208   1.895   1.577   5.841 -0.2563 -0.2438 -0.0523
  117OSM   H15C12209   1.870   1.710   5.953  0.8547  0.7787 -1.9021
  117OSM    C1412210   2.008   1.415   6.021 -0.3315  0.0417 -0.1170
  117OSM   H14A12211   1.909   1.379   6.045  0.0184  0.1469  1.6034
  117OSM   H14B12212   2.079   1.367   6.087  0.8523 -0.3726 -1.6295
  117OSM   H14C12213   2.040   1.404   5.918  0.1875  3.5938 -0.4542
  117OSM    C1312214   2.129   1.634   5.992  0.6289  0.2581  0.1251
  117OSM   H13A12215   2.141   1.740   6.008 -0.8694  0.4785 -0.1125
  117OSM   H13B12216   2.138   1.620   5.886  1.1943 -0.6723  0.2811
  117OSM   H13C12217   2.209   1.586   6.046 -0.0202  1.6989  2.5223
  117OSM    C1212218   1.970   1.601   6.176 -0.3958  0.2880 -0.0875
  117OSM   H12A12219   2.064   1.593   6.229 -0.2063 -1.1313 -0.6107
  117OSM   H12B12220   1.900   1.526   6.207 -0.3245 -0.4767 -1.7023
  117OSM    C1112221   1.919   1.741   6.216  0.5640 -0.5174 -0.7022
  117OSM   H11A12222   1.886   1.728   6.321  1.7732 -0.2790 -0.2785
  117OSM   H11B12223   1.826   1.766   6.160  0.0860  1.6098  0.8894
  117OSM      P12224   1.987   1.979   6.260 -0.4052 -0.3599  0.3218
  117OSM    O1312225   2.109   2.070   6.250  0.5712  0.3994 -0.4690
  117OSM    O1412226   1.861   2.022   6.194  0.3381  0.1637  0.3935
  117OSM    O1112227   1.941   1.960   6.414 -0.8803 -0.2029 -0.5345
  117OSM    O1212228   2.023   1.838   6.207 -0.3067 -0.3418 -0.1442
  117OSM    C1S12229   2.047   1.954   6.514 -0.1497  0.5823  0.2015
  117OSM    H1S12230   2.120   2.037   6.503  1.1545 -0.2848  1.9130
  117OSM    H1T12231   2.101   1.857   6.508 -0.4252  0.5012 -2.0346
  117OSM     NF12232   2.106   1.949   6.745  0.6509  0.2839  0.0649
  117OSM    HNF12233   2.152   1.860   6.742  2.4708  1.2038  0.0210
  117OSM    C2S12234   1.994   1.940   6.656  0.5295  0.1597  0.4736
  117OSM    H2S12235   1.929   2.029   6.671  2.3979  1.5604  0.6692
  117OSM    C3S12236   1.896   1.811   6.674  0.5063  0.1676 -0.3255
  117OSM    H3S12237   1.955   1.718   6.685  2.7698  1.5690  0.0212
  117OSM     O312238   1.812   1.783   6.559  0.3295 -0.2443 -0.4959
  117OSM    HO312239   1.860   1.834   6.493 -1.0410  1.3996 -0.2611
  117OSM    C4S12240   1.812   1.825   6.796 -0.0801  0.4538 -0.0518
  117OSM    H4S12241   1.763   1.923   6.789 -1.7525 -0.3186  0.3587
  117OSM    C5S12242   1.794   1.739   6.899  0.2994  0.1915 -0.7424
  117OSM    H5S12243   1.872   1.662   6.910  0.2910 -0.1077 -2.4855
  117OSM    C6S12244   1.710   1.780   7.018 -0.4994  0.0685  0.0125
  117OSM    H6S12245   1.626   1.707   7.014 -1.7217  1.4768 -1.3904
  117OSM    H6T12246   1.657   1.877   7.002 -4.0045 -2.1137 -3.7426
  117OSM    C7S12247   1.782   1.786   7.151 -0.3286 -0.1729 -0.2707
  117OSM    H7S12248   1.865   1.858   7.136  0.7095 -0.6513  2.5976
  117OSM    H7T12249   1.833   1.690   7.174  0.6357  0.4774  0.3819
  117OSM    C8S12250   1.693   1.820   7.263  0.4970 -0.5376  0.1719
  117OSM    H8S12251   1.606   1.753   7.284  2.1235 -2.1889  2.1403
  117OSM    H8T12252   1.652   1.923   7.256  3.4548  0.8240  1.1193
  117OSM    C9S12253   1.765   1.817   7.399 -0.2278  0.4972 -0.5830
  117OSM    H9S12254   1.849   1.889   7.412 -1.2811  1.6998 -0.3193
  117OSM    H9T12255   1.817   1.719   7.412 -1.1260  0.0479 -0.3115
  117OSM   C10S12256   1.669   1.831   7.525 -0.1314 -0.3445  0.2131
  117OSM   H10S12257   1.564   1.814   7.492 -0.4507 -1.6420  1.8093
  117OSM   H10T12258   1.679   1.934   7.567 -1.2808  0.5589 -1.5970
  117OSM   C11S12259   1.705   1.725   7.631 -0.1547 -0.0278 -0.6585
  117OSM   H11S12260   1.816   1.728   7.641 -0.2483 -0.7600  0.7913
  117OSM   H11T12261   1.660   1.630   7.597 -0.3970  0.3240 -1.3549
  117OSM   C12S12262   1.634   1.753   7.764 -0.0394  0.0985  0.0265
  117OSM   H12S12263   1.525   1.770   7.753 -0.0394 -0.2637 -0.5674
  117OSM   H12T12264   1.668   1.852   7.803  1.7707 -1.3177  2.3375
  117OSM   C13S12265   1.671   1.637   7.863  0.2585 -0.0938 -0.1218
  117OSM   H13S12266   1.666   1.549   7.795 -0.7559  1.6563 -2.4730
  117OSM   H13T12267   1.584   1.626   7.930 -0.5045  1.8167 -0.7184
  117OSM   C14S12268   1.810   1.646   7.939 -0.1899  0.2044 -0.7440
  117OSM   H14S12269   1.815   1.736   8.004  0.7998 -0.5265  0.2379
  117OSM   H14T12270   1.893   1.655   7.866 -1.0919 -1.5338 -2.0514
  117OSM   C15S12271   1.834   1.534   8.028 -0.1940  0.4344  0.1100
  117OSM   H15S12272   1.819   1.448   7.960 -0.6384  1.1932 -0.7728
  117OSM   H15T12273   1.747   1.536   8.098 -1.4794 -0.4618 -1.3984
  117OSM   C16S12274   1.966   1.538   8.097 -0.9417  0.0141 -0.1218
  117OSM   H16S12275   1.955   1.626   8.164 -0.7581  0.2207 -0.3657
  117OSM   H16T12276   2.052   1.545   8.027 -1.9365 -1.6671 -1.6283
  117OSM   C17S12277   1.984   1.410   8.193  0.3507 -0.0685 -0.0527
  117OSM   H17S12278   1.983   1.319   8.129 -0.5216 -1.8865  2.4165
  117OSM   H17T12279   1.896   1.404   8.259  0.5665 -0.4211  0.2049
  117OSM   C18S12280   2.116   1.425   8.270  0.0154  0.4200 -1.0722
  117OSM   H18S12281   2.128   1.341   8.342  1.8694  1.6624  0.1573
  117OSM   H18T12282   2.133   1.515   8.333  2.2430 -1.1092  0.6559
  117OSM   H18U12283   2.201   1.428   8.199  1.4815 -0.8453  0.5521
  117OSM    C1F12284   2.169   2.057   6.775 -0.3841  0.0803  0.6223
  117OSM     OF12285   2.127   2.164   6.730 -0.1116  0.3446  0.0480
  117OSM    C2F12286   2.293   2.041   6.847 -0.4981 -0.2291  0.5416
  117OSM    H2F12287   2.377   2.010   6.782  0.0383  3.0506 -0.4778
  117OSM    H2G12288   2.286   1.954   6.917 -1.0516  0.3434  1.2206
  117OSM    C3F12289   2.345   2.166   6.914 -0.3179  0.0074 -0.6481
  117OSM    H3F12290   2.264   2.214   6.972  0.1603  0.2926 -0.2092
  117OSM    H3G12291   2.379   2.244   6.842 -0.1434  0.1132 -0.4517
  117OSM    C4F12292   2.464   2.139   7.017  0.4000  0.7646  0.4776
  117OSM    H4F12293   2.553   2.115   6.955 -0.6208 -0.5576 -0.5574
  117OSM    H4G12294   2.446   2.047   7.075  0.0868 -1.5323 -2.9750
  117OSM    C5F12295   2.480   2.250   7.117 -0.6025  0.2946 -0.0330
  117OSM    H5F12296   2.486   2.348   7.064  0.6331  0.4494  0.3692
  117OSM    H5G12297   2.581   2.233   7.159 -0.4639  2.0263  0.4227
  117OSM    C6F12298   2.370   2.259   7.220 -0.5685  0.0876 -0.2970
  117OSM    H6F12299   2.390   2.164   7.274 -0.2624 -0.1958 -0.8985
  117OSM    H6G12300   2.272   2.245   7.171  0.0781 -1.2876 -1.2835
  117OSM    C7F12301   2.386   2.358   7.330  0.0748  0.4276  0.0163
  117OSM    H7F12302   2.326   2.446   7.297 -1.1006 -0.7860 -1.2203
  117OSM    H7G12303   2.492   2.390   7.342  0.0426  0.6471 -0.2678
  117OSM    C8F12304   2.335   2.299   7.464 -0.2156  0.3342 -0.5368
  117OSM    H8F12305   2.420   2.235   7.495  0.8437  1.1086 -1.7753
  117OSM    H8G12306   2.253   2.233   7.427  0.5856  0.4716 -2.6974
  117OSM    C9F12307   2.300   2.397   7.576 -0.9146 -0.5100 -0.1625
  117OSM    H9F12308   2.299   2.502   7.543 -0.9820 -0.3571  0.3331
  117OSM   C10F12309   2.305   2.368   7.704  0.4870  0.2426 -0.3108
  117OSM   H10F12310   2.275   2.442   7.780  1.6097 -0.2048  0.6063
  117OSM   C11F12311   2.324   2.231   7.761 -0.2106  1.0049 -0.2702
  117OSM   H11F12312   2.429   2.197   7.753  0.4862  2.8758  0.2521
  117OSM   H11G12313   2.265   2.160   7.699 -0.7751 -1.4995  2.9022
  117OSM   C12F12314   2.261   2.209   7.906  0.3620 -0.1521 -0.7575
  117OSM   H12F12315   2.253   2.102   7.937  1.4635  0.6126  2.5965
  117OSM   H12G12316   2.160   2.254   7.909 -1.0048 -2.9469 -1.0240
  117OSM   C13F12317   2.332   2.295   8.008 -0.0535 -0.1614 -0.5198
  117OSM   H13F12318   2.265   2.284   8.096 -4.1009  0.4568 -3.1915
  117OSM   H13G12319   2.327   2.402   7.977 -0.4871  1.1872  3.6250
  117OSM   C14F12320   2.477   2.269   8.059  0.0556  0.0057 -0.0514
  117OSM   H14F12321   2.555   2.317   7.996 -0.4390  0.4990 -0.2964
  117OSM   H14G12322   2.486   2.159   8.051 -0.5759 -0.0473 -0.0467
  117OSM   C15F12323   2.498   2.321   8.200 -0.1591  0.2293  0.2439
  117OSM   H15F12324   2.405   2.283   8.250 -0.8295 -1.0136 -1.8230
  117OSM   H15G12325   2.495   2.432   8.199  0.1506  0.2378 -1.3882
  117OSM   C16F12326   2.632   2.286   8.277  0.1914  0.4878  0.4393
  117OSM   H16F12327   2.722   2.325   8.226  1.0200  5.1015  4.6440
  117OSM   H16G12328   2.632   2.176   8.291 -1.9227  0.1900 -1.3408
  117OSM   C17F12329   2.638   2.346   8.416  1.1630 -1.0391  0.0344
  117OSM   H17F12330   2.745   2.357   8.442  0.5496  1.9695  1.8424
  117OSM   H17G12331   2.593   2.447   8.407  3.1926 -0.0442  0.5385
  117OSM   C18F12332   2.558   2.265   8.518  0.1394 -0.3361 -0.3292
  117OSM   H18F12333   2.591   2.298   8.619 -0.9470 -0.1654 -0.0189
  117OSM   H18G12334   2.583   2.157   8.508  1.9766 -0.1622  1.5635
  117OSM   H18H12335   2.449   2.285   8.515  0.2058  0.7223  1.8465
  118OSM      N12336   4.868   4.749   6.191 -0.6966  0.5332  0.9597
  118OSM    C1512337   4.822   4.807   6.320  0.0053  0.4008  0.4850
  118OSM   H15A12338   4.753   4.884   6.289  0.0240  0.0177 -0.5598
  118OSM   H15B12339   4.909   4.849   6.367  1.1823 -0.8200 -0.5308
  118OSM   H15C12340   4.775   4.731   6.381  0.1960 -1.2818 -1.3403
  118OSM    C1412341   4.924   4.849   6.103  0.2520  0.4046 -0.7740
  118OSM   H14A12342   4.958   4.809   6.009 -2.5873 -4.1309 -0.1927
  118OSM   H14B12343   5.007   4.896   6.153  1.7034 -0.7058 -2.0371
  118OSM   H14C12344   4.846   4.920   6.080 -1.1178 -1.0184 -0.6678
  118OSM    C1312345   4.983   4.649   6.214 -0.0599  0.2606  0.3925
  118OSM   H13A12346   4.969   4.601   6.309  0.3143  1.5247  1.1051
  118OSM   H13B12347   5.080   4.696   6.212 -0.4483  1.0770 -0.6351
  118OSM   H13C12348   4.997   4.570   6.141 -0.6720  0.6856 -0.2009
  118OSM    C1212349   4.752   4.691   6.109 -0.1081 -0.0130  0.1656
  118OSM   H12A12350   4.729   4.592   6.147 -0.8812  0.1488  0.1346
  118OSM   H12B12351   4.776   4.676   6.005  0.5155  1.0543  0.1402
  118OSM    C1112352   4.614   4.756   6.128 -0.1854 -0.6391  0.4960
  118OSM   H11A12353   4.555   4.730   6.038  2.4889  0.4105 -1.6949
  118OSM   H11B12354   4.628   4.867   6.133  2.2862 -0.7130 -2.2357
  118OSM      P12355   4.470   4.571   6.247 -0.2326  0.1126  0.0399
  118OSM    O1312356   4.361   4.551   6.145 -0.8420  0.1600  0.3376
  118OSM    O1412357   4.563   4.457   6.255 -0.1604 -0.1315 -0.1836
  118OSM    O1112358   4.405   4.583   6.382  0.0669  0.3674  0.0338
  118OSM    O1212359   4.543   4.717   6.239  0.5839 -0.2985  0.0599
  118OSM    C1S12360   4.480   4.591   6.504  0.3770 -0.3092 -0.5154
  118OSM    H1S12361   4.498   4.698   6.527 -0.4933  0.0215 -1.3240
  118OSM    H1T12362   4.579   4.539   6.510 -1.0225 -3.0635  1.7419
  118OSM     NF12363   4.485   4.539   6.749 -0.2392 -0.6488 -0.3616
  118OSM    HNF12364   4.513   4.450   6.786 -2.6394 -0.7745  1.3926
  118OSM    C2S12365   4.396   4.540   6.635  0.1672 -0.3444 -0.1218
  118OSM    H2S12366   4.323   4.622   6.649 -0.9428 -1.0262 -1.5372
  118OSM    C3S12367   4.318   4.406   6.616  0.2250  0.1727 -0.4548
  118OSM    H3S12368   4.394   4.326   6.631  1.4416  1.4228  0.4063
  118OSM     O312369   4.256   4.385   6.487 -0.2831 -0.2882  0.3882
  118OSM    HO312370   4.297   4.439   6.419 -0.0841  0.4497  1.0807
  118OSM    C4S12371   4.216   4.396   6.735 -0.0564 -0.0562  0.2716
  118OSM    H4S12372   4.254   4.334   6.818  1.4320  0.4927  0.0368
  118OSM    C5S12373   4.092   4.441   6.737  0.5015  0.2047  0.6668
  118OSM    H5S12374   4.059   4.504   6.653 -1.8300  0.3942  1.6560
  118OSM    C6S12375   3.992   4.430   6.851 -0.4282 -0.4190  0.0904
  118OSM    H6S12376   3.932   4.336   6.848 -1.2291  0.0409  1.1884
  118OSM    H6T12377   3.927   4.521   6.850 -0.5568 -0.5083  0.2728
  118OSM    C7S12378   4.076   4.422   6.984  0.6182 -0.2891  0.0012
  118OSM    H7S12379   4.159   4.495   6.990  1.6192 -1.4279  0.2972
  118OSM    H7T12380   4.128   4.324   6.994  1.1533 -0.2490 -1.9932
  118OSM    C8S12381   3.978   4.428   7.105 -0.2181  0.2259 -0.8129
  118OSM    H8S12382   3.886   4.371   7.080 -1.3046  0.7613  1.6307
  118OSM    H8T12383   3.944   4.533   7.120 -1.4665 -0.0633 -1.4771
  118OSM    C9S12384   4.048   4.389   7.236 -0.5425 -0.9352 -0.6867
  118OSM    H9S12385   4.139   4.449   7.252  0.8419 -3.1111  0.0892
  118OSM    H9T12386   4.074   4.281   7.241 -0.9816 -1.0557 -0.9020
  118OSM   C10S12387   3.945   4.406   7.357 -0.1675 -0.4159  0.2281
  118OSM   H10S12388   3.840   4.383   7.326 -0.2840 -1.3770  1.2627
  118OSM   H10T12389   3.938   4.510   7.394  0.4544 -1.0041  2.0861
  118OSM   C11S12390   3.986   4.308   7.472 -0.0663  0.2591  0.3574
  118OSM   H11S12391   4.096   4.294   7.477  0.2821  2.7292  1.1438
  118OSM   H11T12392   3.926   4.217   7.454 -2.6697  1.8235  0.6068
  118OSM   C12S12393   3.944   4.369   7.603  0.2071  0.3751 -0.5341
  118OSM   H12S12394   3.834   4.388   7.607 -0.1269 -1.5348  1.1939
  118OSM   H12T12395   3.986   4.467   7.633  0.7362 -0.4210  1.5203
  118OSM   C13S12396   3.976   4.271   7.719  0.8625 -0.2178  0.6959
  118OSM   H13S12397   4.085   4.288   7.732  0.2293  2.8491  3.1828
  118OSM   H13T12398   3.947   4.166   7.698 -1.7302  0.6496 -0.5530
  118OSM   C14S12399   3.925   4.310   7.860  0.4236  0.1806 -0.2979
  118OSM   H14S12400   3.815   4.292   7.861  0.7285 -2.2628  2.1859
  118OSM   H14T12401   3.929   4.420   7.878  3.7584 -0.2167  2.3425
  118OSM   C15S12402   3.997   4.240   7.972 -1.1119  0.2687  0.0518
  118OSM   H15S12403   4.102   4.278   7.965 -1.9072  3.2536  2.0144
  118OSM   H15T12404   4.005   4.131   7.954 -0.6589  0.0312  1.5334
  118OSM   C16S12405   3.951   4.280   8.108 -0.0510  0.8582 -0.1553
  118OSM   H16S12406   3.842   4.265   8.124  0.0413  1.4244  1.2054
  118OSM   H16T12407   3.975   4.386   8.131  0.4407  1.3282 -2.6042
  118OSM   C17S12408   4.034   4.207   8.217 -1.3813 -0.2125  0.8396
  118OSM   H17S12409   4.139   4.224   8.188 -1.1343 -0.3690  1.6177
  118OSM   H17T12410   4.027   4.097   8.212 -2.0133 -0.1884  1.0511
  118OSM   C18S12411   4.001   4.247   8.362 -0.7372  0.8832 -0.2454
  118OSM   H18S12412   3.984   4.162   8.431  2.2542  1.4862  1.3766
  118OSM   H18T12413   3.896   4.283   8.349 -0.5472  0.6010 -3.2587
  118OSM   H18U12414   4.062   4.333   8.397  0.7016 -0.1360 -0.1838
  118OSM    C1F12415   4.533   4.649   6.806 -0.0508 -0.1620 -0.0378
  118OSM     OF12416   4.508   4.764   6.758 -0.1093 -0.0588 -0.3223
  118OSM    C2F12417   4.620   4.631   6.923  0.3766  0.8282 -0.2765
  118OSM    H2F12418   4.693   4.715   6.920  0.7018  0.5325 -0.7238
  118OSM    H2G12419   4.672   4.535   6.900  0.9945  0.4589  2.3407
  118OSM    C3F12420   4.536   4.622   7.051  0.5079 -0.0710 -0.2725
  118OSM    H3F12421   4.459   4.542   7.049 -0.5059  0.8412  0.7628
  118OSM    H3G12422   4.493   4.724   7.064  0.9242  0.0002  0.5697
  118OSM    C4F12423   4.607   4.586   7.180 -0.3685  0.3185 -0.7130
  118OSM    H4F12424   4.681   4.666   7.202 -1.8766  1.5788 -0.0518
  118OSM    H4G12425   4.664   4.495   7.153 -0.3489  0.3594 -0.8094
  118OSM    C5F12426   4.517   4.571   7.304 -0.0769  0.2574  0.2122
  118OSM    H5F12427   4.418   4.528   7.278  0.2527 -0.9010  0.7827
  118OSM    H5G12428   4.498   4.675   7.339 -0.1972  1.0353 -1.9990
  118OSM    C6F12429   4.574   4.491   7.416 -0.2322  0.3860 -0.2646
  118OSM    H6F12430   4.671   4.516   7.464  0.3771 -0.4302 -1.0405
  118OSM    H6G12431   4.577   4.391   7.367 -1.9057 -0.9476  2.1096
  118OSM    C7F12432   4.460   4.462   7.519 -0.0133 -0.1275 -0.6288
  118OSM    H7F12433   4.370   4.425   7.466 -0.5792 -1.5743  1.2369
  118OSM    H7G12434   4.431   4.560   7.563  2.0587 -0.3648  1.4710
  118OSM    C8F12435   4.506   4.356   7.623  0.6072 -0.6297  0.1639
  118OSM    H8F12436   4.604   4.374   7.672  0.0563 -0.7184  1.3329
  118OSM    H8G12437   4.505   4.271   7.551 -0.2653  0.8541 -1.6863
  118OSM    C9F12438   4.404   4.327   7.728  0.5623 -0.2090 -0.2845
  118OSM    H9F12439   4.307   4.294   7.687  0.1552 -0.4974  0.8729
  118OSM   C10F12440   4.423   4.307   7.861 -0.7492 -0.6681  0.0076
  118OSM   H10F12441   4.340   4.284   7.930 -1.0670  0.4445  0.0134
  118OSM   C11F12442   4.551   4.322   7.940 -0.1571  0.1927  0.1214
  118OSM   H11F12443   4.614   4.407   7.904 -0.6740  0.7404  0.4856
  118OSM   H11G12444   4.617   4.233   7.927 -0.5192 -0.0408 -0.1097
  118OSM   C12F12445   4.538   4.335   8.092 -0.8210  0.6189  0.1218
  118OSM   H12F12446   4.637   4.365   8.132 -1.4689  2.4689  0.4262
  118OSM   H12G12447   4.518   4.231   8.128  1.2145 -0.7009 -2.1999
  118OSM   C13F12448   4.431   4.436   8.134  0.4459  0.2176  0.0121
  118OSM   H13F12449   4.335   4.386   8.112  0.3008 -0.4993  2.1177
  118OSM   H13G12450   4.441   4.531   8.077 -1.4427  0.7772  0.5374
  118OSM   C14F12451   4.443   4.480   8.278 -0.0364  0.2576  0.0033
  118OSM   H14F12452   4.549   4.496   8.306 -0.2179 -2.0155  2.3576
  118OSM   H14G12453   4.396   4.401   8.340  0.0765  0.7199  0.6824
  118OSM   C15F12454   4.373   4.611   8.321 -0.3574 -0.5043 -0.8058
  118OSM   H15F12455   4.266   4.608   8.291 -1.1286  0.5874  1.5989
  118OSM   H15G12456   4.414   4.701   8.269 -1.5681  0.5225 -0.0611
  118OSM   C16F12457   4.384   4.640   8.474  0.3046  0.6873 -0.3139
  118OSM   H16F12458   4.353   4.746   8.488 -0.0214  0.4318  1.0787
  118OSM   H16G12459   4.491   4.631   8.503  0.7450  0.6366 -1.8471
  118OSM   C17F12460   4.296   4.555   8.570 -0.2485  0.1485  0.0387
  118OSM   H17F12461   4.309   4.597   8.673  3.4517  2.2938 -1.1171
  118OSM   H17G12462   4.336   4.452   8.568 -0.9646 -0.1188 -1.5001
  118OSM   C18F12463   4.147   4.557   8.542  0.4801 -0.6283  0.6528
  118OSM   H18F12464   4.110   4.661   8.560 -0.9593 -1.2604  1.6333
  118OSM   H18G12465   4.087   4.489   8.607 -0.7888 -0.6444 -0.4926
  118OSM   H18H12466   4.126   4.526   8.437  2.7904 -2.0409  0.5625
  119OSM      N12467   6.360   4.570   5.844 -0.7154  0.3757  0.4503
  119OSM    C1512468   6.364   4.497   5.971 -0.4799  0.3362 -0.1016
  119OSM   H15A12469   6.322   4.552   6.053 -0.5238  1.5071 -0.8914
  119OSM   H15B12470   6.470   4.487   5.988 -0.1878  3.3147  0.3377
  119OSM   H15C12471   6.317   4.400   5.959  1.6608 -0.7882  0.0783
  119OSM    C1412472   6.452   4.498   5.759  0.1759  0.1167  0.2050
  119OSM   H14A12473   6.413   4.399   5.741 -0.6544  0.7051 -1.4530
  119OSM   H14B12474   6.555   4.492   5.790  0.1999 -1.6882 -0.1685
  119OSM   H14C12475   6.463   4.531   5.657  0.1077 -2.6392 -0.7703
  119OSM    C1312476   6.225   4.580   5.780 -0.5451  0.1790 -0.1219
  119OSM   H13A12477   6.214   4.484   5.732 -0.8279  0.9860 -1.7692
  119OSM   H13B12478   6.226   4.652   5.699 -0.2146 -1.9386 -2.1339
  119OSM   H13C12479   6.151   4.610   5.852 -0.6817  0.5225 -0.3984
  119OSM    C1212480   6.417   4.711   5.855 -0.9153  0.2216  0.2606
  119OSM   H12A12481   6.433   4.756   5.758 -0.3752  0.1332  0.3040
  119OSM   H12B12482   6.513   4.697   5.904 -0.3138 -0.8820 -1.1644
  119OSM    C1112483   6.338   4.810   5.935 -0.7580  0.2971  0.6980
  119OSM   H11A12484   6.312   4.764   6.033  1.5962  1.2090  1.8144
  119OSM   H11B12485   6.244   4.831   5.881  0.1687  0.1517 -1.0474
  119OSM      P12486   6.547   4.918   6.051  0.1554  0.2421  0.3360
  119OSM    O1312487   6.655   4.853   5.969 -0.2803  0.2761  0.5225
  119OSM    O1412488   6.573   5.049   6.094 -0.3794 -0.3878  0.3153
  119OSM    O1112489   6.515   4.824   6.171  0.8672  0.6436 -0.6460
  119OSM    O1212490   6.422   4.926   5.955  0.2494  0.6199 -0.3169
  119OSM    C1S12491   6.617   4.811   6.269  0.0061  0.0863 -0.1934
  119OSM    H1S12492   6.690   4.894   6.267  0.5980 -0.3916 -3.4324
  119OSM    H1T12493   6.686   4.725   6.261  0.7240  0.3481  2.4453
  119OSM     NF12494   6.664   4.798   6.521  0.2402  0.2492  0.2815
  119OSM    HNF12495   6.670   4.718   6.580 -2.4084  0.2187  0.6467
  119OSM    C2S12496   6.557   4.800   6.419 -0.0711 -0.1586  0.3875
  119OSM    H2S12497   6.495   4.890   6.440 -1.0466 -1.0915  1.6714
  119OSM    C3S12498   6.454   4.683   6.417 -0.8780 -0.2409  0.1866
  119OSM    H3S12499   6.517   4.592   6.409 -1.2244 -0.5350  0.7016
  119OSM     O312500   6.359   4.671   6.307  0.3992 -0.6242 -0.7416
  119OSM    HO312501   6.395   4.734   6.243  2.7022  0.1853  1.2140
  119OSM    C4S12502   6.386   4.689   6.552  0.1726 -0.3658 -0.2376
  119OSM    H4S12503   6.436   4.618   6.619 -0.3547 -1.4985 -1.0096
  119OSM    C5S12504   6.286   4.764   6.602 -0.5448  0.2794 -0.1581
  119OSM    H5S12505   6.236   4.836   6.535  0.6003  1.2584 -0.0043
  119OSM    C6S12506   6.245   4.751   6.747 -0.3060  0.6941 -0.3612
  119OSM    H6S12507   6.155   4.688   6.761 -0.8071  1.3698 -0.5353
  119OSM    H6T12508   6.219   4.852   6.785 -0.9104  0.0218  1.0720
  119OSM    C7S12509   6.343   4.694   6.853 -0.2419  0.9474  0.0593
  119OSM    H7S12510   6.441   4.746   6.844 -0.3754  0.9879 -1.4761
  119OSM    H7T12511   6.361   4.587   6.833 -1.5180  0.2496  2.3003
  119OSM    C8S12512   6.291   4.714   7.001 -0.2901  0.3956 -0.6591
  119OSM    H8S12513   6.183   4.686   7.007  0.1235 -0.9678  1.1005
  119OSM    H8T12514   6.309   4.815   7.044 -1.0177  0.5446 -0.6803
  119OSM    C9S12515   6.361   4.607   7.082 -0.2124  0.2223  0.1329
  119OSM    H9S12516   6.469   4.632   7.081 -0.0601 -0.2984 -2.6077
  119OSM    H9T12517   6.342   4.512   7.027 -0.4037  0.5098 -0.3037
  119OSM   C10S12518   6.319   4.590   7.230  0.3068 -0.3545  0.3982
  119OSM   H10S12519   6.376   4.501   7.263  2.8329  0.2952 -1.8518
  119OSM   H10T12520   6.219   4.542   7.229  1.2199 -2.3818 -1.3114
  119OSM   C11S12521   6.336   4.713   7.318 -0.2529 -0.1486  0.4477
  119OSM   H11S12522   6.292   4.804   7.272 -1.4064 -0.0819  1.6337
  119OSM   H11T12523   6.445   4.737   7.320 -0.3521  0.2917  0.5914
  119OSM   C12S12524   6.271   4.698   7.451 -0.3691  0.4980  0.3832
  119OSM   H12S12525   6.172   4.657   7.422  0.6109 -1.1161 -0.8832
  119OSM   H12T12526   6.259   4.801   7.491 -0.8702  0.3686  0.5777
  119OSM   C13S12527   6.348   4.605   7.543  0.4196 -0.5774 -0.4185
  119OSM   H13S12528   6.412   4.667   7.609  1.4549 -2.1752  0.1329
  119OSM   H13T12529   6.410   4.523   7.500  1.1729  0.2097 -0.8649
  119OSM   C14S12530   6.246   4.538   7.635 -0.3948  0.3327  0.4009
  119OSM   H14S12531   6.175   4.472   7.580 -0.5516  0.1791  0.7800
  119OSM   H14T12532   6.180   4.616   7.678 -0.3702 -0.6720  2.4244
  119OSM   C15S12533   6.311   4.432   7.735  0.2005  0.0340 -0.7235
  119OSM   H15S12534   6.243   4.423   7.822 -0.7202 -3.6809 -1.6498
  119OSM   H15T12535   6.409   4.474   7.768  1.1163 -0.3834 -2.7557
  119OSM   C16S12536   6.336   4.280   7.689 -0.1763  0.4694 -0.0675
  119OSM   H16S12537   6.415   4.275   7.611 -0.9204 -0.4113 -0.8079
  119OSM   H16T12538   6.247   4.245   7.631 -0.8717  1.9401  0.0772
  119OSM   C17S12539   6.356   4.181   7.807  0.4032 -0.1153 -0.2769
  119OSM   H17S12540   6.270   4.198   7.875 -0.7182 -2.7467 -0.8873
  119OSM   H17T12541   6.449   4.212   7.858 -0.1729  0.9047  0.1854
  119OSM   C18S12542   6.352   4.037   7.763 -1.1503  0.2685 -0.1278
  119OSM   H18S12543   6.250   3.998   7.742 -0.1075 -1.4162 -2.6139
  119OSM   H18T12544   6.411   3.977   7.836 -0.9949  0.1574 -0.3425
  119OSM   H18U12545   6.406   4.028   7.667  0.6991  2.1634  0.6641
  119OSM    C1F12546   6.743   4.903   6.542 -0.1844 -0.3927 -0.4755
  119OSM     OF12547   6.724   5.010   6.483  0.3991  0.7551  0.9920
  119OSM    C2F12548   6.853   4.877   6.646  0.9709 -0.5857 -0.6633
  119OSM    H2F12549   6.854   4.767   6.658 -0.3147 -0.5881 -0.5156
  119OSM    H2G12550   6.833   4.918   6.747 -1.5757 -5.2058  0.9794
  119OSM    C3F12551   6.995   4.919   6.602 -0.8964 -0.4827 -0.6137
  119OSM    H3F12552   7.004   5.029   6.601 -2.3240 -0.3402 -1.7470
  119OSM    H3G12553   7.005   4.887   6.496 -0.0255  0.8778 -0.9638
  119OSM    C4F12554   7.114   4.854   6.673  0.0472  1.0667  0.0506
  119OSM    H4F12555   7.199   4.868   6.603  0.2853 -0.4541 -0.0105
  119OSM    H4G12556   7.094   4.746   6.688 -1.3317  1.5540  2.0594
  119OSM    C5F12557   7.151   4.920   6.807 -0.2284 -0.7945 -0.3395
  119OSM    H5F12558   7.058   4.950   6.859  0.5773 -0.9983  1.3016
  119OSM    H5G12559   7.211   5.011   6.786  0.2110 -1.5782 -2.7702
  119OSM    C6F12560   7.220   4.813   6.889  0.6922 -0.6206  0.2115
  119OSM    H6F12561   7.302   4.780   6.822  0.3272 -0.9866 -0.0583
  119OSM    H6G12562   7.144   4.732   6.881  0.6853 -0.4973 -1.1011
  119OSM    C7F12563   7.260   4.854   7.036  0.2217  0.3340  1.5383
  119OSM    H7F12564   7.332   4.937   7.027 -0.9297  1.1630 -1.2019
  119OSM    H7G12565   7.320   4.764   7.064  1.6362 -1.5262 -5.4629
  119OSM    C8F12566   7.145   4.903   7.130  0.2007 -0.1253 -0.3544
  119OSM    H8F12567   7.075   4.962   7.067 -2.6822 -1.6884  1.1548
  119OSM    H8G12568   7.179   4.967   7.214 -0.7972 -0.9284  0.6907
  119OSM    C9F12569   7.075   4.781   7.186  0.3472  0.5939  0.1151
  119OSM    H9F12570   7.031   4.707   7.118  0.6402  0.8003 -0.3035
  119OSM   C10F12571   7.088   4.741   7.313  0.1241  0.2686 -1.0037
  119OSM   H10F12572   7.030   4.657   7.354  2.0896 -0.3682  0.6366
  119OSM   C11F12573   7.172   4.799   7.428 -0.2710 -0.7564 -0.7676
  119OSM   H11F12574   7.121   4.873   7.493 -0.0977  1.3182 -2.8942
  119OSM   H11G12575   7.261   4.853   7.389  0.3448 -1.1398  0.0537
  119OSM   C12F12576   7.226   4.673   7.504  0.1780 -0.0173  0.3852
  119OSM   H12F12577   7.279   4.609   7.431  1.2020  1.4376 -0.2106
  119OSM   H12G12578   7.148   4.603   7.540  0.0574 -0.6612 -1.0520
  119OSM   C13F12579   7.315   4.714   7.618 -0.8270  0.8297 -0.5100
  119OSM   H13F12580   7.257   4.733   7.711 -0.5743  2.0182 -0.5843
  119OSM   H13G12581   7.358   4.812   7.590 -0.0858  0.0043 -2.5002
  119OSM   C14F12582   7.435   4.620   7.640 -0.4312 -0.0692  0.4331
  119OSM   H14F12583   7.395   4.517   7.650  0.6563 -0.4338  1.2550
  119OSM   H14G12584   7.486   4.664   7.728 -1.8273  3.9761 -0.5579
  119OSM   C15F12585   7.546   4.617   7.533 -0.0148 -0.0883  0.7116
  119OSM   H15F12586   7.585   4.720   7.531 -1.3016  0.4135 -0.6141
  119OSM   H15G12587   7.504   4.577   7.438 -0.7803  1.1370  0.5052
  119OSM   C16F12588   7.667   4.536   7.582 -0.2422  0.1733  0.3375
  119OSM   H16F12589   7.715   4.589   7.667 -1.1503  2.3866 -0.4544
  119OSM   H16G12590   7.744   4.535   7.501 -1.1265 -1.6793 -0.5467
  119OSM   C17F12591   7.642   4.389   7.615  0.0467  0.2769 -0.2295
  119OSM   H17F12592   7.609   4.331   7.526  0.6505  0.0684 -0.3205
  119OSM   H17G12593   7.565   4.386   7.695 -1.0711 -0.9496 -1.2812
  119OSM   C18F12594   7.762   4.329   7.691  0.3561 -0.0729 -0.4728
  119OSM   H18F12595   7.859   4.342   7.639 -0.7530  0.8550 -2.4279
  119OSM   H18G12596   7.744   4.223   7.719 -2.5261  0.9306  2.0402
  119OSM   H18H12597   7.760   4.399   7.777  0.8454  0.2964 -0.7618
  120OSM      N12598   4.513   2.535   6.329  0.1564 -0.3340  0.2363
  120OSM    C1512599   4.478   2.419   6.415 -0.1804  0.1968 -0.1411
  120OSM   H15A12600   4.456   2.325   6.368 -1.3010 -0.4603  1.5755
  120OSM   H15B12601   4.400   2.442   6.487 -0.0820  3.4783 -0.9097
  120OSM   H15C12602   4.562   2.400   6.480 -1.1196 -0.8450  0.8262
  120OSM    C1412603   4.405   2.537   6.227 -0.6442  0.2165  0.0862
  120OSM   H14A12604   4.423   2.457   6.158  0.5163  0.4047  0.1443
  120OSM   H14B12605   4.406   2.625   6.165  0.9974 -0.0664 -0.3288
  120OSM   H14C12606   4.305   2.536   6.268 -0.6368  1.2424  0.1738
  120OSM    C1312607   4.511   2.670   6.406  0.4795  0.0442 -0.5345
  120OSM   H13A12608   4.514   2.753   6.337 -1.8248  0.3048 -0.4227
  120OSM   H13B12609   4.591   2.682   6.476 -0.6146 -0.9876  0.9570
  120OSM   H13C12610   4.422   2.687   6.465 -0.0779 -1.4651 -0.8901
  120OSM    C1212611   4.654   2.517   6.265  0.3061  0.1270  0.1518
  120OSM   H12A12612   4.664   2.584   6.181  1.5150  0.9590  0.9162
  120OSM   H12B12613   4.677   2.419   6.227  1.1635  0.9503 -1.5639
  120OSM    C1112614   4.776   2.524   6.363  0.1378 -0.6162 -0.4161
  120OSM   H11A12615   4.780   2.623   6.413  1.1585 -1.0042  0.2858
  120OSM   H11B12616   4.867   2.518   6.301  0.1387  0.4398 -0.5294
  120OSM      P12617   4.913   2.376   6.525 -0.4081 -0.2474 -0.0751
  120OSM    O1312618   4.881   2.284   6.632 -0.0401  0.3250 -0.1329
  120OSM    O1412619   4.987   2.321   6.404 -0.0559  0.6249  0.2452
  120OSM    O1112620   4.979   2.510   6.570 -0.4647  0.2049  0.2085
  120OSM    O1212621   4.772   2.423   6.463  0.1535  0.4658  0.4702
  120OSM    C1S12622   4.942   2.599   6.675  0.0613  0.3241  0.2662
  120OSM    H1S12623   4.832   2.612   6.681 -0.4614 -3.2619  0.3956
  120OSM    H1T12624   4.985   2.698   6.646  2.4555 -0.3054  1.4116
  120OSM     NF12625   4.937   2.645   6.913  0.6250 -0.1954  0.6180
  120OSM    HNF12626   4.987   2.717   6.959 -0.3032  0.6282  0.3791
  120OSM    C2S12627   5.005   2.565   6.811 -0.0869 -0.4180 -0.2790
  120OSM    H2S12628   4.988   2.458   6.833 -1.6932 -0.4530 -1.4875
  120OSM    C3S12629   5.157   2.595   6.804 -0.1846  0.1019 -0.3545
  120OSM    H3S12630   5.180   2.703   6.792 -1.5155  0.4959  0.4374
  120OSM     O312631   5.213   2.563   6.684  0.9388 -0.0096 -0.1081
  120OSM    HO312632   5.137   2.551   6.626  0.0654  1.4456  0.6778
  120OSM    C4S12633   5.230   2.536   6.923  0.2179  0.1337 -0.3765
  120OSM    H4S12634   5.241   2.610   7.003 -2.8324  1.1973 -0.8431
  120OSM    C5S12635   5.292   2.414   6.930  0.2947  0.5540  0.3200
  120OSM    H5S12636   5.292   2.351   6.840 -1.3664 -0.3377  0.9056
  120OSM    C6S12637   5.375   2.372   7.046  0.2849  0.1099 -0.8323
  120OSM    H6S12638   5.469   2.431   7.048  0.3128  0.0549 -0.4100
  120OSM    H6T12639   5.410   2.267   7.036 -0.9294 -0.4835  0.6681
  120OSM    C7S12640   5.308   2.400   7.185  0.2433 -0.3588  0.1670
  120OSM    H7S12641   5.201   2.372   7.182  0.7139 -2.4044  0.6999
  120OSM    H7T12642   5.323   2.508   7.203 -2.6808  0.9063 -3.7141
  120OSM    C8S12643   5.373   2.332   7.315  0.6099  0.0725 -0.1743
  120OSM    H8S12644   5.484   2.336   7.312  0.6176  0.0591  0.1143
  120OSM    H8T12645   5.338   2.227   7.324  1.2823 -0.0867  0.6674
  120OSM    C9S12646   5.329   2.405   7.448 -0.3946 -0.6901  0.0945
  120OSM    H9S12647   5.221   2.385   7.465 -0.2404 -1.2160  0.5015
  120OSM    H9T12648   5.354   2.513   7.444 -0.6250 -0.6779 -2.0501
  120OSM   C10S12649   5.396   2.341   7.566  0.4720 -0.7719 -0.3240
  120OSM   H10S12650   5.506   2.355   7.556  0.3189 -0.2352 -1.4203
  120OSM   H10T12651   5.377   2.232   7.559 -1.9718 -0.4358  0.0465
  120OSM   C11S12652   5.355   2.397   7.705  0.3311  0.1954 -0.2628
  120OSM   H11S12653   5.252   2.366   7.731  0.9111 -1.7952 -0.1391
  120OSM   H11T12654   5.342   2.507   7.692  0.4693  0.1402 -0.8960
  120OSM   C12S12655   5.440   2.375   7.829  0.6142 -0.7139 -0.0357
  120OSM   H12S12656   5.532   2.438   7.821 -0.1168  1.2195  3.8653
  120OSM   H12T12657   5.473   2.270   7.843  0.6560 -0.6862  0.0815
  120OSM   C13S12658   5.364   2.424   7.952 -0.3907 -0.1442 -0.1499
  120OSM   H13S12659   5.302   2.512   7.924 -0.1328 -0.2041 -0.9362
  120OSM   H13T12660   5.439   2.470   8.019  0.2599  1.6660 -2.0227
  120OSM   C14S12661   5.278   2.319   8.035 -0.0027  0.4859 -0.0697
  120OSM   H14S12662   5.196   2.293   7.964 -1.3322 -0.8680  1.8641
  120OSM   H14T12663   5.233   2.374   8.120  1.4626  4.5381 -1.6185
  120OSM   C15S12664   5.348   2.193   8.089 -0.4504  0.0875  0.1632
  120OSM   H15S12665   5.407   2.211   8.181 -0.3543 -2.8322  0.7573
  120OSM   H15T12666   5.417   2.140   8.020 -1.2126 -1.0861  0.2743
  120OSM   C16S12667   5.245   2.086   8.132  0.2026 -0.3651 -0.2557
  120OSM   H16S12668   5.153   2.131   8.176  0.1783  1.8515 -2.3797
  120OSM   H16T12669   5.293   2.022   8.209  3.7390  2.4887  0.2038
  120OSM   C17S12670   5.212   2.006   8.007  0.0171 -0.3070 -0.2741
  120OSM   H17S12671   5.299   1.947   7.970  1.4575  0.2867  1.9414
  120OSM   H17T12672   5.194   2.075   7.922  2.0604  1.0129  0.2837
  120OSM   C18S12673   5.095   1.924   8.017 -0.1246 -0.3684 -0.4655
  120OSM   H18S12674   5.105   1.833   7.955  2.3057  1.3974 -2.8913
  120OSM   H18T12675   5.003   1.978   7.986 -0.9156 -0.1940  1.9714
  120OSM   H18U12676   5.078   1.888   8.121 -0.5207  1.8302  0.2815
  120OSM    C1F12677   4.805   2.625   6.948  0.1564  0.0532 -0.1431
  120OSM     OF12678   4.729   2.560   6.882 -0.0054  0.2084 -0.2599
  120OSM    C2F12679   4.755   2.713   7.060 -0.0412 -0.0483  0.3267
  120OSM    H2F12680   4.733   2.817   7.027  0.2703  0.6353  2.1457
  120OSM    H2G12681   4.840   2.714   7.132  1.5758 -2.6403 -1.4049
  120OSM    C3F12682   4.630   2.655   7.143  0.0598  0.2157  0.2943
  120OSM    H3F12683   4.538   2.645   7.080 -2.2715  0.8441  3.3618
  120OSM    H3G12684   4.607   2.724   7.227  2.0093  0.2035  0.8676
  120OSM    C4F12685   4.658   2.515   7.203 -0.1972  0.0926  0.2203
  120OSM    H4F12686   4.755   2.511   7.257  0.5536  0.8592 -1.0204
  120OSM    H4G12687   4.662   2.444   7.117 -0.9795  2.1280 -1.5976
  120OSM    C5F12688   4.542   2.457   7.284 -0.2352  0.2277  0.2133
  120OSM    H5F12689   4.442   2.459   7.237  0.8898  0.5701 -2.3531
  120OSM    H5G12690   4.536   2.507   7.383  2.9320 -0.6120  0.9582
  120OSM    C6F12691   4.568   2.311   7.327 -0.1566 -0.0246  0.7081
  120OSM    H6F12692   4.672   2.298   7.363  0.6477  0.6322 -1.2176
  120OSM    H6G12693   4.555   2.255   7.231  0.0130  1.0256  0.0646
  120OSM    C7F12694   4.462   2.263   7.429 -0.1346  0.2593  0.7543
  120OSM    H7F12695   4.359   2.294   7.402 -0.0166 -0.0210 -0.0544
  120OSM    H7G12696   4.486   2.312   7.526  1.6595  2.3669 -0.6554
  120OSM    C8F12697   4.471   2.107   7.453  0.3690 -0.4393 -0.0175
  120OSM    H8F12698   4.438   2.110   7.559  0.9490  1.5024  0.1454
  120OSM    H8G12699   4.578   2.075   7.458  1.5565  2.7030 -2.0598
  120OSM    C9F12700   4.402   2.017   7.353 -0.8888  0.5146 -0.5889
  120OSM    H9F12701   4.419   2.048   7.248  2.0559  2.5924  0.3526
  120OSM   C10F12702   4.337   1.908   7.387 -0.2083 -0.7084 -0.3438
  120OSM   H10F12703   4.286   1.849   7.309 -0.4172  0.0203 -0.7716
  120OSM   C11F12704   4.300   1.856   7.522 -0.6108 -0.6949 -0.6205
  120OSM   H11F12705   4.205   1.799   7.529  1.2691 -3.9472  1.2120
  120OSM   H11G12706   4.286   1.945   7.587 -1.4385  1.1122 -3.1429
  120OSM   C12F12707   4.403   1.768   7.600 -0.5350  0.1480  0.2172
  120OSM   H12F12708   4.473   1.837   7.652  0.3739  0.1190 -0.9369
  120OSM   H12G12709   4.468   1.715   7.527  1.1197  0.4457  1.4282
  120OSM   C13F12710   4.357   1.646   7.686  0.5948 -0.4329 -0.1161
  120OSM   H13F12711   4.447   1.593   7.723  1.3333  0.5565 -0.4396
  120OSM   H13G12712   4.289   1.585   7.624  0.8615 -0.1602 -0.6943
  120OSM   C14F12713   4.270   1.693   7.815 -0.1162 -0.4209 -0.4127
  120OSM   H14F12714   4.188   1.760   7.782  1.5990  0.1038 -4.0896
  120OSM   H14G12715   4.342   1.758   7.870  0.7021 -0.5395 -1.3346
  120OSM   C15F12716   4.221   1.577   7.895 -0.2854  0.8192 -0.2749
  120OSM   H15F12717   4.292   1.491   7.896 -0.6893  0.4736 -0.8875
  120OSM   H15G12718   4.125   1.545   7.849 -0.1585  1.8279 -1.2737
  120OSM   C16F12719   4.183   1.603   8.045  0.0453  0.4251 -0.0116
  120OSM   H16F12720   4.278   1.602   8.104 -0.3178 -0.3970  0.5684
  120OSM   H16G12721   4.118   1.523   8.085 -0.2705  0.9174  0.4643
  120OSM   C17F12722   4.106   1.739   8.077 -0.9231 -0.2319 -0.0502
  120OSM   H17F12723   4.044   1.770   7.991 -2.6364  1.0053  1.5755
  120OSM   H17G12724   4.181   1.820   8.093 -0.3457 -0.5971 -0.8108
  120OSM   C18F12725   4.020   1.746   8.203  0.2223  1.1742 -0.0382
  120OSM   H18F12726   3.946   1.663   8.195  1.4971  0.2144 -3.4476
  120OSM   H18G12727   3.961   1.839   8.215 -0.6313  0.7691 -0.9920
  120OSM   H18H12728   4.084   1.743   8.294 -0.0402 -0.6708  0.1210
  121OSM      N12729   4.001   4.394   6.222  0.5199  1.0181  0.3465
  121OSM    C1512730   3.876   4.412   6.139 -0.5114 -0.1095  0.0548
  121OSM   H15A12731   3.890   4.480   6.057  1.2041  0.4329  0.7444
  121OSM   H15B12732   3.804   4.450   6.210 -0.2971  0.7824 -0.2005
  121OSM   H15C12733   3.842   4.314   6.107  1.3589 -0.3345 -1.4408
  121OSM    C1412734   4.107   4.336   6.142 -0.0597  0.1000 -0.2082
  121OSM   H14A12735   4.071   4.241   6.107  0.7526 -1.0855  1.9509
  121OSM   H14B12736   4.185   4.321   6.216 -0.9420 -1.0554  0.5192
  121OSM   H14C12737   4.147   4.398   6.063  1.0007  0.3417  0.4890
  121OSM    C1312738   4.055   4.526   6.266 -0.7922 -0.0348  0.0587
  121OSM   H13A12739   3.988   4.584   6.327  0.2948  0.7711  0.5098
  121OSM   H13B12740   4.063   4.595   6.183 -1.3601  0.6114  0.5303
  121OSM   H13C12741   4.151   4.516   6.312 -1.2581 -1.0545  0.8465
  121OSM    C1212742   3.966   4.308   6.348  0.3959 -0.0476  0.7293
  121OSM   H12A12743   3.890   4.356   6.409 -2.3002 -1.8409 -1.0182
  121OSM   H12B12744   4.056   4.303   6.408 -0.2173  3.1562  2.1659
  121OSM    C1112745   3.910   4.161   6.328  0.2604 -0.2385  0.4424
  121OSM   H11A12746   3.801   4.170   6.308 -0.0159  0.0564  1.9606
  121OSM   H11B12747   3.903   4.107   6.425  0.5849 -1.0136  0.0424
  121OSM      P12748   4.043   3.943   6.264  0.2671  0.0692 -0.3727
  121OSM    O1312749   3.970   3.829   6.201 -0.2375  0.2367 -0.0561
  121OSM    O1412750   4.192   3.957   6.225  0.0501  0.3826  0.3914
  121OSM    O1112751   4.027   3.931   6.427 -0.4394 -0.3261  0.2115
  121OSM    O1212752   3.978   4.087   6.226  0.2372  0.2892 -0.1586
  121OSM    C1S12753   4.078   3.816   6.488 -0.3598  0.3097 -0.1056
  121OSM    H1S12754   4.180   3.799   6.447  0.7212  2.0148  1.6825
  121OSM    H1T12755   4.025   3.720   6.470  0.3042 -0.1593  0.4286
  121OSM     NF12756   4.180   3.728   6.703 -0.2484 -0.8580  0.5403
  121OSM    HNF12757   4.136   3.665   6.767 -2.0166 -1.2523 -0.9731
  121OSM    C2S12758   4.093   3.833   6.643  0.4297  0.4506 -0.9085
  121OSM    H2S12759   4.145   3.931   6.651  0.2686  0.7527 -3.0457
  121OSM    C3S12760   3.958   3.841   6.718 -0.9219 -0.2714 -0.1093
  121OSM    H3S12761   3.910   3.741   6.716 -1.1855 -0.1356 -0.8581
  121OSM     O312762   3.860   3.920   6.652 -0.3053  0.0758  0.0774
  121OSM    HO312763   3.897   3.945   6.567 -2.0176  3.1958  0.0935
  121OSM    C4S12764   3.967   3.883   6.862  0.4028  0.7276 -0.3522
  121OSM    H4S12765   3.933   3.809   6.936  2.3590 -0.0856 -0.1958
  121OSM    C5S12766   3.970   4.008   6.909  0.5784 -0.4888 -0.6085
  121OSM    H5S12767   3.975   4.100   6.848  1.4319  0.3914  0.7261
  121OSM    C6S12768   3.957   4.049   7.053  0.4689 -0.1480 -0.4441
  121OSM    H6S12769   3.862   4.099   7.081  2.0455  1.9605  1.5026
  121OSM    H6T12770   4.028   4.131   7.078 -1.2736  1.9478 -1.9400
  121OSM    C7S12771   3.970   3.947   7.162  0.2296  0.6040 -0.3128
  121OSM    H7S12772   4.060   3.885   7.143  0.4143  0.5354  0.7367
  121OSM    H7T12773   3.895   3.865   7.159  2.1703 -1.2888 -0.2137
  121OSM    C8S12774   3.986   3.995   7.303 -0.5293 -0.9438 -0.2930
  121OSM    H8S12775   3.894   4.054   7.318 -0.8737 -1.0369 -1.8635
  121OSM    H8T12776   4.080   4.054   7.299 -0.2160 -1.4517 -0.5483
  121OSM    C9S12777   3.991   3.884   7.411 -0.5433  0.4029 -0.5716
  121OSM    H9S12778   4.091   3.839   7.394 -1.0256 -0.0132 -2.5576
  121OSM    H9T12779   3.907   3.814   7.390 -1.1692  0.9377  0.0814
  121OSM   C10S12780   3.974   3.933   7.554  0.2952  0.4330  0.5178
  121OSM   H10S12781   3.865   3.949   7.561 -0.5187 -2.5895 -2.4720
  121OSM   H10T12782   4.040   4.022   7.567  0.4960  0.5814 -1.2397
  121OSM   C11S12783   4.006   3.822   7.656 -0.6392 -0.3491  0.8482
  121OSM   H11S12784   4.112   3.806   7.624 -1.1045  1.2476 -1.7573
  121OSM   H11T12785   3.950   3.730   7.625 -0.3235 -0.3473  0.2498
  121OSM   C12S12786   3.980   3.856   7.800  0.2101 -0.0643  0.1494
  121OSM   H12S12787   3.872   3.840   7.819  0.5673 -1.7044  1.0403
  121OSM   H12T12788   4.018   3.958   7.819  0.0408  0.5621 -2.4907
  121OSM   C13S12789   4.042   3.764   7.908 -0.1986  0.3236 -0.2766
  121OSM   H13S12790   4.152   3.776   7.896 -0.3136 -0.1331 -2.1896
  121OSM   H13T12791   4.025   3.656   7.888  0.5343  0.4927 -2.0046
  121OSM   C14S12792   4.007   3.792   8.051  0.2702 -0.5041 -0.0266
  121OSM   H14S12793   3.925   3.722   8.079 -0.1319 -0.7769 -1.7675
  121OSM   H14T12794   3.967   3.895   8.068 -0.4120 -0.7586 -0.0315
  121OSM   C15S12795   4.111   3.773   8.162 -0.3131  0.7301 -0.0388
  121OSM   H15S12796   4.074   3.805   8.261 -0.3571 -0.6816  0.4249
  121OSM   H15T12797   4.212   3.812   8.137  0.3989 -0.4896  0.8548
  121OSM   C16S12798   4.140   3.621   8.182 -1.0734  0.2699  0.1912
  121OSM   H16S12799   4.190   3.590   8.088  0.6333  1.0872  0.7927
  121OSM   H16T12800   4.046   3.564   8.201 -1.2528  0.1355 -1.0475
  121OSM   C17S12801   4.230   3.591   8.305 -0.5319 -0.7273 -0.4629
  121OSM   H17S12802   4.173   3.594   8.401  1.6676 -0.3464  0.8909
  121OSM   H17T12803   4.310   3.668   8.311  0.8443 -2.0452 -1.3676
  121OSM   C18S12804   4.285   3.457   8.288 -0.7870  0.3090 -0.3872
  121OSM   H18S12805   4.207   3.381   8.311 -0.5600  0.0649 -0.4177
  121OSM   H18T12806   4.380   3.443   8.344 -1.0410 -1.1805 -0.2972
  121OSM   H18U12807   4.307   3.438   8.181  0.9038  1.4188 -0.2746
  121OSM    C1F12808   4.308   3.716   6.682  0.8199  0.0612 -0.4372
  121OSM     OF12809   4.365   3.796   6.613  0.1856  0.1365 -0.3184
  121OSM    C2F12810   4.378   3.604   6.752 -0.0183 -0.4974  0.6852
  121OSM    H2F12811   4.319   3.514   6.723 -0.0201 -0.7716  1.4931
  121OSM    H2G12812   4.353   3.615   6.860 -3.3575  1.3420 -0.1500
  121OSM    C3F12813   4.530   3.600   6.739  0.1954  0.4164  0.8183
  121OSM    H3F12814   4.562   3.588   6.634  0.9075 -1.2823  1.1965
  121OSM    H3G12815   4.577   3.507   6.777  1.0232  0.8201  0.8004
  121OSM    C4F12816   4.611   3.718   6.806 -0.3694  0.2976  1.0238
  121OSM    H4F12817   4.582   3.816   6.762 -0.8946  0.0080  0.7097
  121OSM    H4G12818   4.715   3.710   6.769 -1.0110  1.8468 -1.3553
  121OSM    C5F12819   4.615   3.709   6.959  0.8183  0.2816  0.4449
  121OSM    H5F12820   4.509   3.694   6.987  0.8588 -1.7081 -0.2939
  121OSM    H5G12821   4.645   3.803   7.009 -1.2345 -0.1546  2.6587
  121OSM    C6F12822   4.691   3.591   7.012 -0.4477 -0.2785  0.8648
  121OSM    H6F12823   4.789   3.606   6.963 -1.2566 -1.4160 -1.1963
  121OSM    H6G12824   4.640   3.498   6.978 -0.8586  0.4263 -0.4853
  121OSM    C7F12825   4.701   3.587   7.162 -0.4421 -0.1032  0.0319
  121OSM    H7F12826   4.604   3.582   7.214 -0.7182 -0.3829 -0.4962
  121OSM    H7G12827   4.745   3.684   7.194  0.4740 -0.6032  0.3448
  121OSM    C8F12828   4.785   3.478   7.219  0.2460  0.0403 -0.1222
  121OSM    H8F12829   4.741   3.380   7.192 -0.0105  0.2189 -0.3556
  121OSM    H8G12830   4.786   3.504   7.328 -1.2572  1.7543 -0.4531
  121OSM    C9F12831   4.919   3.473   7.158  0.4517  0.0386  0.2712
  121OSM    H9F12832   4.916   3.438   7.054 -0.6487 -0.2903  0.4019
  121OSM   C10F12833   5.038   3.493   7.220  0.2847 -0.3277 -0.8334
  121OSM   H10F12834   5.125   3.480   7.154 -0.9241  2.1496 -3.1079
  121OSM   C11F12835   5.060   3.526   7.365 -0.7030 -0.3594  0.4269
  121OSM   H11F12836   4.981   3.596   7.397 -0.5594 -0.8645  1.9445
  121OSM   H11G12837   5.154   3.579   7.391 -1.0906 -0.0281  1.1501
  121OSM   C12F12838   5.054   3.404   7.458  0.1338 -0.4718  0.7603
  121OSM   H12F12839   4.959   3.354   7.431 -0.9355  0.9038  1.8316
  121OSM   H12G12840   5.038   3.449   7.558 -1.8040 -0.9892  0.7251
  121OSM   C13F12841   5.171   3.313   7.440 -0.1909 -0.2469  0.0184
  121OSM   H13F12842   5.184   3.302   7.330  1.0912  0.4603  0.0790
  121OSM   H13G12843   5.151   3.210   7.478  2.5393 -0.0963  2.2485
  121OSM   C14F12844   5.302   3.365   7.504  0.0325 -0.2993 -0.2929
  121OSM   H14F12845   5.335   3.464   7.467 -1.7834  1.3941  2.3142
  121OSM   H14G12846   5.374   3.286   7.473 -3.1865 -2.8856 -1.7999
  121OSM   C15F12847   5.272   3.383   7.658 -0.2937 -1.1415 -0.2223
  121OSM   H15F12848   5.240   3.284   7.696 -0.6033 -1.2597 -0.7792
  121OSM   H15G12849   5.187   3.453   7.677 -1.8808 -3.3715  1.3810
  121OSM   C16F12850   5.402   3.408   7.734 -0.3911 -0.1192 -0.4204
  121OSM   H16F12851   5.449   3.502   7.699  0.5403 -0.5876 -0.4382
  121OSM   H16G12852   5.477   3.330   7.712  0.3712  0.3060  0.6203
  121OSM   C17F12853   5.373   3.419   7.883 -0.0187  0.3734 -0.4019
  121OSM   H17F12854   5.337   3.317   7.909  1.0304  0.5518  1.9181
  121OSM   H17G12855   5.287   3.487   7.900  1.2224  1.7741  0.4922
  121OSM   C18F12856   5.487   3.456   7.973  0.4577  0.1139 -0.3813
  121OSM   H18F12857   5.441   3.456   8.074 -3.3468  2.0250 -1.8836
  121OSM   H18G12858   5.528   3.556   7.952  0.8684  0.7902  3.0551
  121OSM   H18H12859   5.572   3.385   7.970 -0.1729 -0.6686 -0.3232
  122OSM      N12860   3.662   3.953   6.058 -0.3656 -0.4153 -0.0459
  122OSM    C1512861   3.549   3.980   5.973  0.1777  0.1872  0.1452
  122OSM   H15A12862   3.568   4.001   5.869  1.6547  1.2211  0.6034
  122OSM   H15B12863   3.490   4.065   6.007  0.5029 -0.1539  1.6167
  122OSM   H15C12864   3.480   3.898   5.964  1.3363 -0.7174 -0.7849
  122OSM    C1412865   3.738   4.086   6.069 -0.2663  0.4543  0.0760
  122OSM   H14A12866   3.752   4.127   5.970 -2.8637  0.1922 -0.4680
  122OSM   H14B12867   3.825   4.066   6.129 -0.2262  0.7546  0.1188
  122OSM   H14C12868   3.675   4.152   6.128 -0.1089 -0.9479  1.9078
  122OSM    C1312869   3.624   3.922   6.192  0.3212 -0.1394  0.2490
  122OSM   H13A12870   3.697   3.937   6.270 -0.2360 -0.3331  0.8205
  122OSM   H13B12871   3.605   3.817   6.207 -0.4720  0.1995  1.9611
  122OSM   H13C12872   3.532   3.974   6.215 -0.6161 -1.1998 -0.9446
  122OSM    C1212873   3.757   3.849   5.998  0.3052  0.0907 -0.3074
  122OSM   H12A12874   3.832   3.817   6.069 -0.2378 -0.8521 -0.1276
  122OSM   H12B12875   3.810   3.884   5.911 -0.3275  0.3354 -0.5954
  122OSM    C1112876   3.683   3.716   5.963  0.0231  0.0591 -0.0347
  122OSM   H11A12877   3.750   3.663   5.892  0.5963 -2.0612  1.9556
  122OSM   H11B12878   3.585   3.734   5.913  0.3081 -1.1161 -1.0663
  122OSM      P12879   3.628   3.478   6.063  0.0238 -0.2756  0.1310
  122OSM    O1312880   3.544   3.448   5.941  0.6176  0.3972  0.5180
  122OSM    O1412881   3.761   3.411   6.066  0.0194 -0.1796  0.1060
  122OSM    O1112882   3.536   3.441   6.190 -0.2386  0.0637  0.5524
  122OSM    O1212883   3.658   3.635   6.079 -0.2255 -0.0431  0.6626
  122OSM    C1S12884   3.575   3.482   6.321  0.6640  0.3290 -0.2685
  122OSM    H1S12885   3.592   3.592   6.326  0.6518  0.2770  1.0684
  122OSM    H1T12886   3.659   3.425   6.365 -0.0632  0.2587  1.0719
  122OSM     NF12887   3.508   3.505   6.558 -0.1195 -0.1665  0.8621
  122OSM    HNF12888   3.562   3.436   6.606  0.1041 -0.3731  0.3251
  122OSM    C2S12889   3.464   3.455   6.429 -0.1142  0.3399  1.1916
  122OSM    H2S12890   3.368   3.492   6.389  0.6949  0.4111 -0.7948
  122OSM    C3S12891   3.444   3.295   6.426  0.5248 -0.1307 -0.7408
  122OSM    H3S12892   3.545   3.248   6.436 -0.6970 -2.5241  1.3367
  122OSM     O312893   3.384   3.245   6.305 -0.1147 -0.1414  0.0276
  122OSM    HO312894   3.428   3.292   6.235  0.8733 -0.3237  0.5018
  122OSM    C4S12895   3.344   3.257   6.542 -0.4451  0.1989  0.0232
  122OSM    H4S12896   3.237   3.267   6.522 -0.2914  1.5443 -0.2053
  122OSM    C5S12897   3.391   3.201   6.659 -0.0039  0.4552 -0.3050
  122OSM    H5S12898   3.500   3.199   6.674  0.2436  1.7679 -1.7605
  122OSM    C6S12899   3.304   3.159   6.779  0.3927 -0.0004  0.4681
  122OSM    H6S12900   3.334   3.061   6.824 -5.1829 -2.3370 -0.0803
  122OSM    H6T12901   3.198   3.146   6.750  0.3840  0.4872  0.2839
  122OSM    C7S12902   3.308   3.272   6.881 -1.1083  0.2910 -0.1322
  122OSM    H7S12903   3.265   3.364   6.835  1.3789  2.6255  1.9107
  122OSM    H7T12904   3.411   3.292   6.915 -0.9647  1.0117 -0.9432
  122OSM    C8S12905   3.198   3.261   6.991 -0.1800 -0.0436  0.0071
  122OSM    H8S12906   3.201   3.160   7.038 -1.1493  0.0970  0.4015
  122OSM    H8T12907   3.101   3.278   6.939 -0.8531  1.6010  1.6995
  122OSM    C9S12908   3.238   3.360   7.103  0.1015 -0.1608 -0.0310
  122OSM    H9S12909   3.234   3.457   7.049 -1.2399 -1.2319 -1.9775
  122OSM    H9T12910   3.341   3.333   7.136  0.4179  1.8360  0.7384
  122OSM   C10S12911   3.135   3.368   7.214 -1.1867 -0.1144 -0.3123
  122OSM   H10S12912   3.127   3.267   7.258 -1.6860 -0.8236 -1.9249
  122OSM   H10T12913   3.037   3.401   7.171 -1.4292  0.7688  0.8789
  122OSM   C11S12914   3.163   3.475   7.323 -0.2627  0.3327  0.2919
  122OSM   H11S12915   3.181   3.578   7.284 -0.1625  0.0701 -0.3514
  122OSM   H11T12916   3.258   3.452   7.376 -0.1010 -0.0132 -0.1404
  122OSM   C12S12917   3.051   3.476   7.430 -0.3685 -0.1921 -0.1626
  122OSM   H12S12918   2.951   3.466   7.381 -0.8139 -1.8678  0.9823
  122OSM   H12T12919   3.064   3.576   7.477  0.4230  0.7792 -2.3324
  122OSM   C13S12920   3.055   3.384   7.557  0.2253  0.4400 -0.3962
  122OSM   H13S12921   3.001   3.433   7.640  2.3942  2.1652  0.0840
  122OSM   H13T12922   3.160   3.368   7.588  0.1284 -2.1177 -1.0821
  122OSM   C14S12923   2.973   3.254   7.539  0.1853 -0.5036 -0.6402
  122OSM   H14S12924   3.035   3.199   7.465  0.9282 -0.9628  0.2965
  122OSM   H14T12925   2.876   3.289   7.497 -0.4288  1.5265  2.2161
  122OSM   C15S12926   2.966   3.167   7.668  0.0632 -0.0158 -0.7342
  122OSM   H15S12927   3.070   3.149   7.703 -0.1914  0.3205  0.2274
  122OSM   H15T12928   2.919   3.073   7.631  0.5607 -1.2061  1.4346
  122OSM   C16S12929   2.888   3.227   7.782  0.5350 -0.1552  0.2040
  122OSM   H16S12930   2.786   3.256   7.750  0.4177  1.1124  1.6320
  122OSM   H16T12931   2.943   3.321   7.802  2.3342 -1.1333  0.1248
  122OSM   C17S12932   2.882   3.139   7.906 -0.1609 -0.3038  0.4829
  122OSM   H17S12933   2.843   3.041   7.870 -0.7280  0.0371  0.1588
  122OSM   H17T12934   2.802   3.179   7.972  0.4774 -2.6970  2.9190
  122OSM   C18S12935   3.018   3.143   7.975  0.4986  0.2095  0.0198
  122OSM   H18S12936   3.010   3.069   8.057 -0.7393 -1.0013 -1.1567
  122OSM   H18T12937   3.023   3.243   8.024  0.8533 -0.9376  2.4968
  122OSM   H18U12938   3.106   3.129   7.909 -0.8200 -1.0668 -1.5451
  122OSM    C1F12939   3.503   3.635   6.584 -0.6106 -0.2133 -0.5103
  122OSM     OF12940   3.435   3.710   6.520  0.1407  0.5972  1.1930
  122OSM    C2F12941   3.577   3.683   6.711  0.1069  0.1022 -0.7893
  122OSM    H2F12942   3.541   3.784   6.739  0.9193  0.0781  0.4362
  122OSM    H2G12943   3.688   3.682   6.706  0.2237 -0.2960  1.0760
  122OSM    C3F12944   3.538   3.584   6.834  0.0442  0.0973  0.2140
  122OSM    H3F12945   3.570   3.482   6.802 -3.2436 -1.8709  2.5430
  122OSM    H3G12946   3.428   3.583   6.845  0.2251  1.2703  3.1171
  122OSM    C4F12947   3.589   3.640   6.963 -0.0220 -0.4178  0.0951
  122OSM    H4F12948   3.559   3.746   6.971  1.5614  0.0139  0.8326
  122OSM    H4G12949   3.700   3.643   6.966 -0.0265 -0.4668  0.3802
  122OSM    C5F12950   3.558   3.561   7.087 -0.1249 -0.1073  0.4603
  122OSM    H5F12951   3.601   3.459   7.084  0.7921  0.2727  0.2995
  122OSM    H5G12952   3.449   3.545   7.072  0.2574 -0.6614 -2.0837
  122OSM    C6F12953   3.602   3.632   7.213  0.1205 -0.0868  0.2253
  122OSM    H6F12954   3.568   3.738   7.214  0.8971  0.1725 -0.3689
  122OSM    H6G12955   3.710   3.643   7.234  0.3194 -0.6776 -0.4581
  122OSM    C7F12956   3.514   3.585   7.330 -0.4682 -0.0774 -0.1679
  122OSM    H7F12957   3.553   3.491   7.376  2.3490  0.1800 -1.7725
  122OSM    H7G12958   3.410   3.579   7.292 -0.5129 -1.2233  0.0805
  122OSM    C8F12959   3.509   3.682   7.455 -0.2069  0.4156 -0.2755
  122OSM    H8F12960   3.416   3.647   7.505  0.3728  0.3443  0.7504
  122OSM    H8G12961   3.496   3.789   7.427  0.9766 -0.0734 -3.0977
  122OSM    C9F12962   3.631   3.669   7.546 -0.2209  0.0539  0.3190
  122OSM    H9F12963   3.729   3.703   7.508 -0.1672 -1.1012 -0.6350
  122OSM   C10F12964   3.638   3.617   7.667 -0.3475 -0.3928  0.4341
  122OSM   H10F12965   3.735   3.624   7.718  0.5341 -1.7951 -0.9397
  122OSM   C11F12966   3.519   3.569   7.747  0.3052 -0.9109 -0.7221
  122OSM   H11F12967   3.515   3.459   7.761 -1.9566 -0.8191 -0.2572
  122OSM   H11G12968   3.415   3.585   7.710 -0.1501 -1.5863  0.2217
  122OSM   C12F12969   3.523   3.616   7.897 -0.3433 -0.5447  0.3150
  122OSM   H12F12970   3.442   3.569   7.956 -1.6144 -0.9249 -1.6179
  122OSM   H12G12971   3.499   3.725   7.899  2.4986  0.1859 -0.4260
  122OSM   C13F12972   3.655   3.586   7.973  0.3655  0.5158 -0.5491
  122OSM   H13F12973   3.644   3.637   8.071 -3.2763 -1.1590  0.0855
  122OSM   H13G12974   3.744   3.616   7.914  0.6847  1.0454  0.1846
  122OSM   C14F12975   3.662   3.436   8.020 -0.0751 -0.3445 -0.0192
  122OSM   H14F12976   3.679   3.382   7.924  0.2014  0.2911 -0.3273
  122OSM   H14G12977   3.567   3.400   8.066  0.3663 -2.3964 -0.6068
  122OSM   C15F12978   3.776   3.411   8.120  0.3499  0.0091 -0.0884
  122OSM   H15F12979   3.848   3.495   8.127 -0.1642  0.4214  0.2835
  122OSM   H15G12980   3.841   3.327   8.086  1.8725  0.3414  1.8159
  122OSM   C16F12981   3.728   3.361   8.259  0.2460 -0.1020  0.5242
  122OSM   H16F12982   3.641   3.292   8.254  0.1172  0.1259 -0.8568
  122OSM   H16G12983   3.687   3.455   8.300 -0.2983 -0.9206  1.9126
  122OSM   C17F12984   3.838   3.290   8.337 -0.5592  0.2575  0.2154
  122OSM   H17F12985   3.922   3.361   8.357 -0.8576  0.3320  1.3046
  122OSM   H17G12986   3.873   3.202   8.279 -0.1650 -0.0215  0.8625
  122OSM   C18F12987   3.796   3.248   8.475  0.6945  0.3990 -0.5364
  122OSM   H18F12988   3.748   3.335   8.527 -1.8602  0.1133 -2.2400
  122OSM   H18G12989   3.884   3.217   8.534  0.5004  2.2258  0.8202
  122OSM   H18H12990   3.730   3.159   8.475  2.0836 -0.6649 -0.4773
  123OSM      N12991   4.293   1.356   6.094 -0.2070 -0.0211 -0.3041
  123OSM    C1512992   4.354   1.485   6.042  0.7935  0.2864  0.0109
  123OSM   H15A12993   4.317   1.502   5.942  0.3519 -2.8176 -0.4593
  123OSM   H15B12994   4.459   1.466   6.025  0.8215  1.9762 -1.9306
  123OSM   H15C12995   4.342   1.570   6.108 -0.0241 -1.2049  1.8984
  123OSM    C1412996   4.145   1.384   6.111 -0.0608  0.4760  0.1209
  123OSM   H14A12997   4.107   1.298   6.164  0.1244  0.7577  0.7144
  123OSM   H14B12998   4.096   1.396   6.015  0.2464 -1.7208 -0.3594
  123OSM   H14C12999   4.134   1.469   6.176  0.4594 -0.7730  1.9235
  123OSM    C1313000   4.309   1.246   5.991  0.6956  0.6155  0.2060
  123OSM   H13A13001   4.246   1.160   6.007  2.2196 -0.9424 -1.7407
  123OSM   H13B13002   4.412   1.215   5.988  1.0200  1.4520  1.5292
  123OSM   H13C13003   4.272   1.286   5.898  2.7503  1.5055 -0.2808
  123OSM    C1213004   4.351   1.328   6.235  0.2118  0.8630 -0.1244
  123OSM   H12A13005   4.325   1.409   6.302  4.1482  3.5780 -1.5130
  123OSM   H12B13006   4.458   1.328   6.244  0.3242 -2.6229 -0.2477
  123OSM    C1113007   4.303   1.196   6.299  0.0064  0.5205  0.0618
  123OSM   H11A13008   4.369   1.176   6.387  0.7658 -0.5803 -0.7299
  123OSM   H11B13009   4.326   1.119   6.222  0.8066  0.6904  0.1164
  123OSM      P13010   4.108   1.065   6.399 -0.2359  0.0335 -0.0924
  123OSM    O1313011   3.964   1.086   6.414  0.4333  0.5434  0.0210
  123OSM    O1413012   4.144   0.951   6.312  0.1737 -0.4939  0.2005
  123OSM    O1113013   4.177   1.053   6.537  0.1087 -0.1968 -0.0000
  123OSM    O1213014   4.166   1.201   6.339  0.4615 -0.9560 -0.1560
  123OSM    C1S13015   4.125   1.143   6.640 -0.1666 -0.1557  0.3938
  123OSM    H1S13016   4.017   1.125   6.657 -0.2981 -0.0664 -0.3394
  123OSM    H1T13017   4.150   1.248   6.617  0.6083 -0.1580  1.1772
  123OSM     NF13018   4.138   1.216   6.879  1.0201 -0.0028 -0.5456
  123OSM    HNF13019   4.192   1.287   6.923  0.7710 -0.6179  0.7856
  123OSM    C2S13020   4.198   1.124   6.781 -0.5270 -0.4427 -1.3540
  123OSM    H2S13021   4.177   1.022   6.820  1.5302 -0.2445  0.4325
  123OSM    C3S13022   4.352   1.149   6.771 -0.3331  0.2327 -0.1407
  123OSM    H3S13023   4.366   1.257   6.747 -0.9770  0.1414 -0.9871
  123OSM     O313024   4.418   1.078   6.662 -0.7159  0.1743 -0.9065
  123OSM    HO313025   4.341   1.045   6.615 -0.5160  0.1089 -1.1840
  123OSM    C4S13026   4.407   1.127   6.912  0.4003 -0.6489 -0.1965
  123OSM    H4S13027   4.375   1.211   6.976  2.3217  0.1362 -0.1899
  123OSM    C5S13028   4.487   1.029   6.953  0.2102  0.2531  0.4398
  123OSM    H5S13029   4.522   0.944   6.893  1.8813  1.1511  0.0790
  123OSM    C6S13030   4.534   1.044   7.096  0.2651 -0.0029  0.1621
  123OSM    H6S13031   4.640   1.077   7.090  0.3666 -0.4745 -0.9531
  123OSM    H6T13032   4.549   0.946   7.146  1.0009  0.3210  0.5975
  123OSM    C7S13033   4.464   1.128   7.205  0.7166  0.2576 -0.3978
  123OSM    H7S13034   4.361   1.089   7.224  2.1023 -1.8250  4.1120
  123OSM    H7T13035   4.476   1.235   7.176  0.3730  0.6764  0.9581
  123OSM    C8S13036   4.537   1.109   7.340 -0.0100 -0.5810 -0.0448
  123OSM    H8S13037   4.643   1.141   7.335 -1.1882  4.0011  0.3882
  123OSM    H8T13038   4.541   0.999   7.357  0.2646 -0.8791 -1.8709
  123OSM    C9S13039   4.483   1.190   7.456  0.1976 -0.0906  0.3105
  123OSM    H9S13040   4.497   1.294   7.419  0.7758 -0.7860 -1.5256
  123OSM    H9T13041   4.543   1.172   7.548  2.0751  1.2925 -0.5592
  123OSM   C10S13042   4.337   1.173   7.490  0.5795 -0.1205 -0.4120
  123OSM   H10S13043   4.303   1.068   7.491  1.5552 -0.4550  0.7469
  123OSM   H10T13044   4.272   1.227   7.418 -0.2406 -1.4536 -0.6903
  123OSM   C11S13045   4.307   1.227   7.632 -0.2589  0.0913 -0.3921
  123OSM   H11S13046   4.199   1.235   7.653 -0.3505  0.4856 -0.9828
  123OSM   H11T13047   4.341   1.333   7.637 -0.4230  0.1965 -1.3231
  123OSM   C12S13048   4.368   1.141   7.739 -0.2235 -0.0896 -0.0250
  123OSM   H12S13049   4.475   1.117   7.721  0.2590 -0.8061  3.0748
  123OSM   H12T13050   4.301   1.053   7.751 -0.5876  0.2794  0.7451
  123OSM   C13S13051   4.375   1.221   7.873  0.0157  0.3004  0.3122
  123OSM   H13S13052   4.275   1.255   7.908  0.0296  1.0702 -0.3594
  123OSM   H13T13053   4.433   1.315   7.857 -0.3699  0.3602 -0.7821
  123OSM   C14S13054   4.457   1.143   7.983  0.1328  0.6132  0.1676
  123OSM   H14S13055   4.558   1.147   7.937 -0.2173 -0.3641 -0.7137
  123OSM   H14T13056   4.426   1.037   7.993 -0.6388  0.9013  1.0240
  123OSM   C15S13057   4.474   1.217   8.113 -0.1858  0.3282 -0.3183
  123OSM   H15S13058   4.455   1.325   8.095  2.4355  1.0666  0.8631
  123OSM   H15T13059   4.576   1.212   8.157 -0.6795  1.2081  0.9611
  123OSM   C16S13060   4.379   1.165   8.223  0.1052 -0.3494 -0.2634
  123OSM   H16S13061   4.397   1.058   8.248  0.4306 -0.6833 -1.8624
  123OSM   H16T13062   4.273   1.183   8.195 -0.0076  0.5823  0.7132
  123OSM   C17S13063   4.406   1.237   8.352  0.5956  0.0906 -0.1153
  123OSM   H17S13064   4.392   1.347   8.352 -0.5649 -0.0092  1.2291
  123OSM   H17T13065   4.513   1.226   8.379 -0.0405 -3.6932  1.5136
  123OSM   C18S13066   4.328   1.197   8.475 -0.8247  0.0350  0.4061
  123OSM   H18S13067   4.361   1.261   8.560 -1.3968 -0.9943  1.4360
  123OSM   H18T13068   4.337   1.095   8.519  0.7799  0.5242  1.2891
  123OSM   H18U13069   4.220   1.212   8.453 -0.6423  0.0315 -0.5053
  123OSM    C1F13070   4.011   1.209   6.914  0.0700 -0.2537 -0.2942
  123OSM     OF13071   3.943   1.111   6.894  0.2064 -0.2081 -0.5875
  123OSM    C2F13072   3.969   1.332   6.989 -0.0119  0.8534  0.3154
  123OSM    H2F13073   4.015   1.422   6.944 -1.3190  0.9942 -0.7740
  123OSM    H2G13074   4.001   1.314   7.094 -0.1923 -0.5164  0.1660
  123OSM    C3F13075   3.815   1.339   6.998 -0.4719  0.5416  0.2734
  123OSM    H3F13076   3.777   1.248   7.049 -0.8101  0.8338  0.5489
  123OSM    H3G13077   3.772   1.352   6.896  1.6004 -0.1329 -0.7391
  123OSM    C4F13078   3.773   1.455   7.092  0.0897  0.5288  0.4532
  123OSM    H4F13079   3.816   1.553   7.064 -1.5334  1.9856  2.7512
  123OSM    H4G13080   3.819   1.445   7.192  3.0757  2.3186 -0.6150
  123OSM    C5F13081   3.620   1.448   7.102 -0.0699 -0.4432  0.4738
  123OSM    H5F13082   3.579   1.358   7.151 -0.7303  1.7492  4.3518
  123OSM    H5G13083   3.565   1.462   7.007  0.9219 -1.4417 -0.2754
  123OSM    C6F13084   3.578   1.560   7.195 -0.1845 -0.1330 -0.4870
  123OSM    H6F13085   3.612   1.655   7.147 -0.6827 -2.1390 -5.4850
  123OSM    H6G13086   3.621   1.545   7.296  0.5690  0.0632 -0.7641
  123OSM    C7F13087   3.432   1.561   7.240 -0.2533 -0.1605 -0.4555
  123OSM    H7F13088   3.409   1.459   7.279  0.1805  0.5385  1.7591
  123OSM    H7G13089   3.376   1.570   7.144 -1.5373  0.2892  0.3018
  123OSM    C8F13090   3.410   1.663   7.349 -0.0134 -0.3743  0.1984
  123OSM    H8F13091   3.471   1.754   7.331  0.1187 -0.4812  0.1035
  123OSM    H8G13092   3.456   1.617   7.439 -1.0808 -0.7363  0.5803
  123OSM    C9F13093   3.267   1.710   7.362 -0.2722  0.0752  0.2521
  123OSM    H9F13094   3.243   1.808   7.318  1.6860  0.2658 -0.5023
  123OSM   C10F13095   3.168   1.655   7.441 -0.2426  0.2563  0.0964
  123OSM   H10F13096   3.064   1.691   7.446 -0.9140 -1.6207  0.8896
  123OSM   C11F13097   3.194   1.534   7.525 -0.4058  0.3078  0.6867
  123OSM   H11F13098   3.293   1.486   7.509 -0.8105 -1.9515  3.9222
  123OSM   H11G13099   3.122   1.451   7.511  1.2694 -1.2552  0.9761
  123OSM   C12F13100   3.212   1.580   7.669 -0.2582 -0.8409  0.1576
  123OSM   H12F13101   3.122   1.617   7.723  2.0876  0.2343  3.6799
  123OSM   H12G13102   3.279   1.668   7.675  0.7793 -1.6119  0.1675
  123OSM   C13F13103   3.271   1.468   7.753  0.9286 -0.2875  0.3601
  123OSM   H13F13104   3.366   1.464   7.696  0.2319  3.8234 -1.4625
  123OSM   H13G13105   3.208   1.376   7.754 -1.3227  1.1772  1.7837
  123OSM   C14F13106   3.294   1.508   7.898 -0.1611  0.1306  0.5737
  123OSM   H14F13107   3.201   1.558   7.932 -0.0781 -0.5037  1.7598
  123OSM   H14G13108   3.381   1.578   7.903  0.7400 -0.9352  0.3353
  123OSM   C15F13109   3.317   1.392   7.998  0.1067 -0.0876 -0.3267
  123OSM   H15F13110   3.232   1.321   7.988 -1.5336  1.9637 -2.1085
  123OSM   H15G13111   3.334   1.439   8.097 -1.5907 -1.2620  0.5702
  123OSM   C16F13112   3.447   1.319   7.967  0.5540  0.0701 -0.3370
  123OSM   H16F13113   3.530   1.393   7.969  0.2832  0.6615  5.0788
  123OSM   H16G13114   3.443   1.272   7.866 -1.5894 -1.7572  0.5061
  123OSM   C17F13115   3.483   1.198   8.064  0.2381 -0.1409  0.3832
  123OSM   H17F13116   3.492   1.226   8.171  0.2445 -1.4488  0.7482
  123OSM   H17G13117   3.572   1.153   8.016  0.5252  0.4001  0.4005
  123OSM   C18F13118   3.379   1.081   8.061  0.0510  0.3297  0.1039
  123OSM   H18F13119   3.284   1.111   8.111  0.9604  1.3849  1.2671
  123OSM   H18G13120   3.427   0.992   8.107  0.2318  0.8005  0.8454
  123OSM   H18H13121   3.359   1.048   7.957  0.0527  0.2005  0.1447
  124OSM      N13122   2.861   3.631   5.812  0.9034 -0.1421  0.4813
  124OSM    C1513123   2.979   3.551   5.844  0.1277 -0.2121 -0.3126
  124OSM   H15A13124   2.946   3.450   5.860  1.0189  0.0137  4.0286
  124OSM   H15B13125   3.032   3.594   5.927  0.4784 -0.3443 -0.4643
  124OSM   H15C13126   3.039   3.549   5.754  0.5253  1.3358 -0.1178
  124OSM    C1413127   2.899   3.776   5.791  1.0867  0.0758 -0.4338
  124OSM   H14A13128   2.813   3.840   5.789  0.7750 -0.3511 -2.3811
  124OSM   H14B13129   2.969   3.789   5.709 -0.5517  1.1943 -1.7031
  124OSM   H14C13130   2.956   3.802   5.879  2.3965 -1.6396 -0.7116
  124OSM    C1313131   2.808   3.585   5.678 -0.1548 -0.0153 -0.1772
  124OSM   H13A13132   2.724   3.648   5.653  0.9483  1.7679  0.3672
  124OSM   H13B13133   2.772   3.484   5.689 -0.1534  0.0199  0.1848
  124OSM   H13C13134   2.889   3.591   5.607  0.3307  0.6745  0.4101
  124OSM    C1213135   2.748   3.610   5.916  0.1646  0.8161  0.4719
  124OSM   H12A13136   2.738   3.503   5.924  2.0556  0.7231  2.2144
  124OSM   H12B13137   2.655   3.656   5.885 -0.8466 -0.1271  1.9291
  124OSM    C1113138   2.773   3.650   6.064  0.5918  0.7790  0.1086
  124OSM   H11A13139   2.870   3.608   6.098  1.1725 -0.3014 -2.6271
  124OSM   H11B13140   2.690   3.616   6.131  1.5081  0.5355  1.1562
  124OSM      P13141   2.684   3.899   6.106  0.0176 -0.1852 -0.1092
  124OSM    O1313142   2.740   4.032   6.070 -0.4133 -0.0328  0.6624
  124OSM    O1413143   2.561   3.865   6.034  0.7982  0.0926  0.2496
  124OSM    O1113144   2.654   3.886   6.262 -0.1886 -0.1780 -0.0277
  124OSM    O1213145   2.797   3.788   6.079 -0.4619  0.2724  0.6038
  124OSM    C1S13146   2.748   3.842   6.358 -0.4659 -0.5596  0.2252
  124OSM    H1S13147   2.849   3.850   6.311 -0.8138  3.0608 -0.1515
  124OSM    H1T13148   2.729   3.733   6.370 -4.1589 -0.1589 -0.9191
  124OSM     NF13149   2.847   3.861   6.578 -0.3060  0.4912 -0.4864
  124OSM    HNF13150   2.828   3.778   6.630 -2.2444  1.2321  0.0776
  124OSM    C2S13151   2.740   3.908   6.494 -0.5458 -0.0852  0.7833
  124OSM    H2S13152   2.744   4.018   6.479 -0.8934 -0.1812 -0.0926
  124OSM    C3S13153   2.593   3.868   6.553 -0.3494  0.1692 -0.8555
  124OSM    H3S13154   2.604   3.759   6.567 -0.0662  0.0566 -1.9392
  124OSM     O313155   2.480   3.894   6.479 -0.2017 -0.0250 -0.4731
  124OSM    HO313156   2.509   3.877   6.389 -1.2488 -2.1805 -0.4823
  124OSM    C4S13157   2.580   3.929   6.694  0.5369 -0.7082 -0.0554
  124OSM    H4S13158   2.603   4.035   6.712  2.2999 -1.1772  0.6151
  124OSM    C5S13159   2.537   3.860   6.804 -0.2545 -0.1979  0.5182
  124OSM    H5S13160   2.531   3.751   6.793  4.0974 -0.4619 -1.1110
  124OSM    C6S13161   2.525   3.915   6.937  0.4135 -0.7796 -0.3970
  124OSM    H6S13162   2.542   3.841   7.018  0.0036 -0.5319 -0.0871
  124OSM    H6T13163   2.423   3.957   6.948  0.0914 -1.0828 -1.9500
  124OSM    C7S13164   2.617   4.036   6.965  0.0828 -0.3941 -0.1968
  124OSM    H7S13165   2.573   4.120   6.906 -0.8382 -0.8156 -0.1210
  124OSM    H7T13166   2.716   4.015   6.920  0.5805  3.2198 -1.1459
  124OSM    C8S13167   2.630   4.075   7.113  0.2098 -0.5498 -0.2060
  124OSM    H8S13168   2.692   4.167   7.116 -0.0361 -0.2900 -1.8109
  124OSM    H8T13169   2.687   3.997   7.167  2.4209  0.3922 -1.0374
  124OSM    C9S13170   2.497   4.106   7.188  0.9677 -0.3571 -0.9935
  124OSM    H9S13171   2.413   4.035   7.176  2.0918 -1.4357 -3.2180
  124OSM    H9T13172   2.467   4.200   7.136 -2.4700 -0.4337  0.6147
  124OSM   C10S13173   2.525   4.140   7.337  0.3553 -0.3864 -0.3256
  124OSM   H10S13174   2.436   4.192   7.378  1.4474  0.0984  1.5083
  124OSM   H10T13175   2.606   4.215   7.347  0.2054 -0.3211  0.4317
  124OSM   C11S13176   2.542   4.016   7.419 -0.0347 -0.2657  0.1270
  124OSM   H11S13177   2.612   3.951   7.362  1.7650  1.6187  0.0407
  124OSM   H11T13178   2.446   3.960   7.419  0.2034 -0.7766 -2.1631
  124OSM   C12S13179   2.580   4.050   7.560 -0.0506  0.5573  0.4858
  124OSM   H12S13180   2.491   4.092   7.613  1.3490  1.0307  2.5953
  124OSM   H12T13181   2.644   4.141   7.554  1.8036 -0.7380 -0.1328
  124OSM   C13S13182   2.672   3.949   7.626  0.0233  0.5694 -0.2402
  124OSM   H13S13183   2.743   3.913   7.549 -0.5448 -0.5530 -0.2590
  124OSM   H13T13184   2.607   3.864   7.659 -0.1718  1.6975  2.6042
  124OSM   C14S13185   2.747   3.991   7.756 -0.5589 -0.4478 -0.0467
  124OSM   H14S13186   2.824   4.064   7.725 -1.7004  0.6241 -0.4465
  124OSM   H14T13187   2.804   3.906   7.799  0.6425  0.1124 -0.5184
  124OSM   C15S13188   2.657   4.058   7.851 -0.5843  0.1686 -0.0298
  124OSM   H15S13189   2.581   3.998   7.906 -0.6312 -1.0949 -1.4102
  124OSM   H15T13190   2.603   4.141   7.800 -1.7532 -0.9233 -0.6217
  124OSM   C16S13191   2.743   4.131   7.958  0.6394  0.6670  0.2368
  124OSM   H16S13192   2.662   4.195   7.997 -0.8860 -1.9223  1.5580
  124OSM   H16T13193   2.825   4.192   7.914  1.4944  0.9291  2.0980
  124OSM   C17S13194   2.798   4.039   8.071  0.1026 -0.1300  0.9248
  124OSM   H17S13195   2.883   3.978   8.033  0.3402 -0.5188  2.0534
  124OSM   H17T13196   2.720   3.964   8.097  0.3322 -0.7443 -0.0889
  124OSM   C18S13197   2.834   4.125   8.190  0.0317 -0.0838 -0.5031
  124OSM   H18S13198   2.903   4.064   8.253 -0.3570 -0.9387 -0.8837
  124OSM   H18T13199   2.743   4.159   8.242 -1.0639  0.6811 -2.7684
  124OSM   H18U13200   2.872   4.221   8.150 -3.0452  1.4458 -0.0245
  124OSM    C1F13201   2.971   3.916   6.571 -0.3408  0.3243 -0.5579
  124OSM     OF13202   3.004   3.996   6.488  0.2491  0.0702  0.5290
  124OSM    C2F13203   3.067   3.869   6.676 -0.2769 -0.0462  0.2328
  124OSM    H2F13204   3.111   3.774   6.639  1.2229 -0.3179  2.5338
  124OSM    H2G13205   3.000   3.839   6.760 -1.4162 -0.2306 -0.7081
  124OSM    C3F13206   3.180   3.966   6.715 -0.0849 -0.0806 -0.1357
  124OSM    H3F13207   3.141   4.063   6.751  1.1824  0.9352 -1.3743
  124OSM    H3G13208   3.247   3.980   6.627 -0.9740 -0.9880 -0.9834
  124OSM    C4F13209   3.250   3.905   6.844 -0.7359 -0.2398  0.6085
  124OSM    H4F13210   3.340   3.967   6.865 -0.4827 -0.7746  1.1514
  124OSM    H4G13211   3.295   3.808   6.817  0.4592  0.1445  1.1403
  124OSM    C5F13212   3.174   3.885   6.974  0.2453  0.5909  0.4977
  124OSM    H5F13213   3.215   3.797   7.028  0.0300 -0.0798 -0.4093
  124OSM    H5G13214   3.072   3.855   6.943 -0.1066  2.6183 -0.4218
  124OSM    C6F13215   3.158   4.004   7.061 -0.1001  0.1232 -0.3459
  124OSM    H6F13216   3.097   4.075   7.000  0.1482  0.0303 -0.7066
  124OSM    H6G13217   3.249   4.060   7.091 -1.7573  2.2714  1.0330
  124OSM    C7F13218   3.070   3.964   7.181 -0.8684  0.4532  0.2572
  124OSM    H7F13219   3.146   3.897   7.227  0.5474  1.1544 -0.9765
  124OSM    H7G13220   2.974   3.918   7.148 -0.8722  1.6392 -1.5070
  124OSM    C8F13221   3.060   4.077   7.287 -0.1088 -0.2883  1.0032
  124OSM    H8F13222   3.013   4.158   7.227  0.3116 -1.1652 -0.5531
  124OSM    H8G13223   3.164   4.112   7.305 -0.8365  1.4123  2.2283
  124OSM    C9F13224   2.986   4.050   7.407 -0.2425  0.3699 -0.3259
  124OSM    H9F13225   2.877   4.061   7.403 -0.4498 -1.3402 -0.2486
  124OSM   C10F13226   3.031   4.008   7.526  0.2615  0.0392  0.5644
  124OSM   H10F13227   2.962   3.989   7.610  2.1514 -0.0156  2.1958
  124OSM   C11F13228   3.176   3.988   7.551 -0.0619 -0.0484 -0.3149
  124OSM   H11F13229   3.214   4.052   7.633 -0.1699  1.4672 -1.4089
  124OSM   H11G13230   3.235   4.028   7.466 -1.3776  2.6830 -0.0235
  124OSM   C12F13231   3.200   3.841   7.576  0.4664 -0.6237  0.3645
  124OSM   H12F13232   3.306   3.813   7.595 -0.1542 -1.8505  2.3271
  124OSM   H12G13233   3.163   3.778   7.491 -0.3717 -0.2197  0.4195
  124OSM   C13F13234   3.124   3.786   7.702  0.4603  0.1438 -0.0171
  124OSM   H13F13235   3.139   3.677   7.694 -2.9900 -0.4680  0.3474
  124OSM   H13G13236   3.019   3.811   7.728  0.6462  0.7229  0.2144
  124OSM   C14F13237   3.215   3.819   7.825  0.4633  0.3734 -0.0138
  124OSM   H14F13238   3.246   3.925   7.824 -0.3152  0.6837  2.5543
  124OSM   H14G13239   3.312   3.768   7.808  1.5289  2.7095 -1.3750
  124OSM   C15F13240   3.164   3.784   7.965  0.1536 -0.1009  0.7498
  124OSM   H15F13241   3.147   3.674   7.971  0.0839 -0.1333  0.0768
  124OSM   H15G13242   3.070   3.841   7.984  0.3840  1.9844 -3.2856
  124OSM   C16F13243   3.259   3.819   8.072 -0.2809 -0.4581 -0.0916
  124OSM   H16F13244   3.271   3.929   8.067 -2.0588 -0.2827 -1.1619
  124OSM   H16G13245   3.359   3.775   8.050  0.2269  0.6830 -0.1254
  124OSM   C17F13246   3.218   3.768   8.219 -0.5318  0.1462 -0.2480
  124OSM   H17F13247   3.303   3.772   8.290 -1.1542  1.6540  0.4686
  124OSM   H17G13248   3.208   3.659   8.199  1.5473 -0.3092  0.9757
  124OSM   C18F13249   3.092   3.819   8.279  0.1536  0.3758  0.1091
  124OSM   H18F13250   3.046   3.754   8.357 -1.3887  1.6317  0.2818
  124OSM   H18G13251   3.015   3.835   8.202  1.0055  1.6728 -0.5050
  124OSM   H18H13252   3.111   3.919   8.323  0.2556 -0.1671  1.3617
  125OSM      N13253   6.339   3.516   6.281 -0.4937 -0.1285  0.5003
  125OSM    C1513254   6.258   3.597   6.378  0.6445 -0.0366 -0.1975
  125OSM   H15A13255   6.154   3.590   6.350  0.9650  2.4787 -2.4216
  125OSM   H15B13256   6.284   3.702   6.381  0.7614 -0.0548 -0.6067
  125OSM   H15C13257   6.270   3.557   6.478  1.9500 -0.0202 -0.3328
  125OSM    C1413258   6.277   3.554   6.149 -0.3663  0.4804  0.8879
  125OSM   H14A13259   6.300   3.657   6.127  1.3321 -0.2414 -1.1724
  125OSM   H14B13260   6.173   3.525   6.148 -0.6300  1.3503 -0.7465
  125OSM   H14C13261   6.320   3.502   6.065 -1.3010  1.1282 -0.0163
  125OSM    C1313262   6.481   3.559   6.282 -0.1789  0.3745  0.9874
  125OSM   H13A13263   6.521   3.539   6.380 -1.6036 -1.3784  1.2640
  125OSM   H13B13264   6.486   3.664   6.256  1.3617  0.0790 -0.0447
  125OSM   H13C13265   6.541   3.504   6.212 -2.6874 -3.0698  1.2874
  125OSM    C1213266   6.324   3.374   6.307 -0.0663  0.4472  0.0060
  125OSM   H12A13267   6.365   3.314   6.226 -0.1239  0.1707  0.1806
  125OSM   H12B13268   6.220   3.343   6.305 -0.3586  1.3906 -1.6221
  125OSM    C1113269   6.387   3.314   6.432 -0.5002 -0.0773 -0.1587
  125OSM   H11A13270   6.343   3.217   6.461  0.2618 -0.9670 -1.8136
  125OSM   H11B13271   6.370   3.374   6.524  4.9005  1.1283  0.4062
  125OSM      P13272   6.606   3.248   6.316  0.0894  0.6312  0.0157
  125OSM    O1313273   6.507   3.183   6.222 -0.4231 -0.5593 -0.1435
  125OSM    O1413274   6.705   3.333   6.249 -0.0276 -0.1554  0.2821
  125OSM    O1113275   6.678   3.131   6.381 -0.9098  0.0373 -0.8978
  125OSM    O1213276   6.528   3.314   6.436  0.0798 -0.3873 -0.1741
  125OSM    C1S13277   6.703   3.122   6.522 -0.1249 -0.3392 -0.0915
  125OSM    H1S13278   6.691   3.218   6.576  2.5810 -0.9290  1.7708
  125OSM    H1T13279   6.802   3.076   6.543  0.8894  0.8946 -1.8596
  125OSM     NF13280   6.635   3.014   6.732 -0.0931 -0.1262 -0.2733
  125OSM    HNF13281   6.652   2.924   6.773 -4.6039 -1.0418  0.1450
  125OSM    C2S13282   6.603   3.025   6.589  0.2582  0.1514 -0.3232
  125OSM    H2S13283   6.502   3.070   6.577  0.1106 -0.0529  0.1414
  125OSM    C3S13284   6.594   2.895   6.509 -0.6415  0.4194  0.1445
  125OSM    H3S13285   6.694   2.847   6.505  0.2576  2.1841  0.4232
  125OSM     O313286   6.557   2.904   6.367  0.1557  0.0102  0.4203
  125OSM    HO313287   6.584   2.994   6.346  1.2021 -0.5363 -0.7222
  125OSM    C4S13288   6.494   2.796   6.570  0.5728 -0.0583  0.5917
  125OSM    H4S13289   6.545   2.712   6.620  0.9744 -0.6986 -0.8477
  125OSM    C5S13290   6.359   2.807   6.560  0.4967  0.4302  0.0151
  125OSM    H5S13291   6.313   2.888   6.501 -1.1924 -0.8280 -0.4851
  125OSM    C6S13292   6.255   2.715   6.617  0.5552 -0.1194 -0.2163
  125OSM    H6S13293   6.237   2.645   6.533 -2.5427 -1.4880  1.4022
  125OSM    H6T13294   6.161   2.773   6.631  1.4756  1.1959  0.7449
  125OSM    C7S13295   6.280   2.635   6.751  0.3400 -0.8582  0.0152
  125OSM    H7S13296   6.369   2.577   6.721 -0.3024 -2.3503  0.8731
  125OSM    H7T13297   6.189   2.573   6.767  1.0123 -1.5419  1.2805
  125OSM    C8S13298   6.306   2.735   6.870 -0.0994 -0.1021  0.6199
  125OSM    H8S13299   6.385   2.808   6.841 -2.5305  1.6450 -2.2976
  125OSM    H8T13300   6.337   2.675   6.958  1.6375 -1.0989 -0.6236
  125OSM    C9S13301   6.175   2.806   6.920  0.3831 -0.0918  0.3117
  125OSM    H9S13302   6.094   2.730   6.924  1.3770 -1.3566 -1.9865
  125OSM    H9T13303   6.136   2.890   6.859 -1.6690 -0.0707  1.5466
  125OSM   C10S13304   6.198   2.853   7.057  0.2896 -0.5559 -0.3406
  125OSM   H10S13305   6.258   2.945   7.046 -0.2968 -0.1117  0.1147
  125OSM   H10T13306   6.265   2.783   7.111  0.6689 -0.9669 -1.3142
  125OSM   C11S13307   6.067   2.875   7.133  0.5001  0.1321 -0.0290
  125OSM   H11S13308   6.008   2.781   7.130  1.3275 -0.4790  1.3902
  125OSM   H11T13309   6.010   2.954   7.081  0.1295  1.0634  1.7217
  125OSM   C12S13310   6.095   2.924   7.280  0.1397  0.3282  0.3955
  125OSM   H12S13311   6.144   3.023   7.269 -0.6227  0.5324 -1.3565
  125OSM   H12T13312   6.166   2.849   7.323  1.8947  0.5814 -1.8522
  125OSM   C13S13313   5.968   2.939   7.362 -0.1586 -0.8906  0.3145
  125OSM   H13S13314   5.914   2.842   7.354  1.4032 -1.6189 -2.7855
  125OSM   H13T13315   5.898   3.010   7.312 -0.1293 -0.4300  0.9140
  125OSM   C14S13316   5.996   2.979   7.509  0.0306 -0.4715  1.1540
  125OSM   H14S13317   6.057   3.072   7.511  1.3196 -1.2611  0.0907
  125OSM   H14T13318   6.057   2.894   7.545 -1.1886 -0.9672  2.1009
  125OSM   C15S13319   5.875   3.007   7.595 -0.1065 -0.5852 -0.2386
  125OSM   H15S13320   5.807   2.919   7.592 -1.9857  0.7692  0.7379
  125OSM   H15T13321   5.812   3.086   7.550 -2.2247 -1.6685  0.6569
  125OSM   C16S13322   5.894   3.043   7.747  0.0688  0.1753 -0.1583
  125OSM   H16S13323   5.956   3.135   7.753  0.3395 -0.0576  0.8466
  125OSM   H16T13324   5.955   2.967   7.800 -1.0800 -0.1917  0.6760
  125OSM   C17S13325   5.761   3.062   7.830  1.0844 -0.8843  0.0118
  125OSM   H17S13326   5.773   3.056   7.941  0.8134 -0.3815  0.0701
  125OSM   H17T13327   5.690   2.981   7.803  0.5864 -1.0382  1.6724
  125OSM   C18S13328   5.684   3.202   7.803 -0.8021  0.3699 -0.2246
  125OSM   H18S13329   5.730   3.278   7.869  1.1788 -0.0085 -1.0750
  125OSM   H18T13330   5.574   3.196   7.814 -0.5766 -1.1579  1.8438
  125OSM   H18U13331   5.703   3.230   7.697 -0.2623  0.3342 -0.1400
  125OSM    C1F13332   6.639   3.110   6.819 -0.1084 -0.0021 -0.6046
  125OSM     OF13333   6.625   3.230   6.787 -0.1320  0.2390 -0.0338
  125OSM    C2F13334   6.670   3.070   6.960  0.3650  0.6081 -0.1358
  125OSM    H2F13335   6.659   3.158   7.027  1.3439 -0.8707  2.0955
  125OSM    H2G13336   6.773   3.029   6.970  1.3726  2.9447 -0.2376
  125OSM    C3F13337   6.565   2.972   7.024  0.0564  0.4221 -0.8881
  125OSM    H3F13338   6.576   2.868   6.987 -2.5178 -0.5778  0.8742
  125OSM    H3G13339   6.465   3.018   7.010 -0.1996  0.5969  1.2087
  125OSM    C4F13340   6.594   2.966   7.176 -0.6573  0.4508  0.6210
  125OSM    H4F13341   6.503   2.930   7.230 -2.6571 -0.2193 -2.9015
  125OSM    H4G13342   6.605   3.074   7.202 -1.3043  0.6854 -0.0425
  125OSM    C5F13343   6.714   2.876   7.214  0.0805 -0.3820  0.0948
  125OSM    H5F13344   6.805   2.921   7.169  0.0464  1.5345  1.8105
  125OSM    H5G13345   6.697   2.776   7.168 -2.2582 -0.1700  0.3806
  125OSM    C6F13346   6.726   2.876   7.358  0.6368  0.1621  0.3512
  125OSM    H6F13347   6.824   2.830   7.383  0.3005 -0.0930  1.2632
  125OSM    H6G13348   6.648   2.814   7.408  2.7186 -2.8676  0.1764
  125OSM    C7F13349   6.740   3.012   7.427  0.6625  0.3743  0.0625
  125OSM    H7F13350   6.646   3.070   7.416 -1.4018 -2.7352 -0.1065
  125OSM    H7G13351   6.825   3.073   7.390  0.2913  0.2532 -1.0108
  125OSM    C8F13352   6.780   2.969   7.581 -0.5160  0.3654 -0.1827
  125OSM    H8F13353   6.847   3.053   7.609 -1.2537  0.2623  2.0847
  125OSM    H8G13354   6.848   2.882   7.582 -1.0696 -0.0765 -0.2112
  125OSM    C9F13355   6.662   2.957   7.671  0.4701 -0.4408 -0.0864
  125OSM    H9F13356   6.574   2.909   7.627 -1.0795 -0.9179  3.2585
  125OSM   C10F13357   6.656   3.014   7.793 -0.4668 -0.0909  0.1143
  125OSM   H10F13358   6.555   3.020   7.837 -0.0050  2.3586  0.9945
  125OSM   C11F13359   6.772   3.096   7.850  0.4937  0.4004 -0.9987
  125OSM   H11F13360   6.815   3.176   7.786  0.5104 -0.4711 -2.1149
  125OSM   H11G13361   6.861   3.038   7.882  0.0685  0.3989  0.2412
  125OSM   C12F13362   6.724   3.177   7.972  0.2718  0.7594 -0.2069
  125OSM   H12F13363   6.633   3.235   7.943 -0.3151 -0.0021  0.0858
  125OSM   H12G13364   6.792   3.262   7.994 -1.0985  1.4639  1.5706
  125OSM   C13F13365   6.694   3.090   8.093 -0.1362  0.3435 -0.4362
  125OSM   H13F13366   6.784   3.029   8.118 -0.1616 -0.0753 -1.3427
  125OSM   H13G13367   6.614   3.028   8.048 -0.1617 -1.8343  2.3388
  125OSM   C14F13368   6.636   3.160   8.211  0.0278 -0.0611  0.2906
  125OSM   H14F13369   6.544   3.207   8.170  0.5915 -0.4959 -1.5297
  125OSM   H14G13370   6.704   3.243   8.240  0.7970  0.1777 -2.0047
  125OSM   C15F13371   6.597   3.066   8.325  0.1943  0.1964 -0.2299
  125OSM   H15F13372   6.682   3.001   8.356 -0.2950 -0.4034 -0.1269
  125OSM   H15G13373   6.518   2.994   8.294 -1.5908  1.1756  1.8422
  125OSM   C16F13374   6.552   3.144   8.449 -0.2911  0.2697  0.2233
  125OSM   H16F13375   6.450   3.184   8.427 -1.2008 -1.9071  0.2252
  125OSM   H16G13376   6.616   3.234   8.461  1.7695 -0.6552 -2.6893
  125OSM   C17F13377   6.553   3.063   8.571 -0.2959 -0.8278 -0.8142
  125OSM   H17F13378   6.662   3.054   8.593 -0.6896 -1.9468  0.9539
  125OSM   H17G13379   6.506   2.963   8.563 -0.8323 -0.6902  0.4106
  125OSM   C18F13380   6.495   3.149   8.682  0.3234 -0.4700  0.3502
  125OSM   H18F13381   6.384   3.137   8.685  0.3095 -0.4862 -0.1477
  125OSM   H18G13382   6.512   3.252   8.645 -1.8548 -0.3640 -0.5055
  125OSM   H18H13383   6.533   3.118   8.781 -0.2376 -3.9375 -0.3791
  126OSM      N13384   3.723   0.088   6.409  0.4051 -0.3325  0.1532
  126OSM    C1513385   3.680   0.226   6.384  1.0212 -0.1206 -0.1913
  126OSM   H15A13386   3.606   0.254   6.457  0.5780  1.9837 -1.3515
  126OSM   H15B13387   3.635   0.231   6.286  1.5800 -0.2249 -0.4564
  126OSM   H15C13388   3.765   0.291   6.390  0.7820  0.0589  2.8314
  126OSM    C1413389   3.605  -0.005   6.434  0.4507  0.0349 -0.4192
  126OSM   H14A13390   3.532  -0.004   6.355 -0.9162  1.9810  0.7930
  126OSM   H14B13391   3.552   0.035   6.519 -1.7093  0.1788 -1.7823
  126OSM   H14C13392   3.628  -0.110   6.449  0.0608 -0.3593 -2.3507
  126OSM    C1313393   3.782   0.042   6.277 -0.1498 -0.6389  0.1552
  126OSM   H13A13394   3.864   0.106   6.247  0.4739 -0.5944  1.8934
  126OSM   H13B13395   3.713   0.052   6.194  1.1476  3.3425 -0.7143
  126OSM   H13C13396   3.817  -0.060   6.277 -2.4690 -1.6670 -3.7759
  126OSM    C1213397   3.820   0.091   6.524 -0.2910 -0.3698 -0.4383
  126OSM   H12A13398   3.774   0.125   6.615 -0.4057  0.8924 -0.9481
  126OSM   H12B13399   3.883   0.177   6.510 -1.3062  0.8902  2.1286
  126OSM    C1113400   3.881  -0.042   6.554 -1.2368 -0.2466  0.2605
  126OSM   H11A13401   3.960  -0.076   6.484  0.2940 -1.6464  2.5132
  126OSM   H11B13402   3.800  -0.118   6.550 -0.1514 -1.4098 -0.2319
  126OSM      P13403   4.081   0.027   6.712 -0.3429  0.1003 -0.1070
  126OSM    O1313404   4.120  -0.033   6.841 -0.3259 -0.2277 -0.0584
  126OSM    O1413405   4.169  -0.006   6.601  0.4016 -0.1451 -0.3239
  126OSM    O1113406   4.079   0.187   6.737 -0.2698  0.0079  0.1283
  126OSM    O1213407   3.939  -0.029   6.686  0.2510 -0.0275  0.3050
  126OSM    C1S13408   3.978   0.248   6.814 -0.2698 -0.3433 -0.6035
  126OSM    H1S13409   3.881   0.194   6.805 -0.6919  0.8058 -4.7337
  126OSM    H1T13410   3.958   0.348   6.772 -1.3834  0.0709  0.7927
  126OSM     NF13411   3.917   0.318   7.033  0.4680 -0.2891  0.8558
  126OSM    HNF13412   3.909   0.417   7.034 -0.6436 -0.1885 -3.1991
  126OSM    C2S13413   4.015   0.252   6.964  0.0244 -0.4795 -0.3376
  126OSM    H2S13414   4.040   0.148   6.992  2.0657 -1.5292 -5.0433
  126OSM    C3S13415   4.152   0.327   6.984  0.3270  0.0180  0.6162
  126OSM    H3S13416   4.150   0.429   6.939  0.4358 -0.4460 -0.4774
  126OSM     O313417   4.264   0.262   6.930 -0.0420 -0.5588 -0.0384
  126OSM    HO313418   4.220   0.208   6.864  0.5937  0.5944 -1.4695
  126OSM    C4S13419   4.178   0.349   7.129 -0.2009  0.2547 -0.1252
  126OSM    H4S13420   4.187   0.256   7.187 -0.4279 -0.0839 -0.6262
  126OSM    C5S13421   4.202   0.468   7.190 -0.3319  0.2129 -0.8064
  126OSM    H5S13422   4.214   0.551   7.119 -0.8797 -0.6690 -1.9527
  126OSM    C6S13423   4.232   0.481   7.339  0.1495  0.1616 -0.6762
  126OSM    H6S13424   4.248   0.386   7.395 -0.4440 -0.1000 -0.9492
  126OSM    H6T13425   4.145   0.525   7.390 -0.4819 -1.2583 -0.4758
  126OSM    C7S13426   4.356   0.572   7.366  0.0575  0.3450 -0.1888
  126OSM    H7S13427   4.346   0.668   7.310  1.1718  0.6257  0.0766
  126OSM    H7T13428   4.445   0.519   7.325 -0.5613 -1.4028  0.6416
  126OSM    C8S13429   4.374   0.596   7.518 -0.1194  0.2423 -0.4442
  126OSM    H8S13430   4.403   0.506   7.576  1.0721  0.3953 -0.7801
  126OSM    H8T13431   4.273   0.632   7.548 -0.0327 -0.0179  0.1833
  126OSM    C9S13432   4.492   0.696   7.543  0.3809  0.5258  0.5740
  126OSM    H9S13433   4.460   0.795   7.504 -1.0640  0.1705  0.8337
  126OSM    H9T13434   4.576   0.658   7.481  0.3685  0.8562  0.3536
  126OSM   C10S13435   4.517   0.706   7.691  0.1201  0.5481  0.3934
  126OSM   H10S13436   4.541   0.604   7.727 -0.8388  0.3879  0.6108
  126OSM   H10T13437   4.426   0.751   7.736 -1.1777 -1.8926  0.3576
  126OSM   C11S13438   4.634   0.794   7.728 -0.3818  0.0756  0.7809
  126OSM   H11S13439   4.645   0.893   7.680 -0.1888 -0.3414 -0.0715
  126OSM   H11T13440   4.724   0.741   7.690 -0.7985  1.0218 -1.7684
  126OSM   C12S13441   4.640   0.825   7.877 -0.5706 -0.4093 -0.0200
  126OSM   H12S13442   4.565   0.903   7.904  1.5868  1.2796  1.4703
  126OSM   H12T13443   4.739   0.869   7.900 -1.9172  3.1757 -0.4621
  126OSM   C13S13444   4.620   0.709   7.974 -0.4002  0.2000  0.0881
  126OSM   H13S13445   4.686   0.623   7.952 -1.0261 -0.5282  0.9484
  126OSM   H13T13446   4.517   0.667   7.970 -0.5514  0.6565 -1.5243
  126OSM   C14S13447   4.649   0.742   8.123  0.7208 -0.3269  0.1083
  126OSM   H14S13448   4.655   0.642   8.172 -1.8345  0.4332  2.2074
  126OSM   H14T13449   4.560   0.797   8.160 -0.2556 -0.6259 -1.6603
  126OSM   C15S13450   4.782   0.807   8.164 -0.1733  0.6427  0.2763
  126OSM   H15S13451   4.791   0.910   8.123  0.8750  1.1363  1.7012
  126OSM   H15T13452   4.860   0.736   8.131 -0.7076 -0.5508  1.5134
  126OSM   C16S13453   4.783   0.809   8.321  0.0736  0.5198  0.1012
  126OSM   H16S13454   4.887   0.822   8.357 -0.0861 -0.4868  0.9666
  126OSM   H16T13455   4.758   0.704   8.351  1.9682  0.2089  0.6868
  126OSM   C17S13456   4.679   0.905   8.383  0.2442 -0.5041 -0.3395
  126OSM   H17S13457   4.573   0.885   8.356  0.1748  0.9556 -1.2212
  126OSM   H17T13458   4.702   1.007   8.345 -0.3854 -1.6277 -4.1701
  126OSM   C18S13459   4.689   0.913   8.535  0.4627 -0.3591 -0.5731
  126OSM   H18S13460   4.788   0.929   8.583 -0.3034  1.4039  0.5277
  126OSM   H18T13461   4.651   0.812   8.563  0.8295 -0.8706 -1.8673
  126OSM   H18U13462   4.615   0.978   8.588 -1.8800 -3.3959  0.1404
  126OSM    C1F13463   3.799   0.253   7.064  0.4427  0.2375 -0.2713
  126OSM     OF13464   3.770   0.143   7.024 -0.0336  0.5119  0.1783
  126OSM    C2F13465   3.695   0.335   7.132 -0.0073  0.3577  0.7209
  126OSM    H2F13466   3.654   0.276   7.216 -0.0869  0.4444  0.7432
  126OSM    H2G13467   3.622   0.349   7.050  0.9706 -0.2830 -0.2924
  126OSM    C3F13468   3.727   0.476   7.195 -0.0975  0.0793 -0.2899
  126OSM    H3F13469   3.631   0.526   7.220  0.4333  0.6408  0.7217
  126OSM    H3G13470   3.771   0.535   7.112 -1.0843 -0.6626 -1.3652
  126OSM    C4F13471   3.809   0.481   7.317 -0.1696 -0.2569  0.2669
  126OSM    H4F13472   3.835   0.588   7.329 -0.1318 -0.3527  1.1054
  126OSM    H4G13473   3.903   0.423   7.297 -0.3339 -0.1218 -1.0156
  126OSM    C5F13474   3.733   0.426   7.443 -0.0724 -0.1037 -0.0093
  126OSM    H5F13475   3.689   0.325   7.428 -2.7649  0.7225  1.6455
  126OSM    H5G13476   3.647   0.495   7.446  1.4943  1.9005  1.1058
  126OSM    C6F13477   3.815   0.436   7.571 -0.5285 -0.2637 -0.3207
  126OSM    H6F13478   3.749   0.422   7.660 -1.1544  3.2860 -0.0785
  126OSM    H6G13479   3.855   0.539   7.581 -1.0119 -0.0085 -0.9344
  126OSM    C7F13480   3.935   0.338   7.571  0.1623  0.3457 -0.5449
  126OSM    H7F13481   3.986   0.334   7.473 -0.2711  0.6972 -0.7917
  126OSM    H7G13482   3.900   0.242   7.615 -2.4282  1.0583 -0.8881
  126OSM    C8F13483   4.040   0.388   7.661 -0.3021  0.0054  0.3205
  126OSM    H8F13484   3.998   0.411   7.762 -2.1509  0.7399 -0.5627
  126OSM    H8G13485   4.084   0.485   7.631  1.5130 -1.1631 -0.9505
  126OSM    C9F13486   4.159   0.301   7.682  0.2188  0.2982 -0.2270
  126OSM    H9F13487   4.165   0.221   7.606 -3.8580 -0.7559  0.3494
  126OSM   C10F13488   4.255   0.311   7.777 -0.4320  0.6134 -0.1724
  126OSM   H10F13489   4.337   0.239   7.767 -0.5750  0.3921  0.2156
  126OSM   C11F13490   4.266   0.412   7.890 -0.2777  0.6822  0.2288
  126OSM   H11F13491   4.171   0.469   7.882 -3.2693 -3.6592  1.3073
  126OSM   H11G13492   4.348   0.482   7.862  0.0850 -0.3949 -1.5609
  126OSM   C12F13493   4.284   0.353   8.035  0.2820  0.2582 -0.0170
  126OSM   H12F13494   4.369   0.282   8.036  0.7236  0.7809  0.8203
  126OSM   H12G13495   4.191   0.303   8.068  0.5722  0.2603  0.8344
  126OSM   C13F13496   4.324   0.462   8.136  0.9259  0.0236  0.2952
  126OSM   H13F13497   4.232   0.509   8.176  0.7606 -1.2044  1.4426
  126OSM   H13G13498   4.376   0.544   8.081  1.0160 -0.6859 -0.6979
  126OSM   C14F13499   4.416   0.427   8.263  0.0569  0.1538  0.3253
  126OSM   H14F13500   4.523   0.434   8.234  0.2012 -3.8684 -0.7521
  126OSM   H14G13501   4.397   0.320   8.286  0.0346  0.0986  0.0532
  126OSM   C15F13502   4.386   0.504   8.389 -0.6500  0.6640 -0.3735
  126OSM   H15F13503   4.278   0.485   8.405 -0.0732 -3.5179 -0.3352
  126OSM   H15G13504   4.410   0.609   8.362 -0.1877  0.4883 -0.6636
  126OSM   C16F13505   4.466   0.454   8.509 -0.3028 -0.2228 -0.3994
  126OSM   H16F13506   4.570   0.484   8.489 -0.2772 -0.0748 -0.0570
  126OSM   H16G13507   4.472   0.343   8.503 -0.6011 -0.2300 -0.5932
  126OSM   C17F13508   4.420   0.511   8.642  0.3308  0.3046  0.0694
  126OSM   H17F13509   4.310   0.497   8.643  0.3829 -0.1210  0.0748
  126OSM   H17G13510   4.454   0.617   8.647  2.6688 -0.3820  0.0379
  126OSM   C18F13511   4.471   0.436   8.763  0.1699 -0.0031 -0.3843
  126OSM   H18F13512   4.455   0.326   8.760  0.6908 -0.1361  1.0215
  126OSM   H18G13513   4.417   0.481   8.849  1.4736  1.0973 -0.0838
  126OSM   H18H13514   4.580   0.456   8.778 -0.3391  1.0481  2.5333
  127OSM      N13515   4.888   1.646   6.415 -0.1055  0.6663  0.1479
  127OSM    C1513516   5.011   1.724   6.472 -0.3885 -0.8912  0.3176
  127OSM   H15A13517   5.091   1.722   6.399 -0.0886  1.1101  0.5379
  127OSM   H15B13518   5.061   1.688   6.560  0.3615  0.4169  0.4551
  127OSM   H15C13519   4.984   1.827   6.489  1.9910 -0.3158  0.8610
  127OSM    C1413520   4.793   1.728   6.332 -0.8921 -0.0579  0.2861
  127OSM   H14A13521   4.708   1.741   6.397 -2.1433 -0.5873 -1.2052
  127OSM   H14B13522   4.754   1.676   6.246 -1.4054  2.0979 -0.8609
  127OSM   H14C13523   4.822   1.823   6.291 -0.9403  0.7129  1.9641
  127OSM    C1313524   4.952   1.538   6.329  0.1425  0.3333  0.2490
  127OSM   H13A13525   4.869   1.482   6.286 -0.4737  1.6411 -0.3380
  127OSM   H13B13526   5.019   1.474   6.383 -0.6481  0.1457  1.0370
  127OSM   H13C13527   5.009   1.582   6.248 -0.6530 -3.7475 -2.9081
  127OSM    C1213528   4.817   1.584   6.533 -0.1746  0.0005  0.0205
  127OSM   H12A13529   4.894   1.542   6.596  0.7878 -0.5139 -1.4601
  127OSM   H12B13530   4.759   1.497   6.505  0.7201 -0.5491 -0.1592
  127OSM    C1113531   4.730   1.671   6.620 -0.4765 -0.7829  0.2549
  127OSM   H11A13532   4.755   1.779   6.605 -1.1295 -0.8327 -1.3940
  127OSM   H11B13533   4.751   1.645   6.726  1.9004  0.7472  0.2514
  127OSM      P13534   4.520   1.522   6.595 -0.3720 -0.3676 -0.3591
  127OSM    O1313535   4.374   1.536   6.596 -0.5424 -0.2377  0.4393
  127OSM    O1413536   4.580   1.438   6.493 -0.1841 -0.4857  0.1442
  127OSM    O1113537   4.566   1.469   6.737 -0.4482 -0.4539  0.4278
  127OSM    O1213538   4.584   1.665   6.592  0.2027 -0.6268 -0.1719
  127OSM    C1S13539   4.516   1.531   6.856 -0.1998  0.3555  0.7960
  127OSM    H1S13540   4.405   1.532   6.859 -0.3262  1.5883 -1.6244
  127OSM    H1T13541   4.547   1.638   6.857  2.6415 -0.3022 -1.4760
  127OSM     NF13542   4.477   1.508   7.104 -0.2602 -0.1510  0.5493
  127OSM    HNF13543   4.526   1.561   7.173 -1.2138 -0.9987  1.9335
  127OSM    C2S13544   4.553   1.455   6.986 -0.2884  0.7449  0.0795
  127OSM    H2S13545   4.534   1.347   6.972  1.4491  0.2160  1.5344
  127OSM    C3S13546   4.710   1.460   7.000  0.6921  0.2812  0.4554
  127OSM    H3S13547   4.745   1.563   6.981 -1.3502  0.5461 -2.4613
  127OSM     O313548   4.782   1.379   6.899 -0.1326  0.6442 -0.2811
  127OSM    HO313549   4.721   1.369   6.825  0.5435 -0.0371 -0.7508
  127OSM    C4S13550   4.742   1.401   7.130 -0.4998  0.2084  0.6505
  127OSM    H4S13551   4.718   1.294   7.144  0.4445 -0.0683  0.2490
  127OSM    C5S13552   4.814   1.457   7.226 -0.9094  0.3374 -0.7391
  127OSM    H5S13553   4.859   1.557   7.224 -0.7281  0.2600 -0.5342
  127OSM    C6S13554   4.853   1.400   7.358  0.5442 -0.4471 -0.5460
  127OSM    H6S13555   4.958   1.429   7.382  0.2405 -0.7332  1.2330
  127OSM    H6T13556   4.853   1.289   7.353 -0.3467 -0.4993  0.4154
  127OSM    C7S13557   4.760   1.448   7.473 -0.8463  0.3452  0.9193
  127OSM    H7S13558   4.659   1.403   7.463 -1.5935  1.9912  0.7447
  127OSM    H7T13559   4.750   1.558   7.473  2.0368  0.7797 -2.2825
  127OSM    C8S13560   4.824   1.400   7.607 -0.0579  1.0492  0.1838
  127OSM    H8S13561   4.862   1.299   7.582 -2.4994  0.0333  0.2795
  127OSM    H8T13562   4.740   1.377   7.676 -1.0394  1.2617 -0.9075
  127OSM    C9S13563   4.911   1.503   7.666 -0.4693 -0.5312  0.0657
  127OSM    H9S13564   4.848   1.589   7.696  2.3778  2.0008 -0.6859
  127OSM    H9T13565   4.981   1.541   7.589 -0.1188  0.1682  0.7141
  127OSM   C10S13566   4.987   1.442   7.787 -0.3410 -0.0919 -0.2313
  127OSM   H10S13567   5.027   1.342   7.760 -0.4874 -0.1516 -0.2310
  127OSM   H10T13568   4.914   1.424   7.869  1.2569 -0.0759  1.2512
  127OSM   C11S13569   5.099   1.530   7.851 -0.5923 -0.4446 -0.3383
  127OSM   H11S13570   5.061   1.632   7.877  0.7445  0.7391 -2.6899
  127OSM   H11T13571   5.175   1.562   7.776  0.5679  1.5238  1.5529
  127OSM   C12S13572   5.171   1.464   7.968  0.1887  0.5889 -0.4537
  127OSM   H12S13573   5.198   1.361   7.936 -1.1567  1.0530 -3.4338
  127OSM   H12T13574   5.098   1.451   8.050  0.1729 -1.4985 -0.7506
  127OSM   C13S13575   5.298   1.540   8.027  0.3282  0.6815 -0.1044
  127OSM   H13S13576   5.283   1.649   8.016 -1.1990  0.5001 -0.0165
  127OSM   H13T13577   5.379   1.503   7.960 -0.9892  0.8734 -1.8747
  127OSM   C14S13578   5.323   1.516   8.178  0.5385 -0.6426  0.4361
  127OSM   H14S13579   5.433   1.521   8.184  0.8679  2.7322 -3.7677
  127OSM   H14T13580   5.310   1.409   8.208  0.2920 -0.8139 -0.2484
  127OSM   C15S13581   5.247   1.615   8.272  0.4379  0.7136 -0.5410
  127OSM   H15S13582   5.138   1.595   8.262  0.1593  1.7070  0.3249
  127OSM   H15T13583   5.255   1.720   8.238  2.6506  0.8404  0.2068
  127OSM   C16S13584   5.305   1.621   8.413 -0.3217  0.2837  0.1228
  127OSM   H16S13585   5.247   1.691   8.477 -0.1900  1.5032 -1.0587
  127OSM   H16T13586   5.405   1.670   8.405  0.4470 -1.4939 -2.4341
  127OSM   C17S13587   5.309   1.485   8.486 -0.7087  0.3002 -0.0573
  127OSM   H17S13588   5.365   1.412   8.424 -3.0137 -0.0505 -1.8379
  127OSM   H17T13589   5.209   1.439   8.491 -0.8048  0.6512  2.5152
  127OSM   C18S13590   5.367   1.485   8.629 -0.5892  0.2902 -0.3633
  127OSM   H18S13591   5.342   1.394   8.688 -1.9448 -1.1053 -2.8987
  127OSM   H18T13592   5.333   1.576   8.682  2.5407 -0.2946  2.9558
  127OSM   H18U13593   5.478   1.486   8.631 -0.5483 -0.4151 -1.2975
  127OSM    C1F13594   4.345   1.492   7.112 -0.3062  0.5081  0.1862
  127OSM     OF13595   4.278   1.430   7.028  0.4355  0.2506  0.0940
  127OSM    C2F13596   4.274   1.554   7.225 -0.1855 -0.7069 -0.3626
  127OSM    H2F13597   4.272   1.662   7.201 -2.2579 -0.9341 -1.4446
  127OSM    H2G13598   4.334   1.528   7.314 -0.8810 -2.6759 -0.4018
  127OSM    C3F13599   4.135   1.496   7.246  0.1518 -0.8371  0.9327
  127OSM    H3F13600   4.139   1.386   7.261 -0.7084 -0.9808  0.1408
  127OSM    H3G13601   4.078   1.503   7.151 -0.4028 -1.4530  1.2125
  127OSM    C4F13602   4.066   1.570   7.356 -0.0744 -0.2942 -0.6700
  127OSM    H4F13603   4.134   1.607   7.436 -0.1242  2.1582 -1.6838
  127OSM    H4G13604   3.983   1.504   7.390 -1.0452  0.1837 -2.0291
  127OSM    C5F13605   4.001   1.699   7.311  0.3455 -0.2272 -0.1690
  127OSM    H5F13606   3.942   1.674   7.220 -0.8613 -0.3551  0.6226
  127OSM    H5G13607   4.081   1.765   7.271 -1.1118  1.3225 -0.6873
  127OSM    C6F13608   3.905   1.759   7.418 -0.9928 -0.0769 -1.1797
  127OSM    H6F13609   3.972   1.794   7.499 -0.2428 -0.4452 -1.6254
  127OSM    H6G13610   3.842   1.677   7.458 -1.3175  0.9560  0.5386
  127OSM    C7F13611   3.829   1.868   7.344 -0.5253 -0.8447 -0.0190
  127OSM    H7F13612   3.761   1.832   7.264 -2.2747 -0.4891  1.2321
  127OSM    H7G13613   3.900   1.942   7.303 -1.1352 -0.5753 -0.6184
  127OSM    C8F13614   3.735   1.948   7.439  0.3189  0.4694  0.1111
  127OSM    H8F13615   3.651   1.887   7.478  0.9838 -0.6885 -0.2081
  127OSM    H8G13616   3.685   2.027   7.379 -1.2091 -0.5342  0.0114
  127OSM    C9F13617   3.800   2.037   7.540  0.1101  0.0973 -0.4919
  127OSM    H9F13618   3.885   2.097   7.506 -0.2092  0.5649 -0.4629
  127OSM   C10F13619   3.774   2.030   7.675 -0.3669 -0.6250 -0.6673
  127OSM   H10F13620   3.834   2.098   7.738 -0.4290  0.4188 -1.6830
  127OSM   C11F13621   3.679   1.941   7.747 -0.2395 -0.3671  0.4479
  127OSM   H11F13622   3.622   1.879   7.674  1.2575 -0.4079 -0.7598
  127OSM   H11G13623   3.607   1.999   7.808 -0.3013 -0.7201  0.7140
  127OSM   C12F13624   3.744   1.839   7.854 -0.1571  0.2584  0.8158
  127OSM   H12F13625   3.663   1.801   7.919 -0.4254  0.3029  0.5129
  127OSM   H12G13626   3.804   1.907   7.918 -1.3080 -0.8997  3.2390
  127OSM   C13F13627   3.839   1.736   7.790 -0.8633 -0.5090 -0.8874
  127OSM   H13F13628   3.910   1.694   7.865  0.7124  1.0665 -1.4191
  127OSM   H13G13629   3.903   1.790   7.717 -2.5422 -0.0093 -2.0611
  127OSM   C14F13630   3.754   1.618   7.738 -0.3151 -0.0517 -0.2124
  127OSM   H14F13631   3.695   1.649   7.649  0.9938  1.6870 -0.5137
  127OSM   H14G13632   3.679   1.596   7.818 -0.9073  0.1554 -0.7031
  127OSM   C15F13633   3.848   1.504   7.695 -0.2228 -0.2713 -1.4426
  127OSM   H15F13634   3.910   1.493   7.786  1.2944  1.0109 -2.2667
  127OSM   H15G13635   3.907   1.534   7.606  0.8358  1.5733 -0.1867
  127OSM   C16F13636   3.763   1.372   7.670 -1.2944 -0.7096 -0.1948
  127OSM   H16F13637   3.722   1.351   7.772  2.2254  0.5357  1.6426
  127OSM   H16G13638   3.823   1.285   7.636  0.7455  1.5069 -2.7538
  127OSM   C17F13639   3.650   1.382   7.570  0.0886 -0.0459  0.1795
  127OSM   H17F13640   3.691   1.383   7.467 -0.4249  1.8318 -0.0423
  127OSM   H17G13641   3.593   1.477   7.579 -1.7035 -0.5869 -3.5745
  127OSM   C18F13642   3.547   1.266   7.566  0.0826  1.0448  0.4037
  127OSM   H18F13643   3.502   1.244   7.666 -2.8408  2.2898 -0.5466
  127OSM   H18G13644   3.605   1.175   7.538 -2.0242 -0.8959  1.9448
  127OSM   H18H13645   3.477   1.283   7.483  2.3861  0.3298 -1.8103
  128OSM      N13646   3.379   5.314   5.937 -0.3850 -0.2751  0.0071
  128OSM    C1513647   3.493   5.273   5.853 -0.4650 -0.4935 -0.6775
  128OSM   H15A13648   3.465   5.202   5.777 -0.8020 -0.1326 -0.9010
  128OSM   H15B13649   3.568   5.221   5.910 -1.7755 -1.7751 -0.0822
  128OSM   H15C13650   3.541   5.363   5.816 -2.2452  1.1965  0.8973
  128OSM    C1413651   3.416   5.427   6.027  0.0422  1.2589  0.2085
  128OSM   H14A13652   3.459   5.509   5.972 -1.5902  1.8080 -0.3027
  128OSM   H14B13653   3.485   5.395   6.103 -0.7139 -1.2898 -0.0746
  128OSM   H14C13654   3.327   5.450   6.084  0.1999 -2.3865  2.2459
  128OSM    C1313655   3.280   5.365   5.840  0.6957 -1.0146 -0.3847
  128OSM   H13A13656   3.269   5.287   5.766  0.1363 -1.2785 -0.0316
  128OSM   H13B13657   3.312   5.458   5.795 -1.1234 -0.0904  0.1624
  128OSM   H13C13658   3.184   5.383   5.885  0.4160  1.5957 -1.8274
  128OSM    C1213659   3.321   5.194   6.014  0.0531  0.3741 -0.6938
  128OSM   H12A13660   3.402   5.129   6.044 -0.6808  0.5043  1.8090
  128OSM   H12B13661   3.268   5.128   5.946  2.8110 -0.9357 -1.7482
  128OSM    C1113662   3.234   5.220   6.138  0.4594 -0.3905  0.1744
  128OSM   H11A13663   3.301   5.269   6.212  0.0248 -0.7586  0.8320
  128OSM   H11B13664   3.198   5.126   6.186 -1.4300 -0.3752 -1.1117
  128OSM      P13665   3.053   5.393   6.201 -0.1908  0.4778 -0.3146
  128OSM    O1313666   3.118   5.524   6.199  0.7139  0.1297 -0.3544
  128OSM    O1413667   2.908   5.393   6.168  0.9094  0.0212  0.1371
  128OSM    O1113668   3.070   5.325   6.344  0.0498  0.2513 -0.4621
  128OSM    O1213669   3.124   5.300   6.097 -0.4409 -0.0495 -0.1386
  128OSM    C1S13670   3.139   5.400   6.447 -0.0240  0.0957  0.0350
  128OSM    H1S13671   3.100   5.504   6.450  1.5697  0.7410  3.4102
  128OSM    H1T13672   3.247   5.407   6.422  0.1201  0.7213  0.8121
  128OSM     NF13673   3.146   5.431   6.699 -0.2862  0.7617 -0.0847
  128OSM    HNF13674   3.228   5.425   6.756  0.4397  2.7344 -0.8292
  128OSM    C2S13675   3.128   5.337   6.586  0.1346  0.2282 -0.8858
  128OSM    H2S13676   3.028   5.290   6.598  0.2097 -0.5946 -2.9864
  128OSM    C3S13677   3.227   5.215   6.591 -0.8177 -0.8347  0.2495
  128OSM    H3S13678   3.331   5.251   6.605 -0.2713 -2.6559  1.2818
  128OSM     O313679   3.226   5.146   6.464 -0.7201  0.3457  0.3926
  128OSM    HO313680   3.181   5.209   6.408 -0.5711  1.5962  1.6143
  128OSM    C4S13681   3.203   5.127   6.706 -0.6918 -0.1092  0.0339
  128OSM    H4S13682   3.101   5.127   6.747 -0.9474 -0.5885 -0.5859
  128OSM    C5S13683   3.313   5.070   6.774  0.0892 -0.4230 -0.3079
  128OSM    H5S13684   3.418   5.089   6.747 -0.0870 -0.9252 -1.4316
  128OSM    C6S13685   3.298   4.992   6.903 -0.0299 -0.2150  0.1226
  128OSM    H6S13686   3.363   5.039   6.980  1.4021  1.3146 -1.8788
  128OSM    H6T13687   3.338   4.890   6.888 -0.1070  0.0437 -2.2244
  128OSM    C7S13688   3.151   4.956   6.955  0.2292 -0.3116 -0.0247
  128OSM    H7S13689   3.101   4.903   6.872  0.3650 -0.3823 -0.0618
  128OSM    H7T13690   3.095   5.049   6.979  1.3398 -0.1897  2.3858
  128OSM    C8S13691   3.154   4.864   7.074 -0.3234  0.9484 -0.5763
  128OSM    H8S13692   3.206   4.768   7.052  0.9011  1.6674 -0.9014
  128OSM    H8T13693   3.047   4.836   7.089  0.2374 -0.7710  0.4319
  128OSM    C9S13694   3.200   4.925   7.205 -0.2968 -0.5484  0.3149
  128OSM    H9S13695   3.143   5.020   7.209  1.3657  0.5988 -1.2727
  128OSM    H9T13696   3.304   4.961   7.186  0.0049 -1.5116  0.0907
  128OSM   C10S13697   3.174   4.839   7.331 -0.4072 -0.3809 -0.2864
  128OSM   H10S13698   3.239   4.750   7.314  2.8612  1.7908 -0.1417
  128OSM   H10T13699   3.065   4.820   7.337 -0.4368 -0.4874 -1.0235
  128OSM   C11S13700   3.224   4.914   7.456 -0.4170 -0.3816 -0.0260
  128OSM   H11S13701   3.180   5.014   7.474  0.2837  0.4485 -2.4772
  128OSM   H11T13702   3.334   4.933   7.455 -0.5383  0.3513 -0.4193
  128OSM   C12S13703   3.191   4.827   7.586 -0.3553  0.7164  0.4524
  128OSM   H12S13704   3.255   4.736   7.579  1.7730  2.1292  0.7547
  128OSM   H12T13705   3.086   4.790   7.579 -0.3721  0.6198  1.1536
  128OSM   C13S13706   3.221   4.893   7.724 -1.2310 -0.6589  0.4138
  128OSM   H13S13707   3.164   4.984   7.751 -0.9230 -0.3462  0.0306
  128OSM   H13T13708   3.328   4.923   7.728 -1.6212  1.1085 -1.2246
  128OSM   C14S13709   3.190   4.800   7.841  0.3602  0.3987  0.6708
  128OSM   H14S13710   3.218   4.693   7.828 -0.5765  0.0848  1.0962
  128OSM   H14T13711   3.079   4.795   7.839  0.4176 -1.4237  0.1000
  128OSM   C15S13712   3.239   4.845   7.981  0.2460  0.2915 -0.0576
  128OSM   H15S13713   3.187   4.935   8.021 -0.8016  0.5962 -1.9927
  128OSM   H15T13714   3.343   4.880   7.965  1.3977 -3.1576 -0.9548
  128OSM   C16S13715   3.214   4.734   8.092  0.2583  0.4406 -0.1893
  128OSM   H16S13716   3.259   4.636   8.063  0.4303  0.4780 -0.0473
  128OSM   H16T13717   3.106   4.713   8.077  0.4083 -0.3455 -0.2465
  128OSM   C17S13718   3.256   4.783   8.226  0.2116 -0.3526 -0.4774
  128OSM   H17S13719   3.201   4.877   8.248  0.9904 -0.3242  1.5563
  128OSM   H17T13720   3.359   4.823   8.225 -0.0680  0.3932 -0.2604
  128OSM   C18S13721   3.229   4.678   8.341  0.1107  0.2107  0.3067
  128OSM   H18S13722   3.133   4.623   8.332 -0.1226  0.7878 -1.0490
  128OSM   H18T13723   3.227   4.730   8.439  0.8085 -0.9288  0.9514
  128OSM   H18U13724   3.306   4.598   8.343 -1.2667 -1.1551  0.4713
  128OSM    C1F13725   3.058   5.526   6.739 -0.1371 -0.0905 -0.2161
  128OSM     OF13726   2.942   5.530   6.707  0.1731  0.2391  0.2467
  128OSM    C2F13727   3.119   5.620   6.843  0.3464  0.1410 -0.7723
  128OSM    H2F13728   3.222   5.642   6.809 -0.7990  0.4743 -4.4657
  128OSM    H2G13729   3.119   5.569   6.942 -0.0754  0.0834 -0.7987
  128OSM    C3F13730   3.035   5.751   6.836 -0.7488  0.6275  0.0239
  128OSM    H3F13731   2.928   5.740   6.863 -0.7124  0.7559  0.2183
  128OSM    H3G13732   3.030   5.778   6.728 -0.9262  1.2678  0.1899
  128OSM    C4F13733   3.097   5.861   6.918 -0.4866 -0.1688 -0.4413
  128OSM    H4F13734   3.031   5.950   6.917 -1.4459 -0.8764 -1.4328
  128OSM    H4G13735   3.199   5.884   6.878 -0.7918  0.0593 -1.1013
  128OSM    C5F13736   3.103   5.824   7.066  0.2483 -0.4044  0.2893
  128OSM    H5F13737   3.157   5.729   7.084 -0.7131 -1.1340 -0.5803
  128OSM    H5G13738   3.000   5.797   7.096 -0.4674 -0.0016 -1.6497
  128OSM    C6F13739   3.169   5.929   7.161  0.7480  0.1445  0.7261
  128OSM    H6F13740   3.130   6.033   7.154 -1.1054 -0.5625 -0.3342
  128OSM    H6G13741   3.274   5.933   7.127 -0.0454 -1.2651 -2.2455
  128OSM    C7F13742   3.169   5.886   7.304 -0.8310  0.3859 -0.1546
  128OSM    H7F13743   3.236   5.950   7.365 -0.9415  0.2824  0.0747
  128OSM    H7G13744   3.211   5.783   7.303  0.0181  0.7025  1.1450
  128OSM    C8F13745   3.035   5.888   7.374  0.5295  1.1268 -0.1102
  128OSM    H8F13746   2.962   5.817   7.330 -1.1056  2.4400  0.3340
  128OSM    H8G13747   2.984   5.986   7.356 -1.5553  0.3504  1.1680
  128OSM    C9F13748   3.049   5.852   7.526  0.9474  0.3498  0.0106
  128OSM    H9F13749   3.066   5.745   7.548 -0.3539 -0.4522 -2.5090
  128OSM   C10F13750   3.039   5.937   7.631 -0.5398 -0.3765 -0.1879
  128OSM   H10F13751   3.060   5.908   7.735 -2.9648  0.4590  0.5981
  128OSM   C11F13752   3.010   6.089   7.631 -0.1791  0.2859 -0.2337
  128OSM   H11F13753   2.908   6.109   7.671  0.5494  0.2265  1.7570
  128OSM   H11G13754   3.010   6.135   7.529  0.6747  0.8323  0.0095
  128OSM   C12F13755   3.126   6.167   7.704 -0.4720  0.8928 -0.5752
  128OSM   H12F13756   3.107   6.275   7.688  1.5155  1.3883  0.1654
  128OSM   H12G13757   3.223   6.144   7.656  0.2789 -2.1942  2.0599
  128OSM   C13F13758   3.134   6.144   7.851 -0.6746  0.1910 -0.6376
  128OSM   H13F13759   3.232   6.102   7.880 -0.5652  2.2948  2.5305
  128OSM   H13G13760   3.047   6.085   7.885  0.3064  0.3349  2.3650
  128OSM   C14F13761   3.132   6.289   7.919  0.1872  0.2242 -0.4228
  128OSM   H14F13762   3.053   6.350   7.870  0.9312  0.5803 -1.2106
  128OSM   H14G13763   3.229   6.334   7.891  0.2196  0.0878 -0.5329
  128OSM   C15F13764   3.119   6.282   8.070 -0.1371  0.1437  0.0684
  128OSM   H15F13765   3.211   6.228   8.103 -0.2359  0.0100  0.1300
  128OSM   H15G13766   3.032   6.214   8.086 -0.4344  0.9386  2.1671
  128OSM   C16F13767   3.084   6.412   8.140  0.3495  0.1285  0.6289
  128OSM   H16F13768   2.987   6.441   8.094  0.6162  1.3763  0.8215
  128OSM   H16G13769   3.156   6.491   8.111 -1.0070  0.2349 -3.0876
  128OSM   C17F13770   3.075   6.388   8.288  0.0724 -0.3707 -0.1211
  128OSM   H17F13771   3.181   6.382   8.322 -0.3081 -1.6879  0.9063
  128OSM   H17G13772   3.019   6.294   8.305  1.5647 -0.8332  2.8358
  128OSM   C18F13773   3.008   6.510   8.354  0.4261 -0.2207  0.7865
  128OSM   H18F13774   3.051   6.606   8.321  0.2107 -0.9542 -1.7853
  128OSM   H18G13775   3.023   6.513   8.464 -0.4104  3.0630  0.9148
  128OSM   H18H13776   2.900   6.528   8.332  0.8319  0.5702 -0.6707
  129OSM      N13777   0.998   0.150   5.704  0.4171  1.3222 -0.0527
  129OSM    C1513778   0.895   0.053   5.657  0.5794  0.0691  0.1140
  129OSM   H15A13779   0.918   0.000   5.566 -1.6913 -1.4358  0.3433
  129OSM   H15B13780   0.799   0.099   5.640 -1.4028 -4.0657 -1.2150
  129OSM   H15C13781   0.877  -0.024   5.730  0.4843 -0.9978 -1.0120
  129OSM    C1413782   1.123   0.071   5.734  0.3002 -0.1781 -0.5449
  129OSM   H14A13783   1.108  -0.015   5.797 -2.1768  1.2177  0.9350
  129OSM   H14B13784   1.190   0.144   5.777 -1.6413  1.2096  0.2883
  129OSM   H14C13785   1.173   0.034   5.646  0.5681 -0.4879 -0.2624
  129OSM    C1313786   1.031   0.244   5.588  0.4052  0.0704 -0.2626
  129OSM   H13A13787   1.051   0.189   5.498 -0.6779  0.6848 -0.9037
  129OSM   H13B13788   1.115   0.308   5.611  0.2041 -0.0673  0.9140
  129OSM   H13C13789   0.947   0.311   5.570 -0.3638 -0.7654  0.1451
  129OSM    C1213790   0.945   0.220   5.829  0.0591 -0.2325 -0.0473
  129OSM   H12A13791   0.926   0.146   5.906  3.3558  0.8304  2.0090
  129OSM   H12B13792   0.850   0.267   5.810 -1.0363 -2.1484  0.3677
  129OSM    C1113793   1.021   0.333   5.899  0.1006  0.3223 -0.5791
  129OSM   H11A13794   0.946   0.374   5.970 -0.5343 -0.5190 -0.7421
  129OSM   H11B13795   1.053   0.407   5.823 -1.4708  1.6459  0.0033
  129OSM      P13796   1.131   0.232   6.108  0.4317  0.0985 -0.1858
  129OSM    O1313797   1.135   0.355   6.197  0.0335  0.2972 -0.1952
  129OSM    O1413798   1.021   0.135   6.113 -0.1904 -0.0723  0.1050
  129OSM    O1113799   1.276   0.157   6.125  0.2573 -0.2962 -0.3613
  129OSM    O1213800   1.134   0.283   5.962  0.2735 -0.6467 -0.3862
  129OSM    C1S13801   1.385   0.193   6.218  0.6332  0.2939 -0.1818
  129OSM    H1S13802   1.351   0.288   6.265 -0.1566 -0.1177  0.0997
  129OSM    H1T13803   1.479   0.219   6.165  0.1756  0.6765 -0.8210
  129OSM     NF13804   1.479   0.144   6.443  0.4253  0.7770  0.3013
  129OSM    HNF13805   1.574   0.117   6.429 -0.4564 -1.5253 -1.9521
  129OSM    C2S13806   1.393   0.089   6.329 -0.2891 -0.3291  0.0588
  129OSM    H2S13807   1.286   0.077   6.353 -0.1505 -1.1626  0.2897
  129OSM    C3S13808   1.441  -0.046   6.265 -0.3088  0.6084  0.1589
  129OSM    H3S13809   1.548  -0.044   6.235 -0.2838 -0.0980  0.1876
  129OSM     O313810   1.375  -0.087   6.141 -0.0251 -0.2591 -0.4786
  129OSM    HO313811   1.326  -0.007   6.121  1.5923  0.9120  0.0414
  129OSM    C4S13812   1.423  -0.149   6.362  0.0772  0.7563 -0.7370
  129OSM    H4S13813   1.319  -0.183   6.377  0.3106  0.4478  0.2754
  129OSM    C5S13814   1.521  -0.213   6.438 -0.8347 -0.5435 -0.4784
  129OSM    H5S13815   1.627  -0.184   6.424 -0.6643  0.2761  2.0270
  129OSM    C6S13816   1.491  -0.313   6.546  0.3134 -0.5959 -0.4313
  129OSM    H6S13817   1.439  -0.402   6.506 -1.3326  0.0812  0.1387
  129OSM    H6T13818   1.416  -0.261   6.609 -0.5438 -0.1433 -1.7857
  129OSM    C7S13819   1.618  -0.349   6.633 -0.0171 -0.1093  1.0642
  129OSM    H7S13820   1.693  -0.402   6.571  0.1345 -0.6322  1.6769
  129OSM    H7T13821   1.585  -0.414   6.717 -1.4887  0.0879  0.6720
  129OSM    C8S13822   1.686  -0.225   6.694 -0.2422 -0.6631  0.5589
  129OSM    H8S13823   1.725  -0.164   6.609  1.0473 -2.3036 -0.0785
  129OSM    H8T13824   1.771  -0.270   6.749  0.8705  0.4488 -0.1876
  129OSM    C9S13825   1.591  -0.140   6.780  0.0015 -0.2066 -0.5597
  129OSM    H9S13826   1.507  -0.108   6.716 -0.0755 -0.9534 -0.8439
  129OSM    H9T13827   1.649  -0.049   6.807 -0.1750 -0.4220  0.6016
  129OSM   C10S13828   1.534  -0.192   6.910  0.1478 -0.4715 -0.2496
  129OSM   H10S13829   1.614  -0.250   6.962 -1.8302 -0.5938  2.9423
  129OSM   H10T13830   1.451  -0.265   6.895  0.1570 -0.2645 -1.3686
  129OSM   C11S13831   1.481  -0.087   7.010  0.0831 -0.1390  0.1657
  129OSM   H11S13832   1.383  -0.050   6.973 -0.7125 -1.7018  0.6257
  129OSM   H11T13833   1.559  -0.009   7.024  1.0173 -0.9885 -0.1144
  129OSM   C12S13834   1.465  -0.158   7.145  0.4766 -0.1912 -0.1101
  129OSM   H12S13835   1.562  -0.197   7.183  0.6325  0.8724  0.6351
  129OSM   H12T13836   1.400  -0.247   7.139  1.0846 -0.6708  0.3091
  129OSM   C13S13837   1.402  -0.070   7.254  0.4599 -0.0838  0.3269
  129OSM   H13S13838   1.312  -0.018   7.215  1.6661  0.9901 -1.1410
  129OSM   H13T13839   1.474   0.004   7.294  1.7094 -0.1346 -1.6901
  129OSM   C14S13840   1.350  -0.158   7.372  0.6434  0.0610  0.3256
  129OSM   H14S13841   1.433  -0.222   7.411 -0.3835 -2.3839 -1.2724
  129OSM   H14T13842   1.273  -0.230   7.337  1.4865 -0.7635  0.1022
  129OSM   C15S13843   1.270  -0.092   7.485 -0.2559 -0.1522 -0.4181
  129OSM   H15S13844   1.237  -0.172   7.554  1.3962 -3.9976 -3.6877
  129OSM   H15T13845   1.186  -0.039   7.435 -0.0665 -1.0285 -1.7010
  129OSM   C16S13846   1.355   0.014   7.569  0.3867  0.1224  0.1582
  129OSM   H16S13847   1.381   0.114   7.528  1.0353 -1.3174 -3.2264
  129OSM   H16T13848   1.447  -0.043   7.594 -0.7584 -1.4360  1.0439
  129OSM   C17S13849   1.288   0.038   7.699 -0.0878 -0.4994  0.5679
  129OSM   H17S13850   1.276  -0.063   7.746  0.6900  0.4745  3.0559
  129OSM   H17T13851   1.187   0.084   7.699 -0.0287 -0.3727  0.2925
  129OSM   C18S13852   1.380   0.134   7.784 -0.0973 -0.2012  0.1486
  129OSM   H18S13853   1.328   0.191   7.865 -0.8034  1.1578 -1.2163
  129OSM   H18T13854   1.412   0.218   7.719  1.1838  1.3126  2.5929
  129OSM   H18U13855   1.473   0.087   7.822  1.5231 -0.2751 -3.5399
  129OSM    C1F13856   1.440   0.242   6.516 -0.1080 -0.1150 -0.9525
  129OSM     OF13857   1.320   0.267   6.517 -0.3166  0.8485 -0.2548
  129OSM    C2F13858   1.537   0.333   6.578  0.5516  0.1738 -0.4041
  129OSM    H2F13859   1.489   0.431   6.601 -0.0688 -0.3841  0.8037
  129OSM    H2G13860   1.620   0.349   6.506  0.6210 -0.2027 -0.4092
  129OSM    C3F13861   1.590   0.276   6.713 -0.1013 -0.1650 -0.0792
  129OSM    H3F13862   1.661   0.346   6.762 -1.0284  0.8617 -0.1665
  129OSM    H3G13863   1.653   0.187   6.690  0.9750  0.5875 -0.0899
  129OSM    C4F13864   1.482   0.242   6.820 -0.1451  0.0783 -0.6063
  129OSM    H4F13865   1.544   0.202   6.903 -0.4298 -1.9068 -1.3207
  129OSM    H4G13866   1.406   0.165   6.799 -0.1424 -0.6288  1.7144
  129OSM    C5F13867   1.424   0.375   6.871  0.1792 -0.1380  0.0302
  129OSM    H5F13868   1.367   0.420   6.787 -0.4715  0.3306  0.7150
  129OSM    H5G13869   1.498   0.450   6.906  0.3267 -0.6100  0.7484
  129OSM    C6F13870   1.323   0.338   6.978  0.0960  0.7037 -0.2166
  129OSM    H6F13871   1.382   0.279   7.051  0.6293  1.0250 -0.3814
  129OSM    H6G13872   1.241   0.275   6.936 -0.9370  1.9633 -0.1554
  129OSM    C7F13873   1.260   0.459   7.050 -0.1802  0.4954  0.1560
  129OSM    H7F13874   1.195   0.512   6.977 -0.9786 -0.7221 -0.0311
  129OSM    H7G13875   1.344   0.525   7.079 -0.5706  0.5829  1.1329
  129OSM    C8F13876   1.164   0.420   7.167  0.7461  0.6581 -0.8243
  129OSM    H8F13877   1.081   0.356   7.129  0.0125  0.0557  1.6047
  129OSM    H8G13878   1.113   0.511   7.204 -0.0114 -0.3777  0.7636
  129OSM    C9F13879   1.230   0.351   7.284  0.5084 -0.1527 -0.1163
  129OSM    H9F13880   1.275   0.251   7.271 -2.3616 -1.5404 -0.2495
  129OSM   C10F13881   1.237   0.402   7.406  0.3779 -1.2474 -0.4720
  129OSM   H10F13882   1.288   0.340   7.481 -0.1143 -0.1382  0.8031
  129OSM   C11F13883   1.179   0.535   7.445  0.4155  0.2639 -0.6025
  129OSM   H11F13884   1.095   0.569   7.380 -0.6051  1.1962  1.1382
  129OSM   H11G13885   1.256   0.615   7.446  0.6212  0.0868 -1.4206
  129OSM   C12F13886   1.122   0.531   7.596 -0.0840  1.1274  0.4374
  129OSM   H12F13887   1.058   0.441   7.601 -0.0208  1.1037  0.9094
  129OSM   H12G13888   1.052   0.615   7.613 -2.0888 -0.1592 -1.0601
  129OSM   C13F13889   1.230   0.511   7.704  0.1956 -0.3946  0.0451
  129OSM   H13F13890   1.298   0.598   7.699  0.7732 -0.8020  0.6628
  129OSM   H13G13891   1.305   0.430   7.694 -0.0120 -0.4958 -0.7587
  129OSM   C14F13892   1.172   0.492   7.844  0.1432  0.9424  0.4042
  129OSM   H14F13893   1.139   0.387   7.861 -0.0721  0.7611 -1.0230
  129OSM   H14G13894   1.077   0.549   7.855  0.0965  0.7138  1.2258
  129OSM   C15F13895   1.278   0.523   7.947  0.4085 -0.0555  0.4382
  129OSM   H15F13896   1.313   0.628   7.942 -1.5813  0.6363  0.0144
  129OSM   H15G13897   1.365   0.456   7.928 -0.4649 -0.7411 -1.3021
  129OSM   C16F13898   1.221   0.499   8.092  0.4866 -0.0091  0.2476
  129OSM   H16F13899   1.204   0.391   8.111 -1.8091  0.3187  0.3660
  129OSM   H16G13900   1.121   0.549   8.091  0.2706 -0.3712  1.6564
  129OSM   C17F13901   1.313   0.552   8.209  0.2382  0.8672 -0.3064
  129OSM   H17F13902   1.244   0.554   8.296 -2.0436  1.7975 -2.0368
  129OSM   H17G13903   1.353   0.654   8.189  4.0848 -0.3611  0.1945
  129OSM   C18F13904   1.431   0.464   8.241 -0.7191  0.3718  0.5654
  129OSM   H18F13905   1.509   0.471   8.163  0.2924  0.4229  1.5534
  129OSM   H18G13906   1.401   0.359   8.261  0.3802 -0.2490 -0.9319
  129OSM   H18H13907   1.477   0.495   8.337  1.4681  0.5370 -0.4973
  130OSM      N13908   1.685   5.032   6.349  0.1778  0.1126  0.1612
  130OSM    C1513909   1.537   4.992   6.345 -0.4107 -0.3856  0.1171
  130OSM   H15A13910   1.517   4.908   6.281 -1.3594 -0.6760  0.7760
  130OSM   H15B13911   1.490   5.080   6.305  1.9517  1.1320  0.4455
  130OSM   H15C13912   1.497   4.978   6.445 -1.5004  0.2664 -0.2116
  130OSM    C1413913   1.717   5.151   6.438 -0.8637 -0.4264 -0.3941
  130OSM   H14A13914   1.666   5.245   6.418 -0.2293 -0.2178 -1.0886
  130OSM   H14B13915   1.821   5.176   6.423  0.0855 -2.7934  1.6423
  130OSM   H14C13916   1.721   5.134   6.544  0.0772  0.5301 -0.2648
  130OSM    C1313917   1.750   4.911   6.397  0.0676  0.4299  0.9148
  130OSM   H13A13918   1.688   4.875   6.477 -4.0546 -0.7097 -2.4033
  130OSM   H13B13919   1.850   4.933   6.433 -0.0104  1.3011  0.6464
  130OSM   H13C13920   1.739   4.836   6.320  0.8662  0.6996  0.5160
  130OSM    C1213921   1.722   5.066   6.206 -0.7470 -0.0657 -0.3283
  130OSM   H12A13922   1.689   5.167   6.185  1.1127  0.8289  0.8306
  130OSM   H12B13923   1.660   5.006   6.141  1.1335 -1.4544 -0.9419
  130OSM    C1113924   1.865   5.059   6.160 -0.1136  0.3513 -0.1051
  130OSM   H11A13925   1.884   5.074   6.052  1.5475  0.8994  0.2338
  130OSM   H11B13926   1.895   4.952   6.169  1.9263  0.6131 -2.6383
  130OSM      P13927   1.973   5.294   6.184 -0.0337 -0.4309 -0.5603
  130OSM    O1313928   2.113   5.299   6.132  0.5176  0.4628  0.7281
  130OSM    O1413929   1.872   5.323   6.082  0.4595  0.4871  0.1445
  130OSM    O1113930   1.962   5.379   6.316 -0.2639 -0.2330  0.0351
  130OSM    O1213931   1.943   5.148   6.238 -0.5081 -0.0744  0.9239
  130OSM    C1S13932   2.069   5.355   6.413 -0.2774 -0.1150 -0.4825
  130OSM    H1S13933   2.166   5.377   6.364 -0.1300 -1.5855 -0.8972
  130OSM    H1T13934   2.083   5.250   6.445 -0.9043  0.5387  2.1860
  130OSM     NF13935   2.173   5.418   6.622  0.1490 -0.0879 -0.1429
  130OSM    HNF13936   2.161   5.358   6.701  1.5085 -0.1827  0.0171
  130OSM    C2S13937   2.060   5.442   6.542 -0.2714 -0.0940 -0.6422
  130OSM    H2S13938   2.057   5.542   6.492 -1.5615  0.1834 -0.0651
  130OSM    C3S13939   1.917   5.417   6.608  0.3313 -0.3359 -0.3703
  130OSM    H3S13940   1.910   5.311   6.640  0.8252  0.6195  3.4085
  130OSM     O313941   1.802   5.453   6.519 -0.3034  0.3517 -0.6681
  130OSM    HO313942   1.838   5.475   6.432 -1.9738 -1.7187 -2.0078
  130OSM    C4S13943   1.901   5.499   6.732  1.1838 -0.2443 -0.0271
  130OSM    H4S13944   1.933   5.603   6.720 -2.2641  1.1407  1.5150
  130OSM    C5S13945   1.846   5.452   6.844  0.2999 -0.0611 -0.8551
  130OSM    H5S13946   1.787   5.359   6.849 -1.0547  0.8579  1.8511
  130OSM    C6S13947   1.832   5.532   6.973  0.0330  0.2410 -0.1073
  130OSM    H6S13948   1.814   5.641   6.956  0.2738  0.3335  0.2347
  130OSM    H6T13949   1.925   5.534   7.034 -0.1254  0.5412  0.1295
  130OSM    C7S13950   1.722   5.487   7.064 -0.2982  0.3014 -0.2232
  130OSM    H7S13951   1.724   5.377   7.082 -1.2390  0.6256  2.4071
  130OSM    H7T13952   1.618   5.510   7.031 -0.9451  1.8249  2.5599
  130OSM    C8S13953   1.742   5.540   7.210 -0.1726 -0.3802  0.3054
  130OSM    H8S13954   1.730   5.650   7.206 -2.4562 -0.4570  2.5066
  130OSM    H8T13955   1.851   5.520   7.224  0.7763  2.9125 -1.4653
  130OSM    C9S13956   1.671   5.456   7.317 -0.7797 -0.5030  0.3635
  130OSM    H9S13957   1.686   5.347   7.303  1.2101 -0.2495  0.2855
  130OSM    H9T13958   1.562   5.469   7.302 -0.8710 -2.1774 -0.6682
  130OSM   C10S13959   1.730   5.477   7.456  0.7727  0.0013  0.3046
  130OSM   H10S13960   1.720   5.584   7.486 -1.1966  0.4086 -1.5945
  130OSM   H10T13961   1.840   5.464   7.464  0.5535 -0.9870  2.6632
  130OSM   C11S13962   1.668   5.389   7.563 -0.1301 -0.2782 -0.9041
  130OSM   H11S13963   1.678   5.287   7.519 -1.1947  0.1379 -2.1574
  130OSM   H11T13964   1.558   5.382   7.576 -0.0788 -1.2880 -0.8923
  130OSM   C12S13965   1.728   5.417   7.703  0.0740  0.6394  0.1885
  130OSM   H12S13966   1.706   5.518   7.745  2.1876  1.7297 -1.1488
  130OSM   H12T13967   1.837   5.413   7.682  0.1372 -2.2035  0.6705
  130OSM   C13S13968   1.690   5.308   7.806 -0.2970 -0.2665  0.5785
  130OSM   H13S13969   1.735   5.215   7.766  0.4337  0.7856 -1.1706
  130OSM   H13T13970   1.581   5.286   7.802  0.0721 -2.1536 -1.8409
  130OSM   C14S13971   1.736   5.346   7.947 -0.3631 -0.0693 -0.3602
  130OSM   H14S13972   1.714   5.453   7.962  2.2403  0.4754  0.1149
  130OSM   H14T13973   1.847   5.335   7.956 -0.3267 -0.0889 -0.7993
  130OSM   C15S13974   1.684   5.253   8.057  0.6278  0.5203  0.2224
  130OSM   H15S13975   1.673   5.152   8.012  2.0689  0.2546  0.4097
  130OSM   H15T13976   1.580   5.282   8.085  1.2831  1.8747  1.3493
  130OSM   C16S13977   1.763   5.260   8.186  0.5177 -0.6588 -0.2153
  130OSM   H16S13978   1.763   5.360   8.234 -0.5953 -0.5524 -0.4040
  130OSM   H16T13979   1.868   5.225   8.170  0.6754  0.2791 -1.4042
  130OSM   C17S13980   1.705   5.171   8.302 -0.5019 -0.2748 -0.0257
  130OSM   H17S13981   1.739   5.068   8.275 -0.7982  0.1381 -2.1575
  130OSM   H17T13982   1.594   5.175   8.297 -0.6337 -1.3170  1.5204
  130OSM   C18S13983   1.752   5.219   8.437 -0.1889 -0.0543 -0.3433
  130OSM   H18S13984   1.861   5.238   8.442 -0.1959 -0.2880  0.9436
  130OSM   H18T13985   1.719   5.152   8.520  1.9248  0.9145  1.3767
  130OSM   H18U13986   1.703   5.315   8.466 -2.0344 -1.4833  1.6181
  130OSM    C1F13987   2.289   5.478   6.602  0.5873  0.3302  0.0915
  130OSM     OF13988   2.296   5.573   6.527 -0.0095 -0.3077 -0.1227
  130OSM    C2F13989   2.408   5.425   6.672  0.4724  0.1495 -0.9214
  130OSM    H2F13990   2.498   5.439   6.608  0.7087 -1.8751 -1.0982
  130OSM    H2G13991   2.402   5.315   6.686 -1.5224  0.5085  1.6515
  130OSM    C3F13992   2.425   5.489   6.808 -0.0370  0.6313  0.7343
  130OSM    H3F13993   2.511   5.439   6.858  1.1564 -0.7766 -2.4324
  130OSM    H3G13994   2.336   5.466   6.870 -0.1932  0.9645  0.6358
  130OSM    C4F13995   2.450   5.635   6.819  0.4500 -0.2793 -0.0909
  130OSM    H4F13996   2.356   5.683   6.784  0.6200 -1.1508 -1.8781
  130OSM    H4G13997   2.530   5.677   6.754 -0.3766  0.5369 -0.6159
  130OSM    C5F13998   2.462   5.681   6.966 -0.0206 -0.0764 -0.0808
  130OSM    H5F13999   2.516   5.778   6.963  1.5430 -0.9475 -1.1343
  130OSM    H5G14000   2.529   5.606   7.013 -2.3971 -1.3970  1.3938
  130OSM    C6F14001   2.329   5.686   7.046  0.0631  0.0749 -0.2367
  130OSM    H6F14002   2.287   5.585   7.025 -0.3280  0.1111  0.3400
  130OSM    H6G14003   2.259   5.766   7.012 -0.3340  1.2581  3.0834
  130OSM    C7F14004   2.354   5.714   7.197  0.9136  0.3963  0.0859
  130OSM    H7F14005   2.391   5.819   7.207  4.4535 -0.6444 -0.8728
  130OSM    H7G14006   2.444   5.654   7.221 -1.1989 -2.7215  0.7596
  130OSM    C8F14007   2.244   5.673   7.294 -0.2808  0.5340  0.0501
  130OSM    H8F14008   2.275   5.667   7.400  0.7169  2.4092 -0.1048
  130OSM    H8G14009   2.215   5.568   7.272 -3.5537  1.3183  0.2109
  130OSM    C9F14010   2.112   5.744   7.274  0.3633  0.7508  0.6805
  130OSM    H9F14011   2.083   5.748   7.168  1.1413 -0.2776  0.4146
  130OSM   C10F14012   2.032   5.770   7.374 -0.3069  0.2370 -0.2215
  130OSM   H10F14013   1.936   5.817   7.348 -0.8078 -1.3252 -1.2784
  130OSM   C11F14014   2.049   5.738   7.524  0.3787 -0.4001  0.1326
  130OSM   H11F14015   2.151   5.767   7.557 -0.4615  1.6729  1.0957
  130OSM   H11G14016   2.064   5.629   7.539 -1.1513 -0.5792  0.5445
  130OSM   C12F14017   1.943   5.803   7.621 -0.3643  0.1215  0.2120
  130OSM   H12F14018   1.839   5.791   7.584 -1.1236  0.8996  1.9854
  130OSM   H12G14019   1.972   5.911   7.620 -0.6941  0.3277 -3.6617
  130OSM   C13F14020   1.965   5.738   7.758  0.1753  0.2149 -0.1192
  130OSM   H13F14021   2.064   5.773   7.797  1.1168 -0.7683 -1.5256
  130OSM   H13G14022   1.972   5.627   7.751  0.4636 -0.1403  3.8321
  130OSM   C14F14023   1.860   5.772   7.873 -0.3979  0.2232  0.4694
  130OSM   H14F14024   1.762   5.737   7.834  0.2134 -1.2066  0.1772
  130OSM   H14G14025   1.864   5.882   7.893  0.2981  0.8005 -2.3769
  130OSM   C15F14026   1.891   5.682   7.994 -0.2995  0.2646 -0.0307
  130OSM   H15F14027   1.997   5.704   8.023  0.4313 -0.7392 -1.8402
  130OSM   H15G14028   1.875   5.578   7.960 -2.1713  0.6996 -0.5774
  130OSM   C16F14029   1.790   5.710   8.105 -0.1163 -0.3806 -0.0072
  130OSM   H16F14030   1.801   5.624   8.175  2.8330  1.2664  1.7723
  130OSM   H16G14031   1.689   5.719   8.061 -0.2409  1.3592  0.5536
  130OSM   C17F14032   1.818   5.834   8.188  0.0121 -0.2340  0.8935
  130OSM   H17F14033   1.798   5.927   8.130  0.5859  1.0226  2.6295
  130OSM   H17G14034   1.921   5.838   8.229  0.3104 -1.0398  0.2435
  130OSM   C18F14035   1.726   5.853   8.314  0.7447 -0.3216 -0.4665
  130OSM   H18F14036   1.724   5.766   8.382  0.0550 -1.1522 -1.5052
  130OSM   H18G14037   1.623   5.869   8.276  0.5454 -1.9642 -0.6903
  130OSM   H18H14038   1.748   5.946   8.370 -1.3877  1.7094 -2.7560
  131OSM      N14039   1.257   0.882   6.239 -0.0048 -0.3163  0.6014
  131OSM    C1514040   1.267   0.992   6.334  0.0065 -0.0914 -0.0622
  131OSM   H15A14041   1.225   0.973   6.431 -0.2046  1.1292  0.1028
  131OSM   H15B14042   1.203   1.068   6.291  0.0599  0.5213  0.9007
  131OSM   H15C14043   1.370   1.026   6.340 -0.2688  0.7945 -0.1262
  131OSM    C1414044   1.340   0.918   6.123 -0.0502 -0.6657  0.6220
  131OSM   H14A14045   1.303   0.999   6.061  1.1332 -0.4178  0.2054
  131OSM   H14B14046   1.341   0.838   6.051 -1.3792  0.4739 -0.7343
  131OSM   H14C14047   1.442   0.949   6.142 -0.2711 -0.0197  0.7805
  131OSM    C1314048   1.308   0.760   6.306  0.3565 -0.9609  0.5223
  131OSM   H13A14049   1.289   0.678   6.239 -2.4643  0.1633 -0.1947
  131OSM   H13B14050   1.257   0.738   6.398 -0.0690 -1.9861  0.0489
  131OSM   H13C14051   1.415   0.769   6.323  0.3242 -0.6729  0.5738
  131OSM    C1214052   1.107   0.863   6.214 -0.0900  0.0092 -0.0597
  131OSM   H12A14053   1.060   0.856   6.311  0.7560  1.8186  0.5322
  131OSM   H12B14054   1.103   0.768   6.162  1.0907  0.1077 -0.3577
  131OSM    C1114055   1.042   0.967   6.120  0.4811  0.7849  0.6441
  131OSM   H11A14056   0.944   0.915   6.110  1.0829 -0.6028  1.6166
  131OSM   H11B14057   1.085   0.969   6.018 -0.9968  0.9071 -0.0044
  131OSM      P14058   0.907   1.134   6.268 -0.2353  0.3238  0.1037
  131OSM    O1314059   0.903   1.272   6.309  0.6951 -0.4766  0.2354
  131OSM    O1414060   0.780   1.083   6.213 -0.0845  0.4466  0.3889
  131OSM    O1114061   0.950   1.044   6.391  0.0590 -0.1440 -0.1618
  131OSM    O1214062   1.033   1.099   6.179  0.7743 -0.2438 -0.1976
  131OSM    C1S14063   1.018   1.108   6.508  1.0714 -0.3161 -0.1763
  131OSM    H1S14064   1.072   1.203   6.488 -0.5819  0.5149 -0.8487
  131OSM    H1T14065   1.105   1.053   6.549  0.1210  0.4065  3.0764
  131OSM     NF14066   0.995   1.201   6.736 -0.3952  0.5031  0.7932
  131OSM    HNF14067   1.032   1.136   6.803  0.7278  0.9494  0.6368
  131OSM    C2S14068   0.919   1.147   6.625  0.3364 -0.0868  0.1580
  131OSM    H2S14069   0.848   1.226   6.593 -0.2736 -0.0965  1.4047
  131OSM    C3S14070   0.831   1.022   6.664  0.0593 -0.0768 -0.3184
  131OSM    H3S14071   0.899   0.946   6.707 -1.1988  0.0782  2.1111
  131OSM     O314072   0.760   0.959   6.550 -0.2126 -0.0247 -0.2621
  131OSM    HO314073   0.799   1.008   6.478 -0.5195 -0.5658 -0.8075
  131OSM    C4S14074   0.729   1.059   6.767 -0.1271 -0.2082 -0.0366
  131OSM    H4S14075   0.654   1.123   6.720  0.0673 -0.3859 -0.5952
  131OSM    C5S14076   0.710   1.022   6.896 -0.3596  0.0893 -0.1444
  131OSM    H5S14077   0.786   0.953   6.935 -0.2564 -0.8491 -1.9182
  131OSM    C6S14078   0.600   1.072   6.984 -0.3751 -0.2804  0.3572
  131OSM    H6S14079   0.557   1.000   7.057 -1.3416 -0.8845 -0.7739
  131OSM    H6T14080   0.518   1.093   6.912 -0.7932 -2.7262  0.0560
  131OSM    C7S14081   0.631   1.196   7.063 -0.0060 -0.4723  0.3546
  131OSM    H7S14082   0.537   1.234   7.108  0.4024  1.3705 -0.2616
  131OSM    H7T14083   0.652   1.279   6.992  1.5607  0.5733  1.9224
  131OSM    C8S14084   0.757   1.180   7.148  0.6605 -0.3228 -0.2828
  131OSM    H8S14085   0.847   1.169   7.083 -0.1956  1.8289 -1.9573
  131OSM    H8T14086   0.750   1.082   7.200  0.7401 -0.6870 -0.9455
  131OSM    C9S14087   0.773   1.299   7.243 -0.5800 -0.3562 -0.8704
  131OSM    H9S14088   0.678   1.313   7.300 -0.8252 -1.6271 -0.9400
  131OSM    H9T14089   0.790   1.393   7.187  1.5294  0.7707  1.4732
  131OSM   C10S14090   0.879   1.277   7.352 -0.0044  0.5281 -0.3760
  131OSM   H10S14091   0.983   1.268   7.311  0.4032  0.7263  0.5944
  131OSM   H10T14092   0.856   1.178   7.397 -1.1206  0.2723 -1.4739
  131OSM   C11S14093   0.874   1.365   7.480  0.2513  0.4723  0.4198
  131OSM   H11S14094   0.780   1.345   7.536  2.3272 -0.2209  3.9066
  131OSM   H11T14095   0.869   1.472   7.451 -2.5737 -0.0245 -1.3466
  131OSM   C12S14096   0.995   1.336   7.568  0.9304  0.0249  0.7554
  131OSM   H12S14097   1.079   1.342   7.496 -0.8645 -0.3989 -1.4737
  131OSM   H12T14098   0.997   1.234   7.612  0.6289  0.3284  1.5043
  131OSM   C13S14099   1.026   1.444   7.675  0.0141  0.3404 -0.1176
  131OSM   H13S14100   0.964   1.429   7.766 -1.3628  1.4176 -0.8331
  131OSM   H13T14101   0.993   1.539   7.628  0.1804 -0.2361 -1.4526
  131OSM   C14S14102   1.180   1.452   7.701 -0.0419 -0.4138  0.4055
  131OSM   H14S14103   1.230   1.441   7.602 -1.1244  1.1191 -0.3328
  131OSM   H14T14104   1.207   1.364   7.764 -0.7122  0.1852  1.5569
  131OSM   C15S14105   1.222   1.584   7.761  0.1494 -0.5282  0.2598
  131OSM   H15S14106   1.168   1.664   7.707 -2.7819 -0.8965  2.3476
  131OSM   H15T14107   1.333   1.589   7.759  0.1721 -0.8588 -1.8001
  131OSM   C16S14108   1.173   1.599   7.905 -0.2977  0.4064 -0.8035
  131OSM   H16S14109   1.143   1.498   7.940  1.6356  0.2647  0.6463
  131OSM   H16T14110   1.084   1.666   7.901  0.9614  2.2671  0.4767
  131OSM   C17S14111   1.279   1.656   8.003 -0.5160  0.0174  0.1307
  131OSM   H17S14112   1.340   1.726   7.941 -0.0903  0.0330  0.5619
  131OSM   H17T14113   1.355   1.588   8.046  1.1578 -0.1557 -2.8091
  131OSM   C18S14114   1.203   1.724   8.120  0.2529 -0.7312 -1.0960
  131OSM   H18S14115   1.268   1.765   8.200  0.1060 -0.3994 -1.1463
  131OSM   H18T14116   1.125   1.659   8.165  0.7175 -1.4037 -1.2485
  131OSM   H18U14117   1.149   1.813   8.082 -1.2353 -0.9240  0.4097
  131OSM    C1F14118   1.053   1.321   6.737  0.5246 -0.4696 -0.3440
  131OSM     OF14119   1.053   1.404   6.640 -0.0707 -0.2488  0.7543
  131OSM    C2F14120   1.113   1.364   6.865  1.0511  0.0332  0.5189
  131OSM    H2F14121   1.215   1.321   6.881  1.1431 -0.5656 -1.4025
  131OSM    H2G14122   1.050   1.321   6.945  0.3084 -0.9612 -0.5663
  131OSM    C3F14123   1.120   1.512   6.896 -0.3090  0.0440  0.3878
  131OSM    H3F14124   1.024   1.561   6.867 -0.5824 -1.0591 -0.6200
  131OSM    H3G14125   1.202   1.548   6.830  0.9967 -1.6145  1.0402
  131OSM    C4F14126   1.144   1.554   7.040 -0.2920 -0.0727  0.1203
  131OSM    H4F14127   1.216   1.482   7.085  0.1985  0.3592  0.0422
  131OSM    H4G14128   1.042   1.553   7.085  0.6024  2.7462  2.5631
  131OSM    C5F14129   1.201   1.698   7.067 -0.4297  0.4598  0.4390
  131OSM    H5F14130   1.160   1.776   6.999  0.7964 -0.9739 -2.0871
  131OSM    H5G14131   1.308   1.693   7.037  0.5142 -1.0448  3.5335
  131OSM    C6F14132   1.204   1.727   7.217  0.0159  0.0338  0.5022
  131OSM    H6F14133   1.224   1.629   7.264 -0.5314 -0.0869  0.4797
  131OSM    H6G14134   1.100   1.747   7.248  0.3802  0.9963  1.1765
  131OSM    C7F14135   1.291   1.850   7.253  0.4605 -0.2942  0.1421
  131OSM    H7F14136   1.278   1.920   7.167  2.3356 -0.0033  0.0511
  131OSM    H7G14137   1.399   1.832   7.268  0.1674 -2.5150 -0.0899
  131OSM    C8F14138   1.230   1.918   7.378  0.4889  0.7468  0.3271
  131OSM    H8F14139   1.212   1.832   7.446  0.1420  0.4752 -0.0996
  131OSM    H8G14140   1.128   1.949   7.347 -0.3743 -1.6752  0.5500
  131OSM    C9F14141   1.310   2.023   7.436  0.3475 -0.0328  0.3053
  131OSM    H9F14142   1.367   2.075   7.358 -1.9943  1.4196 -0.5412
  131OSM   C10F14143   1.327   2.065   7.563 -0.0652  0.3889  0.3112
  131OSM   H10F14144   1.386   2.149   7.602 -0.0416  0.2425  0.5952
  131OSM   C11F14145   1.255   2.000   7.685 -0.0596 -0.3150 -0.2463
  131OSM   H11F14146   1.323   1.930   7.739 -0.0943 -0.1613 -0.0020
  131OSM   H11G14147   1.174   1.935   7.648 -0.3985  0.7203 -1.4157
  131OSM   C12F14148   1.215   2.107   7.786  0.1294  0.1269 -0.4529
  131OSM   H12F14149   1.134   2.166   7.738  1.7921  0.4652 -3.0189
  131OSM   H12G14150   1.290   2.188   7.796 -0.2830  0.2539  2.7411
  131OSM   C13F14151   1.180   2.039   7.930  0.5750  0.2697 -0.0273
  131OSM   H13F14152   1.269   1.979   7.958  0.0762 -0.2919  0.3619
  131OSM   H13G14153   1.090   1.974   7.932  1.6585 -1.2566  1.2653
  131OSM   C14F14154   1.147   2.155   8.032 -0.2222  0.7084 -0.0224
  131OSM   H14F14155   1.040   2.183   8.027 -1.1954 -2.5205  0.4370
  131OSM   H14G14156   1.216   2.239   8.009  0.4429  0.5195  1.1749
  131OSM   C15F14157   1.164   2.106   8.178  0.1298 -0.8289 -0.5380
  131OSM   H15F14158   1.263   2.056   8.183  0.0098 -1.0465 -0.3039
  131OSM   H15G14159   1.088   2.026   8.193 -2.0264  1.2787  0.5023
  131OSM   C16F14160   1.158   2.215   8.291  0.5650 -0.1575  0.4171
  131OSM   H16F14161   1.153   2.169   8.392  0.5546  0.0362  0.5041
  131OSM   H16G14162   1.061   2.267   8.282 -0.2089 -1.3631  1.3360
  131OSM   C17F14163   1.273   2.318   8.282  0.4270 -0.3820 -0.4573
  131OSM   H17F14164   1.262   2.400   8.208  1.4261 -1.4134 -1.7919
  131OSM   H17G14165   1.360   2.258   8.251  1.1185 -1.2222  2.7263
  131OSM   C18F14166   1.297   2.376   8.426  0.6383  0.7464 -0.1873
  131OSM   H18F14167   1.198   2.409   8.465  0.4189  0.1107 -0.1929
  131OSM   H18G14168   1.374   2.455   8.434  2.0263 -0.7149  2.7407
  131OSM   H18H14169   1.322   2.296   8.499 -0.5377 -0.1378 -0.7176
  132OSM      N14170   4.246   4.900   5.935  0.0309  0.1429  0.4607
  132OSM    C1514171   4.290   4.816   5.826  0.1146  0.1860  0.1554
  132OSM   H15A14172   4.344   4.737   5.875 -1.7390 -1.8904 -0.9880
  132OSM   H15B14173   4.358   4.881   5.771  1.5443 -1.3204  0.0721
  132OSM   H15C14174   4.210   4.778   5.765  2.1902 -0.7840 -2.1244
  132OSM    C1414175   4.354   5.000   5.980 -0.6384 -0.2610  0.5582
  132OSM   H14A14176   4.307   5.079   6.037 -0.0792 -1.2017  2.4036
  132OSM   H14B14177   4.388   5.034   5.883  1.4702  0.3379  1.4388
  132OSM   H14C14178   4.448   4.965   6.020  1.4011  3.8070 -0.1184
  132OSM    C1314179   4.128   4.981   5.878 -0.1018 -0.1320 -0.1147
  132OSM   H13A14180   4.040   4.924   5.853  0.3724 -0.9498  0.0334
  132OSM   H13B14181   4.173   5.038   5.798  3.6186 -0.9162  1.1833
  132OSM   H13C14182   4.096   5.045   5.958  0.0510 -1.2679  0.8788
  132OSM    C1214183   4.206   4.813   6.055  0.1624  0.1520 -0.0204
  132OSM   H12A14184   4.285   4.740   6.067 -0.9220 -1.0307  0.1333
  132OSM   H12B14185   4.116   4.759   6.028  0.2690 -1.2048  2.0217
  132OSM    C1114186   4.170   4.879   6.193  0.3143  0.5752  0.1941
  132OSM   H11A14187   4.260   4.933   6.229  0.6379  0.1187  0.0783
  132OSM   H11B14188   4.165   4.797   6.268 -0.0762 -1.4569 -1.9039
  132OSM      P14189   3.914   4.906   6.229 -0.1305  0.1257 -0.4729
  132OSM    O1314190   3.815   5.001   6.172 -0.3739  0.1080  0.2920
  132OSM    O1414191   3.902   4.767   6.185  0.2788  0.5800  0.0258
  132OSM    O1114192   3.914   4.917   6.393 -0.0318 -0.4433  0.4960
  132OSM    O1214193   4.058   4.959   6.183 -0.3261 -0.1713 -0.2996
  132OSM    C1S14194   3.975   5.037   6.453  0.4603  0.2412 -0.6250
  132OSM    H1S14195   3.914   5.127   6.434  1.2952  1.0678  0.4877
  132OSM    H1T14196   4.069   5.068   6.403  0.2432  1.8285 -0.0974
  132OSM     NF14197   4.096   5.128   6.650  0.1236  0.0019 -0.2775
  132OSM    HNF14198   4.195   5.124   6.641  0.1907 -1.1281  0.7425
  132OSM    C2S14199   4.022   5.008   6.603 -0.0398 -0.0450  1.0129
  132OSM    H2S14200   3.927   5.002   6.660 -0.4733 -1.0082  0.2237
  132OSM    C3S14201   4.106   4.881   6.596  0.1905 -0.5660  0.4271
  132OSM    H3S14202   4.174   4.883   6.508 -0.2494  0.5070  0.0977
  132OSM     O314203   4.029   4.768   6.566 -0.2126 -0.2088  0.6286
  132OSM    HO314204   3.951   4.807   6.525  1.3813 -0.1576 -2.5742
  132OSM    C4S14205   4.184   4.859   6.723 -0.5522 -0.3864 -0.5826
  132OSM    H4S14206   4.279   4.915   6.725 -0.8791  0.2099  2.5457
  132OSM    C5S14207   4.152   4.780   6.830 -0.6956  0.5940  0.4875
  132OSM    H5S14208   4.053   4.731   6.824 -0.6103  0.5266 -0.6475
  132OSM    C6S14209   4.238   4.758   6.951  0.4657 -0.2889 -0.4521
  132OSM    H6S14210   4.318   4.834   6.955 -2.0573  2.6013 -1.1473
  132OSM    H6T14211   4.285   4.658   6.964 -0.2546 -0.6761 -0.7268
  132OSM    C7S14212   4.145   4.791   7.072  0.4386  0.0245  0.4275
  132OSM    H7S14213   4.053   4.728   7.073  1.4073 -1.4822 -1.1676
  132OSM    H7T14214   4.108   4.896   7.079 -0.4991 -0.2452 -0.3208
  132OSM    C8S14215   4.226   4.772   7.193 -0.1698  0.3799 -0.7567
  132OSM    H8S14216   4.315   4.839   7.200  0.0546  0.1090 -1.0075
  132OSM    H8T14217   4.264   4.668   7.197  0.5385  0.6469 -0.3688
  132OSM    C9S14218   4.134   4.778   7.321 -0.4600  0.4531  0.8635
  132OSM    H9S14219   4.044   4.716   7.304  0.5848 -0.9335  0.1345
  132OSM    H9T14220   4.096   4.882   7.326  0.4701  1.0110 -1.8231
  132OSM   C10S14221   4.203   4.733   7.447 -0.3148 -0.6864 -0.5856
  132OSM   H10S14222   4.296   4.787   7.477  0.0372 -0.6126 -1.7721
  132OSM   H10T14223   4.228   4.626   7.429  0.1557 -0.7088  0.1754
  132OSM   C11S14224   4.110   4.746   7.570 -0.8799  0.4922 -0.4256
  132OSM   H11S14225   4.010   4.701   7.551  0.1032 -3.2139  1.9000
  132OSM   H11T14226   4.102   4.854   7.592 -0.3461  0.5034 -0.2822
  132OSM   C12S14227   4.178   4.679   7.686  0.3471 -0.3712 -0.0538
  132OSM   H12S14228   4.272   4.735   7.704 -0.6281  1.3207 -0.0283
  132OSM   H12T14229   4.201   4.576   7.652  1.9741 -1.6394  4.1979
  132OSM   C13S14230   4.095   4.697   7.812  0.2472 -0.1432 -0.0814
  132OSM   H13S14231   3.989   4.670   7.796  0.0436 -0.5710  1.7640
  132OSM   H13T14232   4.093   4.807   7.827 -1.5009 -0.5139  3.2173
  132OSM   C14S14233   4.150   4.624   7.934  0.3178 -0.2902  0.3271
  132OSM   H14S14234   4.256   4.655   7.946  0.3263  0.5237 -1.4419
  132OSM   H14T14235   4.153   4.517   7.904 -1.8820 -1.0077  2.4171
  132OSM   C15S14236   4.078   4.648   8.069 -0.4680 -0.8247  0.1239
  132OSM   H15S14237   4.111   4.568   8.139 -1.4671 -1.1861  0.1910
  132OSM   H15T14238   3.971   4.641   8.040 -0.3354  1.0905 -1.0504
  132OSM   C16S14239   4.109   4.789   8.141 -0.4274  0.9531  0.0982
  132OSM   H16S14240   4.062   4.866   8.076  0.9029  3.4615  1.9406
  132OSM   H16T14241   4.218   4.807   8.138 -0.1872 -0.3330  0.6386
  132OSM   C17S14242   4.033   4.801   8.273 -0.0457 -0.3876  0.2342
  132OSM   H17S14243   4.033   4.699   8.317 -1.6463  0.8554  3.4160
  132OSM   H17T14244   3.926   4.825   8.258  0.0598  0.9923  1.4329
  132OSM   C18S14245   4.091   4.906   8.371 -0.2800 -1.2062  0.3769
  132OSM   H18S14246   4.185   4.870   8.418  1.5188  3.0434  0.4460
  132OSM   H18T14247   4.022   4.920   8.457 -0.4270 -0.6765  0.1731
  132OSM   H18U14248   4.117   4.999   8.317 -0.3257 -1.3475  0.1072
  132OSM    C1F14249   4.038   5.244   6.678  0.1192  0.4068 -0.4629
  132OSM     OF14250   3.917   5.269   6.652 -0.4256 -0.7546 -0.4881
  132OSM    C2F14251   4.130   5.358   6.717 -0.1462  0.1247 -0.2830
  132OSM    H2F14252   4.154   5.403   6.618 -3.6939  1.6507 -0.5889
  132OSM    H2G14253   4.219   5.316   6.769 -0.2236  1.2684  0.8177
  132OSM    C3F14254   4.054   5.462   6.801 -0.1541 -0.4432  0.1510
  132OSM    H3F14255   4.016   5.424   6.898  1.2819  1.7209  1.6755
  132OSM    H3G14256   3.965   5.492   6.741 -0.0016 -1.0172 -0.3728
  132OSM    C4F14257   4.137   5.588   6.832  0.2931 -0.1957 -0.0320
  132OSM    H4F14258   4.155   5.639   6.735  2.0572 -0.0364  0.3357
  132OSM    H4G14259   4.230   5.552   6.880  0.1957  0.8867  1.0195
  132OSM    C5F14260   4.072   5.689   6.919 -0.6041  0.0095  0.2011
  132OSM    H5F14261   3.969   5.708   6.884 -0.5011 -0.4177 -0.3488
  132OSM    H5G14262   4.133   5.782   6.909 -2.5938  1.2641 -0.9950
  132OSM    C6F14263   4.062   5.661   7.070  0.2975  0.4784 -0.2529
  132OSM    H6F14264   4.164   5.646   7.113  0.2682  0.2820 -0.2549
  132OSM    H6G14265   4.010   5.563   7.076 -0.2758  0.7652 -0.5084
  132OSM    C7F14266   3.999   5.773   7.152  0.1263 -0.5131  0.7452
  132OSM    H7F14267   3.895   5.778   7.113  0.1460 -1.2539  0.5745
  132OSM    H7G14268   4.051   5.869   7.133  0.9974 -1.4940 -2.5631
  132OSM    C8F14269   3.989   5.746   7.301 -0.2670  0.2933  0.0117
  132OSM    H8F14270   4.000   5.638   7.324 -0.8771  0.5952  1.8876
  132OSM    H8G14271   3.896   5.782   7.350 -0.9053  1.8313 -2.2018
  132OSM    C9F14272   4.110   5.806   7.375  0.4167  0.2256 -0.7135
  132OSM    H9F14273   4.209   5.761   7.357 -0.2140 -1.4127 -0.2370
  132OSM   C10F14274   4.098   5.904   7.475 -0.2886 -0.5182 -0.6992
  132OSM   H10F14275   4.190   5.954   7.511 -0.2630 -1.1397  0.1256
  132OSM   C11F14276   3.977   5.976   7.522  0.4576 -0.2603 -0.1985
  132OSM   H11F14277   3.880   5.956   7.472 -0.7169  0.8311  1.5063
  132OSM   H11G14278   3.997   6.086   7.523 -3.6303  0.7345  3.0593
  132OSM   C12F14279   3.951   5.925   7.668  0.1393 -0.5710  0.4880
  132OSM   H12F14280   3.882   5.993   7.721  0.5231 -0.8478  1.3628
  132OSM   H12G14281   4.044   5.931   7.729 -0.1536 -1.1641  1.0020
  132OSM   C13F14282   3.893   5.786   7.676  0.3905  0.0684 -0.5755
  132OSM   H13F14283   3.947   5.708   7.618 -0.6310 -0.0430 -1.4055
  132OSM   H13G14284   3.789   5.783   7.635  0.4783 -0.8757 -0.7666
  132OSM   C14F14285   3.891   5.745   7.826  0.2814  0.0496 -0.0158
  132OSM   H14F14286   3.841   5.823   7.887  3.3574  0.3063  2.4457
  132OSM   H14G14287   3.992   5.744   7.874  0.3810  0.4154 -0.2156
  132OSM   C15F14288   3.823   5.612   7.844 -0.0307  0.3851 -0.2874
  132OSM   H15F14289   3.884   5.537   7.788 -2.4861 -0.2764 -2.2620
  132OSM   H15G14290   3.723   5.618   7.797  1.3507  1.4747 -3.3296
  132OSM   C16F14291   3.824   5.559   7.990 -0.0344  0.3746 -0.6070
  132OSM   H16F14292   3.926   5.572   8.031  0.0644 -1.3880 -0.2214
  132OSM   H16G14293   3.803   5.450   7.987 -0.3549  0.3355  1.5298
  132OSM   C17F14294   3.716   5.626   8.085  0.4683  0.3409 -0.1701
  132OSM   H17F14295   3.616   5.626   8.038  0.4329  1.5503 -0.1133
  132OSM   H17G14296   3.743   5.733   8.092 -1.0340  0.7776 -0.7099
  132OSM   C18F14297   3.710   5.559   8.219  0.0269  0.4141  0.3083
  132OSM   H18F14298   3.660   5.459   8.219  0.7778  0.0197 -0.6498
  132OSM   H18G14299   3.643   5.633   8.268 -3.0239  0.0002 -2.8289
  132OSM   H18H14300   3.808   5.550   8.271 -0.4682 -2.9061  0.9264
  133SAPE     N14301   1.052   3.763  10.781  0.3311  0.0625  0.5620
  133SAPE   HN114302   0.987   3.841  10.758 -2.2517 -1.7735  1.1442
  133SAPE   HN214303   1.043   3.741  10.882  1.9137  2.5605  1.3353
  133SAPE   HN314304   1.155   3.775  10.769  0.6088 -2.0930  0.4675
  133SAPE   C1214305   1.006   3.650  10.692  0.5062 -0.4343  0.3659
  133SAPE  H12A14306   1.015   3.687  10.588  1.8796 -0.7253  0.3687
  133SAPE  H12B14307   0.897   3.642  10.712  0.2711  0.3766 -0.5461
  133SAPE   C1114308   1.083   3.514  10.714 -0.2133  0.3633  0.8999
  133SAPE  H11A14309   1.054   3.440  10.637  4.7049  1.1055 -2.0788
  133SAPE  H11B14310   1.057   3.474  10.815  0.0404  0.1682  0.8872
  133SAPE     P14311   1.319   3.399  10.656  0.0312 -0.2293  0.5467
  133SAPE   O1314312   1.451   3.458  10.625 -0.5199  0.4415  0.1389
  133SAPE   O1414313   1.327   3.298  10.766 -0.2328  0.0174  0.1971
  133SAPE   O1214314   1.222   3.526  10.693 -0.4033  0.4165 -0.0265
  133SAPE   O1114315   1.264   3.323  10.535  0.1843 -0.4191 -0.0210
  133SAPE    C114316   1.257   3.380  10.404  0.0944 -0.3415 -0.8657
  133SAPE    HA14317   1.175   3.455  10.412  2.0368  1.7142  1.5606
  133SAPE    HB14318   1.344   3.441  10.372  0.2430  0.3619  0.7724
  133SAPE    C214319   1.220   3.287  10.287 -0.2307 -0.1799  0.3389
  133SAPE    HS14320   1.311   3.229  10.260 -0.5095  0.5072 -2.3667
  133SAPE   O2114321   1.197   3.366  10.165 -0.0379 -0.0622 -0.7346
  133SAPE   C2114322   1.177   3.303  10.054  0.3769 -0.7195  0.2404
  133SAPE   O2214323   1.191   3.183  10.034 -0.0188 -0.7018  0.6474
  133SAPE   C2214324   1.143   3.401   9.943 -0.4272 -0.0679 -0.0881
  133SAPE   H2R14325   1.191   3.372   9.846 -0.9777 -0.8683 -0.1262
  133SAPE   H2S14326   1.035   3.385   9.926 -0.6135 -0.4318  1.3385
  133SAPE    C314327   1.096   3.199  10.310 -0.4036 -0.1947  0.2438
  133SAPE    HX14328   1.099   3.151  10.410 -0.9674 -1.2157 -0.2070
  133SAPE    HY14329   1.101   3.111  10.242 -0.2971 -1.2688  1.5890
  133SAPE   O3114330   0.971   3.270  10.284 -0.0955  0.0954  0.3463
  133SAPE   C3114331   0.890   3.295  10.387 -0.2384  0.7446 -0.3275
  133SAPE   O3214332   0.907   3.262  10.506  0.1012  0.5295  0.1885
  133SAPE   C3214333   0.766   3.366  10.345  0.4243  0.0739  0.1589
  133SAPE   H2X14334   0.683   3.313  10.396  0.3973 -1.6858 -1.5800
  133SAPE   H2Y14335   0.750   3.354  10.235 -2.4157  1.2686  0.3457
  133SAPE   C2314336   1.187   3.556   9.957  0.6002 -0.3956 -0.3798
  133SAPE   H3R14337   1.298   3.563   9.962  0.6423 -0.5579 -0.9529
  133SAPE   H3S14338   1.145   3.596  10.051  0.9032  2.1402 -1.2639
  133SAPE   C2414339   1.139   3.658   9.847  0.8401  0.6895 -0.1088
  133SAPE   H4R14340   1.154   3.765   9.875 -0.5571  1.0680 -0.7213
  133SAPE   H4S14341   1.030   3.637   9.858  1.2336 -1.8689 -0.4846
  133SAPE   C2514342   1.194   3.625   9.709  0.4015 -0.0756 -0.3213
  133SAPE   H5R14343   1.287   3.681   9.689  0.1246  1.3284  1.9339
  133SAPE   C2614344   1.150   3.544   9.612  0.2368  0.1524 -0.0854
  133SAPE   H6R14345   1.196   3.542   9.512  0.2280  1.5525 -0.1407
  133SAPE   C2714346   1.026   3.459   9.625 -0.2218  0.0185  0.7214
  133SAPE   H7R14347   0.993   3.443   9.730 -2.7271 -2.2051 -0.2912
  133SAPE   H7S14348   1.054   3.361   9.581 -0.9853  0.1870 -0.1544
  133SAPE   C2814349   0.912   3.520   9.541  0.3919 -0.0549 -0.7562
  133SAPE   H8R14350   0.889   3.622   9.573  0.4029 -0.1880 -0.3257
  133SAPE   C2914351   0.837   3.459   9.443  0.1542 -0.3165 -0.5504
  133SAPE   H9R14352   0.762   3.519   9.392  1.6273  1.5598 -0.6333
  133SAPE  C21014353   0.858   3.318   9.394  0.3167 -0.0547 -0.1105
  133SAPE  H10R14354   0.921   3.250   9.457  1.4810  0.3605 -0.8023
  133SAPE  H10S14355   0.912   3.324   9.297 -2.3596 -1.9575 -1.8537
  133SAPE  C21114356   0.722   3.261   9.382  0.1032  0.0029  0.0667
  133SAPE  H11R14357   0.677   3.216   9.472 -0.0680 -1.2406 -0.6097
  133SAPE  C21214358   0.657   3.222   9.268 -1.0387 -0.1857  0.1114
  133SAPE  H12R14359   0.559   3.173   9.281 -1.1934 -0.0036 -0.3460
  133SAPE  C21314360   0.704   3.238   9.124 -0.1010  0.3788  0.2810
  133SAPE  H13R14361   0.769   3.155   9.089  0.8734  1.9359 -1.8164
  133SAPE  H13S14362   0.775   3.322   9.111  0.3411 -0.3193 -2.4270
  133SAPE  C21414363   0.588   3.261   9.031 -0.1584  0.9585 -0.5272
  133SAPE  H14R14364   0.529   3.172   9.005  0.2092  0.8765 -1.1207
  133SAPE  C21514365   0.541   3.375   8.991 -0.0478 -0.6566  0.3525
  133SAPE  H15R14366   0.463   3.386   8.914  1.5229  0.3651 -1.1835
  133SAPE  C21614367   0.605   3.507   9.030  0.6654 -0.7941  0.3047
  133SAPE  H16R14368   0.653   3.500   9.130 -0.0092 -1.7003  0.5863
  133SAPE  H16S14369   0.534   3.592   9.039  0.1601 -1.4536  3.6502
  133SAPE  C21714370   0.708   3.546   8.920  0.2455 -0.1186  0.0125
  133SAPE  H17R14371   0.783   3.464   8.916 -0.2750 -0.7265  1.7952
  133SAPE  H17S14372   0.756   3.643   8.944 -0.7445  0.4839 -0.3992
  133SAPE  C21814373   0.660   3.545   8.773 -0.1728 -0.7628 -0.2962
  133SAPE  H18R14374   0.551   3.563   8.762  0.2785  2.3081 -0.5211
  133SAPE  H18S14375   0.675   3.448   8.721 -1.4965 -0.8564 -0.5513
  133SAPE  C21914376   0.724   3.649   8.677  0.3465 -0.6044 -0.0761
  133SAPE  H19R14377   0.683   3.752   8.676  0.6489 -0.4843 -0.2260
  133SAPE  H19S14378   0.690   3.611   8.578  0.5612 -2.8121  0.6359
  133SAPE  C22014379   0.875   3.661   8.689  0.2215 -0.3793 -0.6129
  133SAPE  H20R14380   0.925   3.568   8.654  3.1668 -0.2979  2.8020
  133SAPE  H20S14381   0.919   3.692   8.786  1.1095 -1.8006 -0.5303
  133SAPE  H20T14382   0.901   3.747   8.624  0.2417  0.6152  0.6690
  133SAPE   C3314383   0.780   3.511  10.376  0.9964 -0.4365  0.2432
  133SAPE   H3X14384   0.809   3.518  10.483 -0.1894 -0.0786  0.5547
  133SAPE   H3Y14385   0.681   3.559  10.360  1.7131  0.8919 -0.3965
  133SAPE   C3414386   0.881   3.578  10.276 -0.1094 -0.4670  0.5202
  133SAPE   H4X14387   0.980   3.527  10.286 -0.1746 -0.2725  2.8429
  133SAPE   H4Y14388   0.891   3.684  10.308 -0.4163 -1.0363  2.6964
  133SAPE   C3514389   0.833   3.589  10.127  0.4804  0.6163  0.2916
  133SAPE   H5X14390   0.807   3.486  10.094 -0.9527  0.1987  2.4861
  133SAPE   H5Y14391   0.914   3.631  10.064 -1.2354  1.2354 -1.6361
  133SAPE   C3614392   0.714   3.680  10.096  0.1670  0.1931  0.9266
  133SAPE   H6X14393   0.727   3.776  10.151  0.8178  0.2032  0.7615
  133SAPE   H6Y14394   0.619   3.635  10.133  1.0965 -2.2739  0.4920
  133SAPE   C3714395   0.700   3.715   9.945 -0.0085 -0.2223  0.4051
  133SAPE   H7X14396   0.671   3.627   9.884 -1.7127  1.4033 -1.2583
  133SAPE   H7Y14397   0.798   3.756   9.913  0.5170 -0.7553  1.2575
  133SAPE   C3814398   0.595   3.828   9.919 -0.2504  0.0227 -0.5449
  133SAPE   H8X14399   0.632   3.916   9.977 -0.3002 -0.5205  0.3368
  133SAPE   H8Y14400   0.491   3.809   9.952 -1.3379  2.5771 -2.2480
  133SAPE   C3914401   0.595   3.865   9.770  0.6151 -0.2127 -0.4615
  133SAPE   H9X14402   0.700   3.865   9.733  0.5243 -0.3360 -0.7213
  133SAPE   H9Y14403   0.566   3.971   9.754  0.5069 -0.4056 -1.7129
  133SAPE  C31014404   0.513   3.776   9.683 -0.1931  0.5572  0.6811
  133SAPE  H10X14405   0.409   3.778   9.722 -0.5674  1.8657 -0.2914
  133SAPE  H10Y14406   0.558   3.675   9.684  1.2374  1.1563 -0.1907
  133SAPE  C31114407   0.507   3.810   9.530 -0.5217  0.4608 -0.3511
  133SAPE  H11X14408   0.451   3.906   9.523 -2.7082 -0.8112 -1.3792
  133SAPE  H11Y14409   0.448   3.732   9.477 -0.4375 -0.1860  0.4920
  133SAPE  C31214410   0.647   3.818   9.466  0.3757  0.2040 -1.1837
  133SAPE  H12X14411   0.705   3.736   9.514 -1.6231 -1.1963 -1.0376
  133SAPE  H12Y14412   0.694   3.912   9.503 -1.3133  0.1344  1.4637
  133SAPE  C31314413   0.665   3.818   9.317 -0.0338  0.0796  0.6686
  133SAPE  H13X14414   0.660   3.720   9.263  0.7826  0.7786 -0.7294
  133SAPE  H13Y14415   0.771   3.849   9.305 -0.0704 -0.1025 -0.2557
  133SAPE  C31414416   0.567   3.919   9.242 -0.1057  0.9258 -0.7282
  133SAPE  H14X14417   0.576   4.015   9.298  0.2358  0.3545  0.2229
  133SAPE  H14Y14418   0.468   3.869   9.250 -0.6536  2.1934  0.9631
  133SAPE  C31514419   0.617   3.933   9.097 -0.1831  0.4982 -0.0635
  133SAPE  H15X14420   0.610   3.840   9.036  1.4070  0.0339  0.4183
  133SAPE  H15Y14421   0.721   3.966   9.114  0.1456 -0.5687  0.0840
  133SAPE  C31614422   0.544   4.049   9.027  0.3132  0.0098  0.7676
  133SAPE  H16X14423   0.577   4.144   9.075  2.0385 -0.7314  1.1084
  133SAPE  H16Y14424   0.433   4.046   9.024  0.2962  0.0867 -2.3490
  133SAPE  C31714425   0.587   4.062   8.882 -0.1130  0.1332  0.0074
  133SAPE  H17X14426   0.573   3.964   8.832  2.3007  0.3565 -1.2456
  133SAPE  H17Y14427   0.698   4.070   8.878 -0.0006 -1.5064 -2.6476
  133SAPE  C31814428   0.532   4.186   8.805  0.1374  0.1367  0.0527
  133SAPE  H18X14429   0.573   4.199   8.703 -0.7509  0.0266 -0.3252
  133SAPE  H18Y14430   0.531   4.281   8.863  0.9950  1.6887 -2.3492
  133SAPE  H18Z14431   0.426   4.167   8.776  0.3081 -1.9747  0.6379
  134SAPE     N14432   3.144   3.367  10.227 -0.0953  0.2611  0.0751
  134SAPE   HN114433   3.228   3.428  10.221 -0.4972  0.8986  0.7579
  134SAPE   HN214434   3.064   3.423  10.192  1.1121  2.4775  0.6788
  134SAPE   HN314435   3.127   3.332  10.324 -0.9394  3.1271  1.0716
  134SAPE   C1214436   3.192   3.246  10.145 -0.2931  0.1023 -0.0700
  134SAPE  H12A14437   3.227   3.285  10.047 -0.2937  0.6103  0.1314
  134SAPE  H12B14438   3.109   3.172  10.140 -0.4061  0.2815 -2.9038
  134SAPE   C1114439   3.300   3.173  10.231 -0.4519 -0.4432  0.1656
  134SAPE  H11A14440   3.386   3.241  10.247 -0.4439 -0.4702  0.2374
  134SAPE  H11B14441   3.336   3.090  10.167  1.1274  0.9745 -0.8751
  134SAPE     P14442   3.230   2.980  10.397  0.1601 -0.0935 -0.0400
  134SAPE   O1314443   3.362   2.908  10.392  0.5133 -0.7175  0.1890
  134SAPE   O1414444   3.164   2.971  10.527  0.1085  0.4622  1.0947
  134SAPE   O1214445   3.253   3.129  10.354  0.5138 -0.1211 -1.3475
  134SAPE   O1114446   3.144   2.917  10.283  0.7313 -0.1262 -0.3048
  134SAPE    C114447   3.214   2.832  10.194 -0.0065  0.8251  0.3305
  134SAPE    HA14448   3.293   2.879  10.132 -0.5751 -1.1049 -1.9891
  134SAPE    HB14449   3.251   2.747  10.254 -4.7162 -0.3546  1.9856
  134SAPE    C214450   3.113   2.762  10.098  0.0550  0.2100  0.4319
  134SAPE    HS14451   3.168   2.695  10.028 -1.8431 -1.1039  0.1045
  134SAPE   O2114452   3.024   2.861  10.034  0.2189 -0.3828 -0.4305
  134SAPE   C2114453   3.060   2.891   9.913  0.4706 -0.1815  0.0964
  134SAPE   O2214454   3.164   2.855   9.860 -0.1758  0.2472  0.0693
  134SAPE   C2214455   2.958   2.991   9.852 -0.1842 -0.6085  0.7229
  134SAPE   H2R14456   2.857   2.946   9.851 -1.0804  1.2585  1.8360
  134SAPE   H2S14457   2.959   3.071   9.930 -1.8458 -1.0100  1.2006
  134SAPE    C314458   3.014   2.668  10.170 -0.8959 -0.2721 -0.1152
  134SAPE    HX14459   2.955   2.729  10.240  0.9478  0.3169  1.0044
  134SAPE    HY14460   3.074   2.600  10.235  0.4170  0.3505 -0.6375
  134SAPE   O3114461   2.941   2.572  10.089 -0.1030 -0.0043  0.1518
  134SAPE   C3114462   2.823   2.613  10.043 -0.4798  0.0612  0.8409
  134SAPE   O3214463   2.770   2.719  10.074  0.1053  0.1402 -0.1229
  134SAPE   C3214464   2.749   2.516   9.946  0.1963 -0.1724 -0.3719
  134SAPE   H2X14465   2.642   2.546   9.951  0.1357 -0.5755  1.3578
  134SAPE   H2Y14466   2.760   2.420  10.000  2.6775  1.4898  2.3758
  134SAPE   C2314467   3.010   3.041   9.715  0.0522 -0.3336  0.3596
  134SAPE   H3R14468   2.930   3.094   9.660 -1.8704 -0.1850  3.0580
  134SAPE   H3S14469   3.038   2.951   9.657  3.0435 -0.2628  1.5131
  134SAPE   C2414470   3.121   3.151   9.720  0.0755 -0.3679  0.1788
  134SAPE   H4R14471   3.166   3.143   9.821 -0.5141 -0.4185  0.4434
  134SAPE   H4S14472   3.089   3.257   9.724  1.9017  0.1899  0.8279
  134SAPE   C2514473   3.223   3.122   9.618 -0.3161 -0.2670  0.6995
  134SAPE   H5R14474   3.273   3.024   9.619 -1.6918 -1.0278 -0.8125
  134SAPE   C2614475   3.237   3.203   9.514  0.3156  0.1422  0.2673
  134SAPE   H6R14476   3.298   3.170   9.429 -0.9822  0.0364 -0.6583
  134SAPE   C2714477   3.142   3.329   9.494  0.0463 -0.0190  0.3208
  134SAPE   H7R14478   3.158   3.398   9.580  0.2254  3.4234 -2.2409
  134SAPE   H7S14479   3.037   3.293   9.484  0.4714 -1.5664  1.1126
  134SAPE   C2814480   3.197   3.422   9.381 -1.1034 -0.0561  0.1007
  134SAPE   H8R14481   3.306   3.430   9.375 -1.1631  0.8260  0.0546
  134SAPE   C2914482   3.125   3.483   9.285 -0.8021 -0.2261  0.5510
  134SAPE   H9R14483   3.168   3.549   9.209 -2.8431 -3.0825 -3.4730
  134SAPE  C21014484   2.971   3.482   9.258  0.0396  0.6944  0.3576
  134SAPE  H10R14485   2.920   3.404   9.320  1.4146  1.0283  1.9817
  134SAPE  H10S14486   2.948   3.444   9.156  1.1159  0.8498  0.0410
  134SAPE  C21114487   2.911   3.615   9.281 -0.4995 -0.2247  0.5108
  134SAPE  H11R14488   2.871   3.648   9.378  0.4335  1.3109  0.4051
  134SAPE  C21214489   2.897   3.705   9.183 -0.7845  0.1497  0.2613
  134SAPE  H12R14490   2.866   3.806   9.215  0.5030  0.4781  0.5382
  134SAPE  C21314491   2.927   3.698   9.038  0.0757 -0.1738 -0.4210
  134SAPE  H13R14492   3.012   3.627   9.032  0.0988 -0.6897  3.5563
  134SAPE  H13S14493   2.962   3.794   8.995  0.8837 -0.1314  0.3113
  134SAPE  C21414494   2.822   3.638   8.950  0.5498  0.5047  0.8557
  134SAPE  H14R14495   2.724   3.625   8.999 -1.2216  1.1105 -2.1950
  134SAPE  C21514496   2.826   3.617   8.818  0.3621 -0.4014 -0.9332
  134SAPE  H15R14497   2.731   3.583   8.773  0.1382 -0.0257 -0.7475
  134SAPE  C21614498   2.946   3.639   8.724 -0.4240  0.9393  0.0543
  134SAPE  H16R14499   3.007   3.717   8.774  0.3008 -0.3077  1.1692
  134SAPE  H16S14500   2.919   3.685   8.626  0.2827  0.5930 -0.3130
  134SAPE  C21714501   3.036   3.512   8.699 -0.4774  0.4069  0.7498
  134SAPE  H17R14502   3.111   3.542   8.623 -0.1611  0.2974  1.0162
  134SAPE  H17S14503   2.976   3.426   8.663  1.3959 -0.5589 -0.1796
  134SAPE  C21814504   3.121   3.470   8.821  0.0123 -0.2082  0.0229
  134SAPE  H18R14505   3.055   3.413   8.890 -0.3146  0.2614  0.1027
  134SAPE  H18S14506   3.164   3.562   8.868  2.1290 -1.5569  0.8612
  134SAPE  C21914507   3.238   3.381   8.787 -0.0150 -0.6461 -0.2668
  134SAPE  H19R14508   3.301   3.424   8.706 -2.0875 -1.6349 -2.5029
  134SAPE  H19S14509   3.200   3.290   8.736  0.6157 -1.0062 -0.1121
  134SAPE  C22014510   3.320   3.350   8.915  0.2486 -0.5513  0.3487
  134SAPE  H20R14511   3.371   3.438   8.960  2.4167 -1.6009  0.1140
  134SAPE  H20S14512   3.399   3.274   8.895  1.0863  0.7010 -1.3199
  134SAPE  H20T14513   3.247   3.305   8.986 -0.6470 -1.8991 -1.3534
  134SAPE   C3314514   2.799   2.514   9.802 -0.0249 -0.5334  0.0009
  134SAPE   H3X14515   2.743   2.440   9.741  0.1624 -0.6188 -0.0668
  134SAPE   H3Y14516   2.902   2.475   9.803 -0.9319 -3.1196  0.5594
  134SAPE   C3414517   2.798   2.654   9.738  0.1329  0.2497  0.4340
  134SAPE   H4X14518   2.890   2.709   9.767 -0.1367 -0.8376  3.8355
  134SAPE   H4Y14519   2.712   2.721   9.757 -0.5815 -0.6402  0.4062
  134SAPE   C3514520   2.800   2.654   9.584 -0.1005  0.7332  0.1153
  134SAPE   H5X14521   2.706   2.608   9.547 -0.6811  0.9732  1.2193
  134SAPE   H5Y14522   2.877   2.580   9.553 -2.4399 -1.1908 -1.4746
  134SAPE   C3614523   2.804   2.793   9.513  0.0005  0.7371  0.1900
  134SAPE   H6X14524   2.819   2.872   9.590  0.3593 -0.3514  1.2736
  134SAPE   H6Y14525   2.705   2.824   9.474  0.1215  3.4396  1.8274
  134SAPE   C3714526   2.911   2.803   9.404  0.0763 -0.1127  0.1170
  134SAPE   H7X14527   2.895   2.724   9.327  1.6240 -1.7920  1.4225
  134SAPE   H7Y14528   3.014   2.796   9.446  0.6251  1.4776 -0.8383
  134SAPE   C3814529   2.899   2.932   9.323 -0.0184 -0.3770  0.0308
  134SAPE   H8X14530   2.912   3.016   9.394 -0.8063 -2.0157  2.2277
  134SAPE   H8Y14531   2.801   2.945   9.271 -0.5899  0.5396  1.3106
  134SAPE   C3914532   3.007   2.948   9.219  0.7963 -0.3873  0.4386
  134SAPE   H9X14533   3.010   2.861   9.150 -0.6137  0.5352 -0.8528
  134SAPE   H9Y14534   3.098   2.961   9.283 -0.0073  1.3722  1.2804
  134SAPE  C31014535   2.998   3.069   9.129  0.4023  0.5183 -0.0744
  134SAPE  H10X14536   3.097   3.090   9.084  0.2380  0.7569 -0.3366
  134SAPE  H10Y14537   2.965   3.160   9.183 -0.7111 -0.1920  0.4820
  134SAPE  C31114538   2.898   3.043   9.017  0.0671 -1.0154 -0.0363
  134SAPE  H11X14539   2.798   3.061   9.062 -0.4930  3.1413 -2.4374
  134SAPE  H11Y14540   2.922   2.947   8.968  1.4688 -1.7555  2.0074
  134SAPE  C31214541   2.885   3.150   8.915  0.5768 -0.1798  0.2466
  134SAPE  H12X14542   2.972   3.158   8.847 -0.2904  0.4172 -0.8260
  134SAPE  H12Y14543   2.862   3.234   8.985 -2.3783 -0.9103  0.2945
  134SAPE  C31314544   2.762   3.125   8.823 -0.0262  0.5254  0.2243
  134SAPE  H13X14545   2.668   3.115   8.881 -0.5908  0.5633 -0.6675
  134SAPE  H13Y14546   2.793   3.025   8.785  4.4866  0.9286  2.1961
  134SAPE  C31414547   2.749   3.230   8.707 -0.4072  0.1558 -0.6358
  134SAPE  H14X14548   2.848   3.240   8.658 -0.6807 -1.3700 -1.5682
  134SAPE  H14Y14549   2.713   3.325   8.752 -0.9650 -0.7323  0.8615
  134SAPE  C31514550   2.641   3.173   8.615 -0.0016  0.5908  1.3486
  134SAPE  H15X14551   2.538   3.167   8.655  0.5164 -1.8378  2.5363
  134SAPE  H15Y14552   2.662   3.066   8.595  3.0829  1.3471 -0.0772
  134SAPE  C31614553   2.628   3.249   8.480  0.2678 -0.3807 -0.0158
  134SAPE  H16X14554   2.729   3.261   8.434 -0.6797  1.4892 -1.7543
  134SAPE  H16Y14555   2.587   3.349   8.503  0.9021 -0.1386  0.0958
  134SAPE  C31714556   2.530   3.174   8.389 -0.0832  0.0532 -0.1669
  134SAPE  H17X14557   2.427   3.207   8.417  0.9524  2.6496  0.8927
  134SAPE  H17Y14558   2.536   3.066   8.414  1.0127  0.1868  0.1765
  134SAPE  C31814559   2.565   3.194   8.237  0.0946 -0.4198  0.1266
  134SAPE  H18X14560   2.574   3.302   8.212 -0.5071 -1.1336 -3.7973
  134SAPE  H18Y14561   2.473   3.160   8.184  1.1506 -0.6693 -1.6349
  134SAPE  H18Z14562   2.640   3.129   8.187 -1.2601 -0.2839 -2.2771
  135SAPE     N14563   3.058   0.807  10.690  0.0151 -0.0407 -0.3791
  135SAPE   HN114564   2.998   0.858  10.622  2.4697  0.8393 -2.0001
  135SAPE   HN214565   3.011   0.773  10.776  1.9329 -2.2461 -0.1139
  135SAPE   HN314566   3.141   0.860  10.722 -0.6550  0.9750 -0.2656
  135SAPE   C1214567   3.111   0.677  10.637  0.1650 -0.1094  0.1774
  135SAPE  H12A14568   3.155   0.700  10.537  0.2568  1.7660  0.6082
  135SAPE  H12B14569   3.019   0.619  10.615 -0.9507  1.4082  0.6499
  135SAPE   C1114570   3.220   0.613  10.728  0.2560  0.0204 -0.3957
  135SAPE  H11A14571   3.273   0.536  10.668 -0.1578 -0.0161 -0.7168
  135SAPE  H11B14572   3.164   0.565  10.812 -1.5334  0.8491 -1.0597
  135SAPE     P14573   3.460   0.678  10.795 -0.0663  0.2801  0.6791
  135SAPE   O1314574   3.527   0.812  10.795  0.5877  0.0990  0.7204
  135SAPE   O1414575   3.484   0.585  10.905  1.0355  0.3226  0.1537
  135SAPE   O1214576   3.304   0.708  10.783  0.1774  0.6145 -0.1087
  135SAPE   O1114577   3.495   0.607  10.666  0.4378 -0.0190 -0.0280
  135SAPE    C114578   3.586   0.655  10.570  0.0776  0.1817 -0.1212
  135SAPE    HA14579   3.676   0.695  10.622  0.9761 -0.0797 -1.4096
  135SAPE    HB14580   3.628   0.570  10.512  1.2403  1.1795 -0.8125
  135SAPE    C214581   3.530   0.747  10.467 -0.4399  0.1376 -0.1329
  135SAPE    HS14582   3.481   0.835  10.514  1.4558  0.8101  0.6585
  135SAPE   O2114583   3.434   0.665  10.395 -0.0575 -0.3306 -0.5293
  135SAPE   C2114584   3.341   0.733  10.348 -0.8230 -0.1444 -0.1171
  135SAPE   O2214585   3.312   0.847  10.381  0.6255 -0.6754  0.0052
  135SAPE   C2214586   3.266   0.656  10.243  0.3645 -0.4707  0.3815
  135SAPE   H2R14587   3.330   0.644  10.153 -0.9233 -2.6479 -0.3288
  135SAPE   H2S14588   3.239   0.554  10.277 -1.5259 -0.3330 -0.6080
  135SAPE    C314589   3.633   0.823  10.368 -0.1854 -0.8072 -0.3618
  135SAPE    HX14590   3.691   0.899  10.424  0.8759 -2.5367  0.9793
  135SAPE    HY14591   3.565   0.881  10.302 -0.7787 -1.3660 -0.2582
  135SAPE   O3114592   3.717   0.733  10.295  0.0458  0.4606 -0.2984
  135SAPE   C3114593   3.843   0.739  10.332  0.4743  0.4741  0.1692
  135SAPE   O3214594   3.887   0.801  10.425 -0.4473 -0.1841  0.1743
  135SAPE   C3214595   3.923   0.652  10.218 -0.8617  0.8779 -0.2204
  135SAPE   H2X14596   3.883   0.667  10.116 -0.4750  0.2736 -0.4691
  135SAPE   H2Y14597   3.918   0.545  10.246  3.3093  1.0228  1.9840
  135SAPE   C2314598   3.138   0.729  10.203  0.6659 -0.7859  0.1409
  135SAPE   H3R14599   3.161   0.834  10.176  2.2010 -0.6855  1.7084
  135SAPE   H3S14600   3.073   0.734  10.293  0.0999  2.5462 -0.3422
  135SAPE   C2414601   3.062   0.658  10.088 -0.0785 -0.5866 -0.8490
  135SAPE   H4R14602   2.960   0.702  10.080 -0.3032 -0.5880  1.4210
  135SAPE   H4S14603   3.058   0.548  10.105  0.0284 -0.5817 -0.7917
  135SAPE   C2514604   3.137   0.683   9.958  0.8844  0.1621 -0.3879
  135SAPE   H5R14605   3.246   0.696   9.966  0.7911  0.6538  0.1699
  135SAPE   C2614606   3.076   0.699   9.837 -0.0476 -0.2261  0.4073
  135SAPE   H6R14607   3.142   0.702   9.749 -1.3986 -0.8801 -0.6685
  135SAPE   C2714608   2.930   0.683   9.803  0.2791 -0.0923 -0.2376
  135SAPE   H7R14609   2.870   0.666   9.895  0.6593  0.1784  0.0654
  135SAPE   H7S14610   2.928   0.592   9.739  1.0141  1.7482 -3.0217
  135SAPE   C2814611   2.882   0.815   9.750 -0.7217 -0.5347  0.0178
  135SAPE   H8R14612   2.885   0.899   9.821  1.0527 -0.6099  0.0748
  135SAPE   C2914613   2.841   0.839   9.624 -0.3991 -0.1000  0.0546
  135SAPE   H9R14614   2.803   0.935   9.585 -0.8138 -1.4354 -3.2332
  135SAPE  C21014615   2.851   0.743   9.506  0.7098 -0.4546  0.8590
  135SAPE  H10R14616   2.828   0.641   9.544  0.3355 -0.7333 -0.0952
  135SAPE  H10S14617   2.958   0.730   9.480  0.5212 -4.6338  1.3881
  135SAPE  C21114618   2.746   0.774   9.401 -0.6439  0.0308  0.2659
  135SAPE  H11R14619   2.652   0.820   9.436 -1.4560 -2.3138  1.3406
  135SAPE  C21214620   2.767   0.777   9.267  0.3429 -0.1837 -0.1282
  135SAPE  H12R14621   2.680   0.805   9.206  0.8802 -0.5077 -1.0538
  135SAPE  C21314622   2.899   0.739   9.198  0.2325 -0.5967  0.4592
  135SAPE  H13R14623   2.973   0.695   9.267  0.3956  1.5202  1.7172
  135SAPE  H13S14624   2.946   0.834   9.167  0.2028 -0.5063  0.6912
  135SAPE  C21414625   2.884   0.649   9.074  0.0230  0.6229 -0.0112
  135SAPE  H14R14626   2.841   0.552   9.103  0.7127  0.5869  0.9213
  135SAPE  C21514627   2.901   0.667   8.940 -0.7439 -0.0706  0.0918
  135SAPE  H15R14628   2.885   0.577   8.879  2.0194  0.0545 -0.9569
  135SAPE  C21614629   2.951   0.789   8.865  0.1466  0.2446 -0.1113
  135SAPE  H16R14630   3.049   0.757   8.824 -0.1610  0.2633 -0.8921
  135SAPE  H16S14631   2.951   0.868   8.943 -0.2245  0.9158 -0.7753
  135SAPE  C21714632   2.866   0.849   8.743 -0.1347  0.1190  0.5272
  135SAPE  H17R14633   2.760   0.856   8.776 -0.2786  1.9529 -0.1865
  135SAPE  H17S14634   2.872   0.779   8.657 -0.5334 -0.4858  0.9860
  135SAPE  C21814635   2.920   0.981   8.690  0.8491  0.0195 -0.1883
  135SAPE  H18R14636   2.858   0.999   8.600 -2.5764 -3.0357  1.3404
  135SAPE  H18S14637   3.025   0.965   8.656  1.0673 -0.6964  0.8012
  135SAPE  C21914638   2.913   1.093   8.799 -0.4106  0.3459 -0.0017
  135SAPE  H19R14639   2.943   1.189   8.751  1.6092  1.2363  2.8024
  135SAPE  H19S14640   2.986   1.062   8.876 -0.4346  0.0700 -0.0859
  135SAPE  C22014641   2.776   1.110   8.867 -0.2340 -0.4695 -0.0486
  135SAPE  H20R14642   2.785   1.183   8.950  3.0460  0.3326 -0.9875
  135SAPE  H20S14643   2.736   1.013   8.906 -1.1048 -0.2568 -0.3796
  135SAPE  H20T14644   2.702   1.152   8.795 -0.9552 -0.5138  0.6592
  135SAPE   C3314645   4.074   0.691  10.222 -0.1637  0.4560 -0.0316
  135SAPE   H3X14646   4.099   0.691  10.330 -0.6916  2.2588  0.1249
  135SAPE   H3Y14647   4.095   0.794  10.186 -0.2293  0.3115 -0.4913
  135SAPE   C3414648   4.155   0.586  10.150 -0.6408 -0.4277 -0.4233
  135SAPE   H4X14649   4.127   0.486  10.189  1.1979 -0.9435 -0.3432
  135SAPE   H4Y14650   4.260   0.591  10.186 -0.5214 -1.3446 -0.6178
  135SAPE   C3514651   4.143   0.596   9.998 -0.1197 -0.0696  0.2939
  135SAPE   H5X14652   4.183   0.690   9.954  0.3653 -0.5072 -0.2196
  135SAPE   H5Y14653   4.032   0.595   9.988 -0.2195 -0.8300  1.2761
  135SAPE   C3614654   4.192   0.466   9.930  0.6237  0.1626  0.0015
  135SAPE   H6X14655   4.137   0.377   9.965  0.5985 -0.0315 -0.5199
  135SAPE   H6Y14656   4.300   0.458   9.958  0.3552 -0.0714  0.9767
  135SAPE   C3714657   4.182   0.469   9.773 -0.2866 -0.6614 -0.9890
  135SAPE   H7X14658   4.231   0.373   9.745 -2.1330 -2.0987  0.3975
  135SAPE   H7Y14659   4.247   0.550   9.734  2.1585 -2.0257 -0.0064
  135SAPE   C3814660   4.038   0.468   9.718 -0.4678  0.0905 -0.7552
  135SAPE   H8X14661   3.987   0.566   9.734  2.1056  1.5790 -1.1021
  135SAPE   H8Y14662   3.987   0.388   9.775  1.1610 -1.8725 -1.9310
  135SAPE   C3914663   4.050   0.443   9.575 -0.0682 -0.0989 -0.5050
  135SAPE   H9X14664   4.082   0.338   9.555  0.2730 -0.4251  1.5796
  135SAPE   H9Y14665   4.126   0.512   9.532  0.5086  0.5305  1.4300
  135SAPE  C31014666   3.918   0.478   9.493 -0.3361  1.0636  0.5809
  135SAPE  H10X14667   3.884   0.582   9.514 -2.1582  0.6411 -0.0849
  135SAPE  H10Y14668   3.839   0.401   9.509  0.4834  0.2608  0.8151
  135SAPE  C31114669   3.938   0.477   9.337  0.5407  0.1589 -0.8051
  135SAPE  H11X14670   3.978   0.377   9.310  0.4801 -0.9029  2.5979
  135SAPE  H11Y14671   4.025   0.542   9.314  1.7694 -0.8055  0.9072
  135SAPE  C31214672   3.806   0.505   9.258 -0.2578 -0.2347  0.2471
  135SAPE  H12X14673   3.776   0.612   9.257  3.0452  0.8840  2.3251
  135SAPE  H12Y14674   3.720   0.458   9.311 -2.1246  0.4403 -2.0350
  135SAPE  C31314675   3.815   0.457   9.114 -0.4656  0.2098  0.0341
  135SAPE  H13X14676   3.825   0.348   9.099 -1.1783  0.0024  0.9368
  135SAPE  H13Y14677   3.894   0.511   9.057  0.1138  2.2491  2.5776
  135SAPE  C31414678   3.686   0.491   9.041  0.5856 -0.0053 -0.4671
  135SAPE  H14X14679   3.646   0.595   9.051 -1.9606 -0.7704 -1.8466
  135SAPE  H14Y14680   3.604   0.427   9.080  0.0679  2.2883  2.6854
  135SAPE  C31514681   3.688   0.462   8.893 -0.3781  0.3864 -0.4304
  135SAPE  H15X14682   3.722   0.357   8.883  0.6499  0.8041 -1.6521
  135SAPE  H15Y14683   3.778   0.516   8.858  1.2598 -2.2027 -0.4722
  135SAPE  C31614684   3.568   0.499   8.808 -0.2837 -0.0449  0.2151
  135SAPE  H16X14685   3.543   0.606   8.817  2.1839  0.8414 -2.0820
  135SAPE  H16Y14686   3.481   0.434   8.833 -0.0904 -1.3672 -2.2137
  135SAPE  C31714687   3.602   0.453   8.661  0.5530  0.2702 -0.0707
  135SAPE  H17X14688   3.652   0.355   8.658 -0.7042 -0.3880 -0.3418
  135SAPE  H17Y14689   3.666   0.538   8.628 -0.8604  1.7503  0.7871
  135SAPE  C31814690   3.486   0.472   8.556  0.4603  0.2701 -0.1309
  135SAPE  H18X14691   3.503   0.431   8.454 -1.2220  0.4410 -0.5064
  135SAPE  H18Y14692   3.440   0.573   8.556 -0.7279 -0.2457  0.4085
  135SAPE  H18Z14693   3.400   0.415   8.598 -0.6901  1.3037 -1.0025
  136SAPE     N14694   4.345   1.706  10.839  0.1180  0.0163  0.3551
  136SAPE   HN114695   4.390   1.622  10.795 -0.6581 -1.1579  1.7135
  136SAPE   HN214696   4.394   1.734  10.926 -1.2445 -1.9230  1.8531
  136SAPE   HN314697   4.251   1.668  10.862 -0.2354  1.2718  1.0579
  136SAPE   C1214698   4.325   1.827  10.754  0.0934  0.6456 -0.1268
  136SAPE  H12A14699   4.234   1.808  10.694 -0.6752  0.3422  1.1112
  136SAPE  H12B14700   4.411   1.845  10.686 -0.4454 -1.1357 -1.3572
  136SAPE   C1114701   4.305   1.936  10.857  0.1532  0.5154 -0.4223
  136SAPE  H11A14702   4.231   1.905  10.934  1.4538 -1.8469 -0.0301
  136SAPE  H11B14703   4.265   2.023  10.802 -1.0147  0.3396  0.1278
  136SAPE     P14704   4.445   2.093  11.002 -0.3456 -0.4957  0.2750
  136SAPE   O1314705   4.314   2.133  11.052 -0.3527 -0.4514 -0.1611
  136SAPE   O1414706   4.559   2.080  11.101  0.1978  0.9648  0.7059
  136SAPE   O1214707   4.432   1.955  10.929 -0.1240  0.2734  0.4344
  136SAPE   O1114708   4.487   2.209  10.899 -1.0221  0.1992  0.0526
  136SAPE    C114709   4.419   2.255  10.788 -0.0756  0.3677  0.1236
  136SAPE    HA14710   4.310   2.232  10.783  0.0546  0.0216 -2.8467
  136SAPE    HB14711   4.423   2.366  10.785 -1.1879  0.4166  0.1730
  136SAPE    C214712   4.487   2.222  10.652 -0.4126  0.0470 -0.7967
  136SAPE    HS14713   4.524   2.117  10.653 -1.7227 -0.4771  1.4324
  136SAPE   O2114714   4.595   2.316  10.632 -0.4075 -0.3290 -0.3904
  136SAPE   C2114715   4.694   2.265  10.555  0.4848 -0.0648 -0.3870
  136SAPE   O2214716   4.706   2.143  10.535 -0.4807 -0.5481  0.0912
  136SAPE   C2214717   4.779   2.376  10.502  0.1689  0.2387 -0.2653
  136SAPE   H2R14718   4.717   2.447  10.441  0.5873  1.6350  0.8828
  136SAPE   H2S14719   4.815   2.435  10.588 -1.2476 -0.7695  1.0772
  136SAPE    C314720   4.394   2.238  10.535 -0.6188  0.1210 -0.3788
  136SAPE    HX14721   4.368   2.346  10.525 -1.7340  0.1183  1.9971
  136SAPE    HY14722   4.295   2.194  10.556 -0.1410 -0.8497 -0.1171
  136SAPE   O3114723   4.451   2.198  10.403  0.7149  0.8854 -0.9323
  136SAPE   C3114724   4.442   2.067  10.373 -0.2151 -0.0869  0.1804
  136SAPE   O3214725   4.374   1.989  10.430 -0.3287  0.6603 -0.1622
  136SAPE   C3214726   4.538   2.041  10.256 -0.5502 -0.2366  0.3512
  136SAPE   H2X14727   4.635   2.011  10.302 -0.8603  0.5030  1.5232
  136SAPE   H2Y14728   4.548   2.134  10.196 -3.1215 -0.3936 -0.4153
  136SAPE   C2314729   4.900   2.314  10.432  0.2692  0.5260  0.0474
  136SAPE   H3R14730   4.863   2.259  10.343  1.3032  4.9378 -3.4779
  136SAPE   H3S14731   4.950   2.245  10.504  0.4034  0.2244 -0.3304
  136SAPE   C2414732   4.997   2.435  10.389 -0.1724  0.8511 -0.0998
  136SAPE   H4R14733   5.017   2.494  10.481 -0.5321  0.6680  0.0996
  136SAPE   H4S14734   4.937   2.502  10.324 -2.8577  0.8724  2.1867
  136SAPE   C2514735   5.122   2.383  10.325 -0.6814  0.5326  0.2534
  136SAPE   H5R14736   5.178   2.317  10.393 -1.0448 -0.4531 -0.3836
  136SAPE   C2614737   5.173   2.407  10.201 -0.0448 -0.6752 -0.0409
  136SAPE   H6R14738   5.267   2.359  10.169  1.2465  2.6430 -1.6095
  136SAPE   C2714739   5.110   2.494  10.098  0.2287  0.0668 -0.0909
  136SAPE   H7R14740   5.000   2.480  10.100  0.1357  0.8401  1.4423
  136SAPE   H7S14741   5.137   2.436  10.007  1.0578  0.3455 -0.0262
  136SAPE   C2814742   5.145   2.643  10.097 -0.3040 -0.7314 -0.1445
  136SAPE   H8R14743   5.132   2.688  10.196  0.2254 -4.5534  1.8682
  136SAPE   C2914744   5.195   2.710   9.995 -0.0947 -0.4778  0.1580
  136SAPE   H9R14745   5.222   2.815  10.010  0.2988 -0.6405  0.6170
  136SAPE  C21014746   5.221   2.660   9.856 -0.0034 -0.5268  0.6306
  136SAPE  H10R14747   5.188   2.557   9.831 -0.9795 -0.0480 -0.1507
  136SAPE  H10S14748   5.327   2.678   9.829  0.3487 -1.5055  1.3215
  136SAPE  C21114749   5.141   2.743   9.753 -0.5884 -0.1767  0.3058
  136SAPE  H11R14750   5.050   2.787   9.796 -0.7070 -2.4950  2.7241
  136SAPE  C21214751   5.168   2.756   9.616 -0.6479 -0.2584 -0.1198
  136SAPE  H12R14752   5.115   2.828   9.552  2.1978  2.0250 -0.1501
  136SAPE  C21314753   5.277   2.679   9.542  0.6097 -0.3374  0.7964
  136SAPE  H13R14754   5.220   2.608   9.479  0.1471 -0.3945  1.2716
  136SAPE  H13S14755   5.337   2.626   9.619 -2.1075 -0.2726  3.1405
  136SAPE  C21414756   5.376   2.773   9.473 -0.0098  0.3006 -0.1620
  136SAPE  H14R14757   5.425   2.850   9.535 -0.1663  0.7075 -0.5400
  136SAPE  C21514758   5.392   2.770   9.338  0.0778  0.0775 -0.0802
  136SAPE  H15R14759   5.457   2.847   9.294 -2.2538  2.5445  0.5915
  136SAPE  C21614760   5.316   2.681   9.248 -0.0710  0.1333 -0.2598
  136SAPE  H16R14761   5.210   2.715   9.246 -0.0681  0.9257  3.7453
  136SAPE  H16S14762   5.322   2.577   9.288  0.0047  0.8277  1.6305
  136SAPE  C21714763   5.357   2.687   9.101  0.4489  0.4543 -0.1554
  136SAPE  H17R14764   5.337   2.792   9.070  0.6110 -0.0266 -1.9988
  136SAPE  H17S14765   5.287   2.626   9.041 -0.4022  1.1686  0.0973
  136SAPE  C21814766   5.501   2.642   9.076 -0.0526 -0.5727  0.1385
  136SAPE  H18R14767   5.527   2.549   9.132 -0.5161 -0.8614 -0.1177
  136SAPE  H18S14768   5.566   2.719   9.121 -1.3466  0.9007 -0.4370
  136SAPE  C21914769   5.538   2.623   8.928  0.2483  0.5403 -0.6054
  136SAPE  H19R14770   5.647   2.621   8.909  0.0887  0.6729 -1.5743
  136SAPE  H19S14771   5.498   2.703   8.862  2.2831  0.2643 -2.2638
  136SAPE  C22014772   5.483   2.492   8.868  0.4905 -0.1993 -0.0196
  136SAPE  H20R14773   5.561   2.446   8.804  2.0787  0.9313  1.0208
  136SAPE  H20S14774   5.400   2.502   8.794 -0.4101 -0.1471  0.9601
  136SAPE  H20T14775   5.450   2.415   8.940 -2.5552  1.0467  0.0754
  136SAPE   C3314776   4.480   1.931  10.161  0.0402 -1.0258 -0.2116
  136SAPE   H3X14777   4.440   1.848  10.223  1.0651 -1.9094 -0.6948
  136SAPE   H3Y14778   4.555   1.884  10.094 -0.9703 -0.4125 -1.8336
  136SAPE   C3414779   4.372   1.992  10.069  0.4724 -0.1695  0.1285
  136SAPE   H4X14780   4.402   2.093  10.036 -2.0430  0.3034 -1.0159
  136SAPE   H4Y14781   4.273   1.999  10.120 -0.0663 -1.7754 -0.6105
  136SAPE   C3514782   4.353   1.916   9.940  0.0197  0.4256 -0.0577
  136SAPE   H5X14783   4.363   1.805   9.943  0.2961  0.3956  4.0753
  136SAPE   H5Y14784   4.440   1.943   9.876  0.6948 -1.6092 -0.0623
  136SAPE   C3614785   4.229   1.955   9.872  0.2779  0.0354 -0.6812
  136SAPE   H6X14786   4.226   2.066   9.864  0.9885  0.2514  1.5456
  136SAPE   H6Y14787   4.140   1.925   9.931  0.0283 -2.6940 -2.2962
  136SAPE   C3714788   4.220   1.881   9.737  0.1053  0.0324 -0.5081
  136SAPE   H7X14789   4.187   1.776   9.749  2.0397 -0.4629  0.8199
  136SAPE   H7Y14790   4.314   1.887   9.678  0.3058 -1.3654 -0.3502
  136SAPE   C3814791   4.103   1.950   9.655  0.3361 -0.6885  0.0920
  136SAPE   H8X14792   4.109   2.058   9.680  2.0864 -1.2037  2.2037
  136SAPE   H8Y14793   4.009   1.918   9.704 -0.4254  1.5453  0.1895
  136SAPE   C3914794   4.112   1.937   9.507 -1.1803 -0.0590  0.7099
  136SAPE   H9X14795   4.151   1.840   9.467 -1.6263  0.3031 -0.6369
  136SAPE   H9Y14796   4.181   2.013   9.465 -0.8605 -0.4693  0.4753
  136SAPE  C31014797   3.974   1.955   9.442 -0.0936 -0.1527 -0.8222
  136SAPE  H10X14798   3.912   2.043   9.465  0.1488  0.1136 -1.1839
  136SAPE  H10Y14799   3.915   1.870   9.484 -0.2368  0.3354 -0.0211
  136SAPE  C31114800   3.986   1.955   9.291  0.6942  0.1109  0.3452
  136SAPE  H11X14801   4.029   1.856   9.266 -0.3161 -0.9370  2.5320
  136SAPE  H11Y14802   4.057   2.037   9.267 -1.2942  1.2507 -2.1062
  136SAPE  C31214803   3.849   1.988   9.225  0.6447 -0.9870  0.1600
  136SAPE  H12X14804   3.811   2.090   9.247  2.4440 -0.0237 -1.0265
  136SAPE  H12Y14805   3.773   1.918   9.266  1.1855  0.1791  3.4307
  136SAPE  C31314806   3.841   1.963   9.072 -0.1951 -1.1589 -0.4137
  136SAPE  H13X14807   3.735   1.967   9.040 -0.1998  0.8549 -0.2635
  136SAPE  H13Y14808   3.870   1.858   9.050 -2.4624 -1.7552 -0.7802
  136SAPE  C31414809   3.906   2.075   8.979 -0.0167  0.3353 -0.1718
  136SAPE  H14X14810   3.893   2.051   8.872 -0.9729  1.9279 -0.4298
  136SAPE  H14Y14811   4.015   2.080   9.001 -0.3352 -0.6194  1.9674
  136SAPE  C31514812   3.855   2.217   9.012  0.5699 -0.0817  0.4446
  136SAPE  H15X14813   3.901   2.262   9.102  1.0131 -0.2822  0.3212
  136SAPE  H15Y14814   3.745   2.210   9.026  0.5081  0.2284  0.1155
  136SAPE  C31614815   3.889   2.318   8.902 -0.4503 -0.0813 -0.0168
  136SAPE  H16X14816   4.000   2.319   8.889 -0.1007 -0.2896  2.4763
  136SAPE  H16Y14817   3.852   2.419   8.932  0.0452  0.3785 -0.9082
  136SAPE  C31714818   3.830   2.283   8.763 -0.0746  0.4107  0.1481
  136SAPE  H17X14819   3.719   2.274   8.774 -0.4138 -0.3605 -2.8733
  136SAPE  H17Y14820   3.857   2.184   8.719  1.0593  1.5706 -1.9166
  136SAPE  C31814821   3.856   2.395   8.667 -0.9208 -0.8149  0.4523
  136SAPE  H18X14822   3.937   2.361   8.599 -1.6604 -1.0571 -0.3227
  136SAPE  H18Y14823   3.883   2.489   8.720 -2.0814 -0.1008 -0.1851
  136SAPE  H18Z14824   3.770   2.399   8.598 -0.4096  0.1892 -0.1394
  137SAPE     N14825   3.933   5.024  11.039 -0.3634 -0.0692  0.2589
  137SAPE   HN114826   3.938   4.926  11.007  1.3101  0.2569 -0.5951
  137SAPE   HN214827   4.019   5.043  11.096 -0.1327 -3.6761  1.3276
  137SAPE   HN314828   3.852   5.032  11.104 -0.1843 -2.1621  0.7982
  137SAPE   C1214829   3.909   5.120  10.929  0.3958  0.4938 -0.4284
  137SAPE  H12A14830   3.994   5.106  10.859  1.0121  1.3239  0.1367
  137SAPE  H12B14831   3.904   5.227  10.958 -1.7358  0.7037 -1.3397
  137SAPE   C1114832   3.765   5.101  10.872  0.5004  0.3819  0.0695
  137SAPE  H11A14833   3.740   5.180  10.797 -2.7700  0.2612  0.8851
  137SAPE  H11B14834   3.698   5.110  10.960  1.2009  0.3405  0.6152
  137SAPE     P14835   3.620   4.935  10.739  0.2453 -0.0501  0.0940
  137SAPE   O1314836   3.652   4.827  10.647 -0.3938 -0.6702 -0.2605
  137SAPE   O1414837   3.513   4.913  10.838 -0.0284  0.2551 -0.2400
  137SAPE   O1214838   3.749   4.966  10.816 -0.5613 -0.2955 -0.3556
  137SAPE   O1114839   3.587   5.072  10.663 -0.2019  0.1942  0.9445
  137SAPE    C114840   3.457   5.116  10.625  0.4487 -0.2031  0.2243
  137SAPE    HA14841   3.389   5.029  10.614 -0.7362  0.6546  0.5048
  137SAPE    HB14842   3.419   5.175  10.711 -1.0165 -0.1034 -0.4590
  137SAPE    C214843   3.452   5.200  10.492 -0.4213 -0.7145 -0.1689
  137SAPE    HS14844   3.347   5.230  10.468 -0.5712 -1.0818  0.0243
  137SAPE   O2114845   3.516   5.126  10.380  0.2695  0.5413 -0.0111
  137SAPE   C2114846   3.441   5.110  10.273  0.3443  0.1345 -0.7329
  137SAPE   O2214847   3.317   5.116  10.267  0.3529  0.2683 -0.0751
  137SAPE   C2214848   3.526   5.056  10.158  0.0843 -0.0519  0.4596
  137SAPE   H2R14849   3.592   5.142  10.133 -0.2457  0.2264  0.5478
  137SAPE   H2S14850   3.579   4.963  10.186 -0.7419 -0.5713  0.3416
  137SAPE    C314851   3.532   5.330  10.511  0.0686  0.0373  0.2563
  137SAPE    HX14852   3.637   5.295  10.515 -0.0021 -0.1028  1.2932
  137SAPE    HY14853   3.517   5.380  10.610 -2.4826 -2.1385  1.0534
  137SAPE   O3114854   3.510   5.419  10.404  0.1281 -0.3341 -0.4978
  137SAPE   C3114855   3.579   5.526  10.414 -0.9121 -0.2658 -0.1794
  137SAPE   O3214856   3.667   5.559  10.499  0.4809  0.7279 -0.0477
  137SAPE   C3214857   3.547   5.617  10.290 -0.7809  0.1103  0.9174
  137SAPE   H2X14858   3.633   5.684  10.269  0.0604 -1.2917 -0.3887
  137SAPE   H2Y14859   3.462   5.678  10.326 -0.6995  0.3312  0.7349
  137SAPE   C2314860   3.446   5.009  10.037  0.4465  0.3178 -0.5364
  137SAPE   H3R14861   3.366   5.085  10.021  0.6116  0.3324 -1.3570
  137SAPE   H3S14862   3.383   4.920  10.056 -0.5065  0.5410 -2.3815
  137SAPE   C2414863   3.527   4.994   9.911 -0.0582 -0.5939 -0.8301
  137SAPE   H4R14864   3.604   5.072   9.891 -0.5623 -0.6016 -3.1708
  137SAPE   H4S14865   3.451   4.990   9.830  0.1690 -2.3862 -0.9975
  137SAPE   C2514866   3.584   4.857   9.922  0.9302  0.2667  0.0241
  137SAPE   H5R14867   3.627   4.842  10.023  0.8178 -1.2332 -0.1279
  137SAPE   C2614868   3.580   4.758   9.827 -0.0830 -0.8511  0.1088
  137SAPE   H6R14869   3.616   4.657   9.846 -0.1368 -1.2230 -1.6024
  137SAPE   C2714870   3.535   4.774   9.680 -0.3037  0.4293  0.2253
  137SAPE   H7R14871   3.613   4.722   9.620  0.2173 -1.8096  2.6522
  137SAPE   H7S14872   3.540   4.883   9.657 -0.7875  0.8567  1.9793
  137SAPE   C2814873   3.398   4.723   9.650 -0.3440 -0.2523 -0.0920
  137SAPE   H8R14874   3.330   4.759   9.728  2.1962  2.5073  1.0510
  137SAPE   C2914875   3.355   4.666   9.536 -0.1943  0.3406 -0.1241
  137SAPE   H9R14876   3.247   4.648   9.528  0.0026 -0.8158 -0.2516
  137SAPE  C21014877   3.442   4.643   9.418  0.2093  0.2311 -0.0640
  137SAPE  H10R14878   3.502   4.735   9.403 -0.4406  0.7832  0.6395
  137SAPE  H10S14879   3.377   4.643   9.327 -0.0903  0.1663  0.1484
  137SAPE  C21114880   3.530   4.525   9.422  0.1517  0.6738  0.3087
  137SAPE  H11R14881   3.561   4.479   9.517 -0.2114 -2.4053 -0.9309
  137SAPE  C21214882   3.564   4.458   9.312 -0.0734 -0.0038 -0.5553
  137SAPE  H12R14883   3.658   4.402   9.321 -0.6545 -0.9036  0.0533
  137SAPE  C21314884   3.523   4.486   9.167 -0.4247 -0.2024  0.0798
  137SAPE  H13R14885   3.595   4.438   9.097 -0.0345 -2.5202  1.9581
  137SAPE  H13S14886   3.544   4.594   9.148  0.6059 -0.2274  0.9613
  137SAPE  C21414887   3.386   4.458   9.115  0.1246 -0.2506  0.0257
  137SAPE  H14R14888   3.303   4.523   9.148  0.5951 -0.1988  1.1593
  137SAPE  C21514889   3.359   4.350   9.040 -0.0040 -0.1259  0.8831
  137SAPE  H15R14890   3.252   4.325   9.030  0.4740 -2.0360  0.2139
  137SAPE  C21614891   3.450   4.254   8.984 -0.5133  0.5074 -0.1228
  137SAPE  H16R14892   3.402   4.154   8.985 -0.5988  0.5288 -1.1364
  137SAPE  H16S14893   3.540   4.243   9.048 -1.8743 -1.3027  1.5677
  137SAPE  C21714894   3.487   4.304   8.840 -0.2789 -0.2043 -0.4249
  137SAPE  H17R14895   3.537   4.403   8.846  0.5379 -0.6595  3.8466
  137SAPE  H17S14896   3.394   4.324   8.783 -0.5687  1.5132  0.5906
  137SAPE  C21814897   3.582   4.215   8.752 -0.1197 -0.4343  0.3974
  137SAPE  H18R14898   3.649   4.156   8.819  1.3415 -0.1369 -0.7379
  137SAPE  H18S14899   3.639   4.287   8.688 -1.3776  0.6256  0.4471
  137SAPE  C21914900   3.511   4.104   8.674  0.1901  0.1482  0.3286
  137SAPE  H19R14901   3.448   4.039   8.738  1.0581 -3.2412 -2.0112
  137SAPE  H19S14902   3.587   4.041   8.623 -2.3644 -3.1107  0.1668
  137SAPE  C22014903   3.415   4.152   8.556 -0.1058 -0.3767 -0.4932
  137SAPE  H20R14904   3.385   4.072   8.486  2.7098  0.1751 -2.5151
  137SAPE  H20S14905   3.477   4.216   8.489 -0.4013  0.2275 -0.2048
  137SAPE  H20T14906   3.326   4.207   8.593 -1.7766 -2.3509 -1.4114
  137SAPE   C3314907   3.524   5.549  10.148  0.2032  0.2488 -0.3296
  137SAPE   H3X14908   3.597   5.467  10.135 -1.5536 -1.3136 -0.6492
  137SAPE   H3Y14909   3.545   5.633  10.079 -0.1444  1.9950  1.5735
  137SAPE   C3414910   3.388   5.482  10.118 -0.5292 -0.3061 -0.1559
  137SAPE   H4X14911   3.317   5.567  10.122 -2.2646 -1.7609  1.5296
  137SAPE   H4Y14912   3.364   5.417  10.205 -1.2650  1.9923  1.4423
  137SAPE   C3514913   3.385   5.409   9.987 -0.5964  0.4601 -0.1450
  137SAPE   H5X14914   3.282   5.374   9.962 -0.2569  1.2958 -3.1197
  137SAPE   H5Y14915   3.455   5.323   9.997  0.3375  1.2354  0.0986
  137SAPE   C3614916   3.423   5.491   9.867 -0.4893  0.8985 -0.4968
  137SAPE   H6X14917   3.523   5.532   9.889 -0.1726 -0.6163  1.0899
  137SAPE   H6Y14918   3.352   5.576   9.860 -1.4433  0.1301 -0.4581
  137SAPE   C3714919   3.409   5.406   9.738 -0.1337 -0.4512  0.6283
  137SAPE   H7X14920   3.300   5.385   9.729 -0.8765  2.2199  2.2054
  137SAPE   H7Y14921   3.459   5.307   9.741 -0.6195 -0.6859  1.1519
  137SAPE   C3814922   3.463   5.480   9.610 -0.3787  0.6264  0.6194
  137SAPE   H8X14923   3.573   5.492   9.614 -0.0656 -0.8746 -1.4176
  137SAPE   H8Y14924   3.423   5.584   9.615 -1.7229  0.4096 -2.6569
  137SAPE   C3914925   3.419   5.424   9.469 -0.3353  0.1497 -0.4722
  137SAPE   H9X14926   3.308   5.421   9.464 -0.3024 -0.7247 -1.0995
  137SAPE   H9Y14927   3.444   5.315   9.473 -0.4479  0.0629 -1.6581
  137SAPE  C31014928   3.483   5.486   9.336  0.0947  0.5284  0.1663
  137SAPE  H10X14929   3.588   5.451   9.329 -0.7941 -2.8606  1.6856
  137SAPE  H10Y14930   3.472   5.596   9.346  0.9973  0.4672  2.5274
  137SAPE  C31114931   3.410   5.442   9.206 -0.1492 -0.0524 -0.4156
  137SAPE  H11X14932   3.305   5.479   9.202  0.1185  1.0341  1.3397
  137SAPE  H11Y14933   3.402   5.331   9.210  0.9106 -0.1398  3.2088
  137SAPE  C31214934   3.483   5.476   9.072 -0.1409  0.4666  0.2966
  137SAPE  H12X14935   3.429   5.413   8.998  0.0223  0.5903  0.0700
  137SAPE  H12Y14936   3.591   5.450   9.068 -0.5644 -1.3862  0.3397
  137SAPE  C31314937   3.468   5.626   9.041 -0.2853  0.0391  0.2315
  137SAPE  H13X14938   3.551   5.684   9.085  1.3321 -0.7620 -1.6308
  137SAPE  H13Y14939   3.375   5.646   9.098 -0.6331 -0.9074  0.0293
  137SAPE  C31414940   3.440   5.668   8.887 -0.6215  0.2124  0.1291
  137SAPE  H14X14941   3.404   5.773   8.880 -1.3909 -0.1467 -2.1503
  137SAPE  H14Y14942   3.351   5.605   8.869 -1.5215  1.3905  0.3492
  137SAPE  C31514943   3.558   5.633   8.792  0.8200  0.1039  0.5493
  137SAPE  H15X14944   3.595   5.529   8.807 -2.0517 -1.2618 -0.9901
  137SAPE  H15Y14945   3.644   5.700   8.811  1.8174 -1.6709  2.7703
  137SAPE  C31614946   3.509   5.654   8.650  0.4169 -0.1038  0.3098
  137SAPE  H16X14947   3.398   5.647   8.655  0.3623 -1.0072 -1.2141
  137SAPE  H16Y14948   3.543   5.570   8.585 -0.8502 -1.3257  1.1709
  137SAPE  C31714949   3.550   5.778   8.578 -0.5396 -0.1794  1.7293
  137SAPE  H17X14950   3.660   5.785   8.570 -0.7044  1.3916  0.3701
  137SAPE  H17Y14951   3.521   5.866   8.639 -2.1177  0.7680 -0.2662
  137SAPE  C31814952   3.485   5.794   8.438 -0.3175  0.1780  0.5441
  137SAPE  H18X14953   3.377   5.816   8.451 -0.3272 -0.2370  1.2171
  137SAPE  H18Y14954   3.487   5.703   8.374  0.1113  0.5804 -0.0260
  137SAPE  H18Z14955   3.548   5.873   8.392 -0.8706  1.0461  1.2504
  138SAPE     N14956   0.667   5.380  11.187 -0.0126 -0.0258  0.4646
  138SAPE   HN114957   0.606   5.362  11.269 -1.8394  0.4495 -0.7222
  138SAPE   HN214958   0.614   5.345  11.104  2.0051 -0.4219 -0.7151
  138SAPE   HN314959   0.759   5.332  11.178  0.4227  0.5300  1.7634
  138SAPE   C1214960   0.697   5.528  11.191  0.1309 -0.1170 -0.1269
  138SAPE  H12A14961   0.752   5.549  11.285 -1.7105 -0.9138  1.1905
  138SAPE  H12B14962   0.600   5.580  11.208  0.6274  0.5927  0.6108
  138SAPE   C1114963   0.781   5.581  11.069  0.7827  0.1966  0.4701
  138SAPE  H11A14964   0.887   5.547  11.080  1.4203  1.9482  0.0199
  138SAPE  H11B14965   0.790   5.691  11.081 -1.6442  0.3735  0.9678
  138SAPE     P14966   0.802   5.471  10.821  0.0595 -0.6507  0.0260
  138SAPE   O1314967   0.830   5.335  10.863 -0.3651 -0.4074 -0.6574
  138SAPE   O1414968   0.710   5.493  10.704 -0.6370 -0.2890  0.0050
  138SAPE   O1214969   0.733   5.547  10.942 -0.4830 -0.3145 -0.1062
  138SAPE   O1114970   0.934   5.558  10.802  0.3682  0.5635  0.1656
  138SAPE    C114971   0.924   5.698  10.786  0.5726  0.0737  0.0821
  138SAPE    HA14972   0.823   5.741  10.801  0.6939  1.8914 -3.2383
  138SAPE    HB14973   1.001   5.751  10.846 -1.3430  1.0125  1.8582
  138SAPE    C214974   0.962   5.742  10.639  0.0867  0.0332 -0.1307
  138SAPE    HS14975   0.963   5.853  10.639  0.1923  0.0555  1.2158
  138SAPE   O2114976   0.870   5.688  10.554 -0.0940 -0.2338  0.6214
  138SAPE   C2114977   0.754   5.749  10.546 -0.0244 -1.1114 -0.2707
  138SAPE   O2214978   0.723   5.858  10.592 -0.1598  0.2395 -0.2564
  138SAPE   C2214979   0.654   5.683  10.450  0.2410 -0.1396 -0.4294
  138SAPE   H2R14980   0.642   5.577  10.478 -3.2808  0.0086 -0.9944
  138SAPE   H2S14981   0.558   5.739  10.448 -0.8960 -2.0132 -1.9546
  138SAPE    C314982   1.103   5.690  10.596  0.5679 -0.2288  0.2078
  138SAPE    HX14983   1.108   5.579  10.608 -1.0945 -0.2630  0.9696
  138SAPE    HY14984   1.179   5.721  10.671  0.2400 -0.7078  0.7540
  138SAPE   O3114985   1.146   5.731  10.459  0.2923  0.3524 -0.5680
  138SAPE   C3114986   1.142   5.645  10.363 -0.4203  0.0191  0.4309
  138SAPE   O3214987   1.093   5.536  10.373  0.2756 -0.1339  0.0901
  138SAPE   C3214988   1.184   5.712  10.234 -0.4136  0.2176 -0.3572
  138SAPE   H2X14989   1.276   5.775  10.240 -2.1805  2.9804 -0.7376
  138SAPE   H2Y14990   1.108   5.788  10.204 -0.3271  0.4764  0.0650
  138SAPE   C2314991   0.701   5.684  10.302 -0.4747 -0.4272 -0.5472
  138SAPE   H3R14992   0.649   5.595  10.260 -1.4481  0.6607 -1.7285
  138SAPE   H3S14993   0.810   5.665  10.309 -0.3559  0.3260 -0.3178
  138SAPE   C2414994   0.668   5.794  10.213  0.2707 -0.2564  0.2150
  138SAPE   H4R14995   0.687   5.895  10.254  0.3157 -0.1868  0.0268
  138SAPE   H4S14996   0.561   5.796  10.184  0.5565  1.0499 -0.9164
  138SAPE   C2514997   0.741   5.783  10.077  0.6351 -0.0241 -0.0911
  138SAPE   H5R14998   0.844   5.820  10.090  0.9964 -1.5100  1.8476
  138SAPE   C2614999   0.692   5.751   9.957  0.2237  0.2160 -1.2187
  138SAPE   H6R15000   0.762   5.743   9.873  2.8650 -0.3171  0.8776
  138SAPE   C2715001   0.549   5.708   9.913 -0.5081 -0.6147  0.1960
  138SAPE   H7R15002   0.507   5.645   9.995  1.7314 -0.5767  1.4420
  138SAPE   H7S15003   0.553   5.639   9.826 -1.6258 -1.0970  0.4958
  138SAPE   C2815004   0.473   5.831   9.881  0.1759 -0.1263  0.0512
  138SAPE   H8R15005   0.476   5.907   9.961 -1.8484  0.2831 -0.2023
  138SAPE   C2915006   0.423   5.869   9.766 -0.3286 -0.4651 -0.2093
  138SAPE   H9R15007   0.387   5.972   9.754  0.7373 -0.1261 -0.6904
  138SAPE  C21015008   0.430   5.796   9.643  0.1263 -0.2274  0.2936
  138SAPE  H10R15009   0.390   5.694   9.664 -0.2635 -0.1077  0.1421
  138SAPE  H10S15010   0.535   5.790   9.606  0.4107 -1.0351  1.1697
  138SAPE  C21115011   0.353   5.854   9.529  0.1987 -0.3231 -0.5868
  138SAPE  H11R15012   0.260   5.907   9.554 -0.1355 -0.9523 -0.4668
  138SAPE  C21215013   0.388   5.837   9.399  0.4111  0.0882 -0.3726
  138SAPE  H12R15014   0.329   5.884   9.319  0.4836  2.1128  0.7125
  138SAPE  C21315015   0.504   5.757   9.336  0.3810 -0.3363  1.0274
  138SAPE  H13R15016   0.530   5.670   9.400 -2.0886 -2.2423 -0.4219
  138SAPE  H13S15017   0.595   5.821   9.330  1.1555 -1.4121  1.0155
  138SAPE  C21415018   0.450   5.697   9.212 -0.7364  0.5754 -0.0845
  138SAPE  H14R15019   0.422   5.591   9.209 -0.6854  0.5766 -0.9064
  138SAPE  C21515020   0.460   5.756   9.087  0.2455 -0.0927 -0.2285
  138SAPE  H15R15021   0.432   5.702   8.995 -2.1253  1.1750 -0.3346
  138SAPE  C21615022   0.514   5.894   9.061 -0.1634 -0.4776  0.5042
  138SAPE  H16R15023   0.599   5.911   9.130  0.1772  1.6933 -0.3698
  138SAPE  H16S15024   0.451   5.974   9.107  1.6050  0.2765  1.7163
  138SAPE  C21715025   0.550   5.931   8.916 -0.4210 -0.5475 -0.1766
  138SAPE  H17R15026   0.596   5.845   8.863 -0.0819 -0.7164  0.3769
  138SAPE  H17S15027   0.634   6.004   8.917  0.2260 -1.2390 -1.5776
  138SAPE  C21815028   0.427   5.991   8.845  0.3297  0.4713  0.3882
  138SAPE  H18R15029   0.385   6.082   8.893 -1.6840  0.7614 -1.7773
  138SAPE  H18S15030   0.346   5.915   8.850 -1.6626  2.3906 -1.1174
  138SAPE  C21915031   0.456   6.034   8.709 -0.7942 -0.2429 -0.3073
  138SAPE  H19R15032   0.477   5.943   8.649  0.2132  0.5669 -1.2422
  138SAPE  H19S15033   0.544   6.102   8.721  0.6194 -2.2238  1.2268
  138SAPE  C22015034   0.337   6.100   8.641  0.2129  0.4597  0.2605
  138SAPE  H20R15035   0.290   6.186   8.694 -0.9440 -1.0494  1.8125
  138SAPE  H20S15036   0.251   6.030   8.639  0.9814 -0.7265  3.1252
  138SAPE  H20T15037   0.362   6.128   8.537  0.0258  1.9324  0.5881
  138SAPE   C3315038   1.195   5.611  10.120  0.6426  0.1532 -0.7858
  138SAPE   H3X15039   1.097   5.558  10.115  1.3128 -1.1202 -0.4928
  138SAPE   H3Y15040   1.279   5.544  10.146  1.3297  0.9727 -0.8440
  138SAPE   C3415041   1.217   5.686   9.992  1.3728 -0.2004 -0.4002
  138SAPE   H4X15042   1.308   5.641   9.947 -0.1762 -1.3624 -2.5503
  138SAPE   H4Y15043   1.236   5.793  10.017 -1.8354  0.9023 -2.1254
  138SAPE   C3515044   1.102   5.669   9.899  0.2401  0.7640 -0.0521
  138SAPE   H5X15045   1.017   5.728   9.940 -0.2668 -0.8627  1.3414
  138SAPE   H5Y15046   1.077   5.561   9.898  1.8240  0.3464  1.1712
  138SAPE   C3615047   1.129   5.718   9.759  0.6549  0.3514 -0.4363
  138SAPE   H6X15048   1.230   5.684   9.726  1.6919 -0.2289  2.8812
  138SAPE   H6Y15049   1.144   5.827   9.767  1.9664  0.1033  1.1934
  138SAPE   C3715050   1.002   5.712   9.666  0.5577 -0.4822  0.1119
  138SAPE   H7X15051   0.918   5.751   9.727 -2.4960 -4.2735 -1.2836
  138SAPE   H7Y15052   0.973   5.605   9.670  0.2280 -0.4081 -0.2691
  138SAPE   C3815053   1.040   5.775   9.538  0.2803 -0.6279 -0.0441
  138SAPE   H8X15054   1.122   5.706   9.510  0.6891 -1.5563  3.0552
  138SAPE   H8Y15055   1.078   5.879   9.544 -1.3138  0.0297 -0.7227
  138SAPE   C3915056   0.936   5.769   9.423 -0.1369 -0.5420  0.7692
  138SAPE   H9X15057   0.840   5.799   9.470 -1.7232 -2.7294 -0.8649
  138SAPE   H9Y15058   0.924   5.665   9.385  1.2601 -1.4152  2.5406
  138SAPE  C31015059   0.970   5.863   9.314 -0.0818  0.0639  0.7546
  138SAPE  H10X15060   1.075   5.852   9.280 -0.5297  0.4742 -0.8758
  138SAPE  H10Y15061   0.963   5.965   9.358 -2.3315  0.0691  0.5232
  138SAPE  C31115062   0.872   5.843   9.189 -0.5294  0.0849 -0.0638
  138SAPE  H11X15063   0.830   5.934   9.141  0.1167  0.0627 -0.6850
  138SAPE  H11Y15064   0.784   5.788   9.228  0.6384 -1.1827  0.8772
  138SAPE  C31215065   0.937   5.751   9.084  0.5704 -0.4504 -0.6142
  138SAPE  H12X15066   0.851   5.742   9.014 -0.0568 -0.5773  0.1669
  138SAPE  H12Y15067   0.944   5.649   9.127 -1.3669 -0.2210  0.3524
  138SAPE  C31315068   1.061   5.798   9.009  0.6196 -0.4099 -0.1230
  138SAPE  H13X15069   1.083   5.743   8.915  0.3415  0.7907 -0.9044
  138SAPE  H13Y15070   1.146   5.784   9.079  0.5016  2.4025  0.7231
  138SAPE  C31415071   1.070   5.949   8.975  0.8360  0.0132 -0.2075
  138SAPE  H14X15072   1.155   5.973   8.908  2.3636  0.6599  1.8655
  138SAPE  H14Y15073   1.075   6.019   9.061 -2.4543 -0.7731  0.7883
  138SAPE  C31515074   0.954   5.994   8.875  0.4403  0.5339  0.0931
  138SAPE  H15X15075   0.967   6.097   8.836  0.6190  0.4493 -0.0767
  138SAPE  H15Y15076   0.861   5.985   8.935  0.1568 -0.3685 -0.4564
  138SAPE  C31615077   0.945   5.896   8.753  0.1134 -0.4025 -0.3906
  138SAPE  H16X15078   0.903   5.795   8.774 -2.9409  1.2508  2.4099
  138SAPE  H16Y15079   1.048   5.888   8.711 -0.3999  0.6818 -1.9190
  138SAPE  C31715080   0.875   5.957   8.637  0.0069  0.5662  0.4560
  138SAPE  H17X15081   0.771   5.991   8.659  0.0437  0.8912  0.1480
  138SAPE  H17Y15082   0.866   5.877   8.561  1.9448  0.3858  0.3720
  138SAPE  C31815083   0.944   6.079   8.566  0.4878 -0.8564 -0.9193
  138SAPE  H18X15084   1.047   6.043   8.546  1.0105 -1.0547  1.7367
  138SAPE  H18Y15085   0.944   6.159   8.643 -0.1975 -0.4424 -1.3413
  138SAPE  H18Z15086   0.885   6.110   8.478 -0.4472  0.5295  0.1467
  139SAPE     N15087   0.459   4.797  10.870  0.5798  0.2129 -0.1910
  139SAPE   HN115088   0.460   4.890  10.918  0.9054  0.1703 -0.1191
  139SAPE   HN215089   0.403   4.809  10.783 -0.9706 -0.3483  0.6728
  139SAPE   HN315090   0.406   4.729  10.928 -0.0061  0.0652 -0.8895
  139SAPE   C1215091   0.596   4.750  10.846  0.1326  0.4646 -0.0603
  139SAPE  H12A15092   0.624   4.687  10.933  0.6231  0.1013 -0.4650
  139SAPE  H12B15093   0.670   4.833  10.850 -1.2285  1.7321 -0.4985
  139SAPE   C1115094   0.609   4.692  10.706  0.3019 -0.1813 -0.3138
  139SAPE  H11A15095   0.713   4.656  10.696 -0.2834 -1.7761 -0.9575
  139SAPE  H11B15096   0.588   4.768  10.628 -0.0936 -0.0016 -0.0386
  139SAPE     P15097   0.542   4.454  10.604 -0.1479  0.0775  0.1327
  139SAPE   O1315098   0.652   4.386  10.672  0.0788  0.1390  0.7025
  139SAPE   O1415099   0.414   4.380  10.605  0.3004 -0.1646  0.4118
  139SAPE   O1215100   0.512   4.583  10.688 -0.0291  0.5186 -0.1240
  139SAPE   O1115101   0.587   4.496  10.459  0.0206 -0.1353 -0.9265
  139SAPE    C115102   0.493   4.576  10.392 -0.1356  0.7859  0.2217
  139SAPE    HA15103   0.391   4.534  10.404  0.8492 -2.3797 -1.2271
  139SAPE    HB15104   0.501   4.682  10.424  1.8956  1.3039 -1.7236
  139SAPE    C215105   0.516   4.575  10.239  0.5074  0.3688  0.4713
  139SAPE    HS15106   0.444   4.643  10.189 -0.9375 -2.1364 -1.0149
  139SAPE   O2115107   0.491   4.451  10.180 -0.1137 -0.0684  1.0366
  139SAPE   C2115108   0.364   4.411  10.164 -0.1821  1.0144 -0.1462
  139SAPE   O2215109   0.263   4.474  10.191  0.1224  0.0858  0.0691
  139SAPE   C2215110   0.359   4.279  10.096  0.0061 -0.0786 -0.0953
  139SAPE   H2R15111   0.459   4.232  10.089  0.0351  0.1666 -1.9949
  139SAPE   H2S15112   0.294   4.215  10.159 -0.3300 -0.6784 -1.0309
  139SAPE    C315113   0.664   4.623  10.200  0.4017  0.4602  0.2387
  139SAPE    HX15114   0.721   4.531  10.226  2.5921  1.8844  0.7621
  139SAPE    HY15115   0.696   4.704  10.268  1.1033  1.3369 -1.0748
  139SAPE   O3115116   0.673   4.658  10.061  0.4363  0.5054  0.3451
  139SAPE   C3115117   0.626   4.772  10.040 -0.8009  0.8006  0.1072
  139SAPE   O3215118   0.577   4.851  10.121 -0.2512 -0.1030  0.5453
  139SAPE   C3215119   0.612   4.795   9.892 -0.3224 -0.3404  0.0144
  139SAPE   H2X15120   0.617   4.904   9.874 -0.1465  0.3733  3.6181
  139SAPE   H2Y15121   0.511   4.765   9.856 -0.1937  1.8898 -2.5103
  139SAPE   C2315122   0.291   4.283   9.956 -0.8321  0.5903  0.4153
  139SAPE   H3R15123   0.325   4.381   9.916  0.6765 -0.2777 -0.5032
  139SAPE   H3S15124   0.180   4.291   9.961 -0.7791  0.7481  2.1217
  139SAPE   C2415125   0.342   4.174   9.855 -0.4341 -0.3190 -0.4908
  139SAPE   H4R15126   0.324   4.080   9.911  1.1434 -1.2327 -1.4556
  139SAPE   H4S15127   0.452   4.178   9.849 -0.3472  1.6299  1.0519
  139SAPE   C2515128   0.269   4.175   9.719 -0.3199 -0.4050  0.6262
  139SAPE   H5R15129   0.174   4.119   9.719 -0.8419  0.4177 -1.1465
  139SAPE   C2615130   0.312   4.229   9.601 -0.0081 -0.4415  0.2264
  139SAPE   H6R15131   0.247   4.228   9.512 -0.4671 -0.3949  0.5559
  139SAPE   C2715132   0.442   4.299   9.576 -0.0473 -0.2872 -0.2595
  139SAPE   H7R15133   0.499   4.228   9.512 -1.3820 -0.9395 -0.7714
  139SAPE   H7S15134   0.512   4.308   9.662  1.5316 -0.5547 -1.4573
  139SAPE   C2815135   0.431   4.435   9.515 -0.4455  0.4688  0.3376
  139SAPE   H8R15136   0.398   4.511   9.587 -0.2019  2.2073 -1.3029
  139SAPE   C2915137   0.432   4.478   9.390 -0.9392  0.0154  0.6462
  139SAPE   H9R15138   0.419   4.585   9.371 -0.2562  0.2130  1.2431
  139SAPE  C21015139   0.462   4.397   9.261 -0.6359  0.7584  0.5202
  139SAPE  H10R15140   0.367   4.383   9.205 -0.3534 -3.1027  0.7258
  139SAPE  H10S15141   0.497   4.293   9.277 -1.3435  0.5134  0.5297
  139SAPE  C21115142   0.544   4.466   9.149  0.1507 -0.1993  0.3756
  139SAPE  H11R15143   0.652   4.454   9.164 -0.1621 -2.8477  0.9486
  139SAPE  C21215144   0.491   4.546   9.050  0.1088 -0.3121 -0.1784
  139SAPE  H12R15145   0.571   4.589   8.989  2.1347 -1.3730  1.5928
  139SAPE  C21315146   0.354   4.578   9.014  0.3966 -0.6320 -0.3270
  139SAPE  H13R15147   0.355   4.686   8.990  2.4769 -0.7042 -0.7108
  139SAPE  H13S15148   0.286   4.567   9.102  1.3888 -1.2410  0.3843
  139SAPE  C21415149   0.299   4.502   8.898 -0.4251 -0.1383 -0.1032
  139SAPE  H14R15150   0.249   4.406   8.918 -0.1996  0.0707  1.5917
  139SAPE  C21515151   0.309   4.537   8.765  0.6641  0.4046  0.5417
  139SAPE  H15R15152   0.261   4.462   8.700 -1.5831  0.2501  2.2282
  139SAPE  C21615153   0.345   4.670   8.708 -0.4227 -0.0687 -0.1059
  139SAPE  H16R15154   0.374   4.742   8.788  1.1390 -0.9927  0.2013
  139SAPE  H16S15155   0.254   4.715   8.663 -2.1950  0.0176  3.2728
  139SAPE  C21715156   0.465   4.641   8.610  0.5651 -0.2200  0.0248
  139SAPE  H17R15157   0.537   4.565   8.648  2.1167  0.7601 -0.8795
  139SAPE  H17S15158   0.526   4.729   8.580 -0.2920 -0.2858 -2.0958
  139SAPE  C21815159   0.415   4.588   8.468 -0.1321  0.1699 -0.1143
  139SAPE  H18R15160   0.356   4.668   8.419 -1.4156 -1.3393 -1.1536
  139SAPE  H18S15161   0.343   4.504   8.479 -0.3606  0.5998  2.3431
  139SAPE  C21915162   0.532   4.560   8.385 -0.3090  0.2974  0.2297
  139SAPE  H19R15163   0.596   4.649   8.404  0.1958 -0.3855  1.8848
  139SAPE  H19S15164   0.506   4.574   8.278 -1.7730  0.1531  0.5390
  139SAPE  C22015165   0.595   4.426   8.407  0.0326  0.5753  0.3892
  139SAPE  H20R15166   0.528   4.338   8.396  1.0103 -0.8878  4.2248
  139SAPE  H20S15167   0.627   4.422   8.514 -3.7839  0.8287  1.6724
  139SAPE  H20T15168   0.680   4.417   8.336 -0.6536 -1.6280 -0.2344
  139SAPE   C3315169   0.711   4.743   9.791  0.0885 -0.1975 -0.1821
  139SAPE   H3X15170   0.697   4.638   9.759  0.1266 -0.5437  0.8914
  139SAPE   H3Y15171   0.804   4.744   9.853  0.8343  0.2476 -1.2735
  139SAPE   C3415172   0.739   4.847   9.673 -0.6480 -0.3026 -0.1886
  139SAPE   H4X15173   0.845   4.835   9.644 -0.6934 -3.5357  0.5363
  139SAPE   H4Y15174   0.713   4.951   9.702 -2.9484 -0.1615 -2.4055
  139SAPE   C3515175   0.648   4.815   9.554  0.1998  0.5344 -0.2459
  139SAPE   H5X15176   0.541   4.838   9.574  0.3831  1.3091 -0.1084
  139SAPE   H5Y15177   0.652   4.705   9.539  0.0236  0.6186 -0.9529
  139SAPE   C3615178   0.692   4.888   9.424 -0.2959  0.5869 -0.0244
  139SAPE   H6X15179   0.800   4.871   9.406 -1.1062 -2.6785 -3.0839
  139SAPE   H6Y15180   0.674   4.997   9.416 -0.5995  0.4253 -2.2270
  139SAPE   C3715181   0.635   4.832   9.294 -0.1591  0.4276 -0.4420
  139SAPE   H7X15182   0.524   4.844   9.300 -0.2116  1.1688 -2.3601
  139SAPE   H7Y15183   0.646   4.723   9.275 -2.1940  0.2383 -0.8192
  139SAPE   C3815184   0.704   4.902   9.178 -0.6366 -0.4982 -0.3776
  139SAPE   H8X15185   0.803   4.858   9.157 -0.9018 -0.3839 -1.9488
  139SAPE   H8Y15186   0.723   5.003   9.220  0.6365 -0.7317 -0.3736
  139SAPE   C3915187   0.619   4.904   9.043 -0.1227 -0.2485 -0.3529
  139SAPE   H9X15188   0.537   4.975   9.066  0.0488 -0.3744  0.7017
  139SAPE   H9Y15189   0.584   4.803   9.012  0.9366 -1.1220  1.1530
  139SAPE  C31015190   0.700   4.968   8.930  0.1907 -0.2500 -0.4067
  139SAPE  H10X15191   0.793   4.908   8.926  1.3851  1.4978  0.3447
  139SAPE  H10Y15192   0.734   5.067   8.966 -1.6256  0.2299  0.0869
  139SAPE  C31115193   0.631   4.965   8.793 -0.2429 -0.2649 -0.8049
  139SAPE  H11X15194   0.535   5.022   8.801  0.2697  0.4619  0.3986
  139SAPE  H11Y15195   0.608   4.863   8.755  1.6016 -0.7804 -0.5891
  139SAPE  C31215196   0.722   5.019   8.679 -0.5784 -0.0305 -0.0127
  139SAPE  H12X15197   0.822   4.979   8.704 -0.1082  1.6580  0.9238
  139SAPE  H12Y15198   0.725   5.127   8.703  1.2346  0.0517 -0.4717
  139SAPE  C31315199   0.681   4.979   8.537  0.0156 -0.1871 -0.1584
  139SAPE  H13X15200   0.579   5.020   8.518 -0.5448 -0.4340  2.0372
  139SAPE  H13Y15201   0.669   4.868   8.543  1.6754 -0.3615  0.3761
  139SAPE  C31415202   0.790   5.029   8.434  0.4281  0.1800 -0.4753
  139SAPE  H14X15203   0.880   4.983   8.480 -1.2526 -1.1052  1.7483
  139SAPE  H14Y15204   0.791   5.139   8.451 -1.1031  0.1597 -0.0463
  139SAPE  C31515205   0.760   4.988   8.290  0.6925  0.1860  0.1712
  139SAPE  H15X15206   0.775   5.079   8.228 -0.0225  0.1293 -0.0859
  139SAPE  H15Y15207   0.652   4.966   8.280  0.6912  0.3935 -0.2665
  139SAPE  C31615208   0.848   4.868   8.256 -0.5091  0.3724  0.8000
  139SAPE  H16X15209   0.950   4.908   8.238 -0.6513  1.3023  1.9804
  139SAPE  H16Y15210   0.843   4.807   8.348  0.9984 -2.3933 -0.8024
  139SAPE  C31715211   0.798   4.786   8.135 -0.0235 -0.0239 -0.0914
  139SAPE  H17X15212   0.804   4.844   8.041 -1.6660 -1.2744 -1.0107
  139SAPE  H17Y15213   0.693   4.767   8.165  0.2569  0.3755  1.2200
  139SAPE  C31815214   0.880   4.660   8.124  0.3693 -0.8283  0.0003
  139SAPE  H18X15215   0.857   4.586   8.204 -1.6253  0.7324  0.9593
  139SAPE  H18Y15216   0.988   4.683   8.130  0.1186  1.1076 -1.6224
  139SAPE  H18Z15217   0.880   4.605   8.027 -0.4483  1.6503 -1.4958
  140SAPE     N15218   2.299   0.866  11.128 -0.3945 -0.2662  0.4594
  140SAPE   HN115219   2.327   0.795  11.058 -0.9420  0.3772 -0.4525
  140SAPE   HN215220   2.360   0.950  11.117  1.8423 -1.8741  0.1153
  140SAPE   HN315221   2.327   0.825  11.219  1.1297  0.6245  0.4303
  140SAPE   C1215222   2.154   0.902  11.117 -0.2671  1.1208  0.3817
  140SAPE  H12A15223   2.123   0.948  11.213  2.1468 -2.0066  2.8974
  140SAPE  H12B15224   2.098   0.807  11.099 -0.7192  1.4522  0.0157
  140SAPE   C1115225   2.142   0.996  10.996  0.6036 -0.3788 -0.2830
  140SAPE  H11A15226   2.034   1.020  10.989  0.8963  0.7010 -1.1688
  140SAPE  H11B15227   2.169   0.940  10.904  0.7369 -2.8092  1.1186
  140SAPE     P15228   2.184   1.249  10.930  0.1905 -0.0898 -0.2414
  140SAPE   O1315229   2.039   1.272  10.958 -0.4041 -0.2297  0.0440
  140SAPE   O1415230   2.271   1.361  10.972 -0.4014 -0.0876 -0.3353
  140SAPE   O1215231   2.223   1.115  11.014 -0.5232 -0.0517  0.2508
  140SAPE   O1115232   2.226   1.218  10.780  0.0042 -0.3224 -0.5011
  140SAPE    C115233   2.331   1.121  10.760 -0.0170 -0.2781 -0.0128
  140SAPE    HA15234   2.401   1.110  10.846  0.6847 -0.6095 -0.6148
  140SAPE    HB15235   2.283   1.021  10.752 -1.8106  0.5788 -0.3937
  140SAPE    C215236   2.422   1.156  10.650 -0.1645  0.1382  0.4065
  140SAPE    HS15237   2.483   1.239  10.690 -1.3880  0.7966  0.9570
  140SAPE   O2115238   2.346   1.199  10.533  0.2028 -0.2329 -0.4274
  140SAPE   C2115239   2.428   1.261  10.450 -0.6119  0.7685 -0.6476
  140SAPE   O2215240   2.545   1.288  10.464  0.4019  0.0816 -0.4584
  140SAPE   C2215241   2.359   1.257  10.316 -0.3706  0.1798  0.7348
  140SAPE   H2R15242   2.274   1.187  10.313  0.0247 -0.2832 -1.7962
  140SAPE   H2S15243   2.315   1.357  10.293 -0.7422 -0.1855 -0.1652
  140SAPE    C315244   2.527   1.034  10.615  0.4453 -0.1787 -0.0867
  140SAPE    HX15245   2.603   1.040  10.696  0.7307 -0.4388 -0.3342
  140SAPE    HY15246   2.570   1.060  10.516 -0.6611  1.1571 -0.2514
  140SAPE   O3115247   2.445   0.910  10.613  0.2310  0.3035  0.0400
  140SAPE   C3115248   2.486   0.819  10.521 -0.2469  0.1799 -0.1149
  140SAPE   O3215249   2.566   0.845  10.436 -0.4369  0.2581 -0.1226
  140SAPE   C3215250   2.412   0.696  10.550 -1.0549  0.9883  0.7795
  140SAPE   H2X15251   2.334   0.702  10.630 -0.7938 -0.2020  1.1336
  140SAPE   H2Y15252   2.487   0.622  10.585 -0.6779  0.6738 -0.6123
  140SAPE   C2315253   2.459   1.226  10.200  0.3606 -0.0026  0.0455
  140SAPE   H3R15254   2.512   1.131  10.220 -0.0517 -0.1366  0.5269
  140SAPE   H3S15255   2.533   1.308  10.189  0.1254  0.1187 -0.7252
  140SAPE   C2415256   2.369   1.222  10.071  0.2041  0.6697 -0.8106
  140SAPE   H4R15257   2.299   1.137  10.087  2.7293 -1.3153  0.2971
  140SAPE   H4S15258   2.431   1.206   9.980  1.0651  0.1224 -0.1294
  140SAPE   C2515259   2.300   1.353  10.033 -0.0211  0.5972 -0.0530
  140SAPE   H5R15260   2.308   1.436  10.104 -0.1367 -0.0168  0.6966
  140SAPE   C2615261   2.210   1.359   9.934  0.5007 -0.9796 -0.3780
  140SAPE   H6R15262   2.166   1.459   9.916 -1.1219 -1.5959 -0.0414
  140SAPE   C2715263   2.169   1.250   9.844  0.2830 -0.9498 -0.0538
  140SAPE   H7R15264   2.223   1.158   9.878 -0.0470 -0.8762  0.6929
  140SAPE   H7S15265   2.212   1.273   9.744  0.0543 -1.8683 -0.3740
  140SAPE   C2815266   2.019   1.222   9.854  0.1789 -0.0366  0.9019
  140SAPE   H8R15267   1.972   1.257   9.947  0.3977  2.1257  0.2716
  140SAPE   C2915268   1.940   1.160   9.767  0.6306 -0.0565  0.2239
  140SAPE   H9R15269   1.836   1.135   9.795  1.0280 -0.7307  1.1353
  140SAPE  C21015270   1.975   1.108   9.637 -0.5879  0.6731 -0.2704
  140SAPE  H10R15271   1.891   1.046   9.598  0.1616 -0.1779 -0.5743
  140SAPE  H10S15272   2.057   1.036   9.659 -0.8337  0.7855  1.1634
  140SAPE  C21115273   2.027   1.200   9.526  1.0357 -0.0475 -0.6741
  140SAPE  H11R15274   2.060   1.293   9.575  0.3460 -0.8927  1.5126
  140SAPE  C21215275   2.050   1.182   9.395  0.1211 -0.8152 -0.0885
  140SAPE  H12R15276   2.078   1.269   9.334 -1.1717 -0.6735 -0.5063
  140SAPE  C21315277   2.013   1.062   9.312 -0.6137  0.6326 -0.3831
  140SAPE  H13R15278   1.964   0.983   9.372 -0.7955  0.4275 -0.7977
  140SAPE  H13S15279   2.109   1.015   9.282 -0.3076  0.2302  1.1517
  140SAPE  C21415280   1.932   1.086   9.186  0.3714 -0.3441  0.2006
  140SAPE  H14R15281   1.838   1.030   9.181 -0.1133  0.4136  0.6207
  140SAPE  C21515282   1.954   1.158   9.072  0.0430 -0.1632  0.3085
  140SAPE  H15R15283   1.879   1.153   8.991  0.6160 -1.4979 -0.1677
  140SAPE  C21615284   2.073   1.235   9.041  0.0073  0.8706  0.5611
  140SAPE  H16R15285   2.157   1.193   9.100 -3.1131 -2.7436  2.9198
  140SAPE  H16S15286   2.062   1.334   9.090 -0.0869 -0.0820  2.5624
  140SAPE  C21715287   2.094   1.258   8.892 -0.1629 -0.4233  0.0398
  140SAPE  H17R15288   2.014   1.317   8.842  0.8440 -0.0795 -1.2130
  140SAPE  H17S15289   2.091   1.164   8.834  2.3784 -0.1318 -0.6996
  140SAPE  C21815290   2.225   1.334   8.864  0.4174  0.3755  0.3066
  140SAPE  H18R15291   2.301   1.333   8.944  1.1765 -2.3263 -0.3724
  140SAPE  H18S15292   2.192   1.438   8.840 -0.7197  0.1620  0.8717
  140SAPE  C21915293   2.310   1.279   8.743  0.0850  0.2671 -0.1707
  140SAPE  H19R15294   2.261   1.325   8.654 -2.5412  1.2603  1.6492
  140SAPE  H19S15295   2.278   1.173   8.726  1.1192  0.2327 -2.1996
  140SAPE  C22015296   2.460   1.289   8.764  0.2562 -0.2370 -0.6916
  140SAPE  H20R15297   2.489   1.396   8.761 -1.0595  0.1131 -1.3817
  140SAPE  H20S15298   2.513   1.237   8.682  0.5200 -1.3820  0.1755
  140SAPE  H20T15299   2.496   1.244   8.859 -0.7656  2.6071  1.1699
  140SAPE   C3315300   2.350   0.625  10.422  0.1507 -0.5417  0.4601
  140SAPE   H3X15301   2.267   0.559  10.455 -1.5709  1.3361  0.0401
  140SAPE   H3Y15302   2.436   0.580  10.368  0.2528 -0.8774  0.8925
  140SAPE   C3415303   2.293   0.733  10.326  0.0151 -0.3513 -0.2396
  140SAPE   H4X15304   2.366   0.815  10.310  0.0544 -0.5032 -0.8750
  140SAPE   H4Y15305   2.202   0.777  10.373  0.4155  0.6490 -0.3671
  140SAPE   C3515306   2.264   0.674  10.180 -0.4669 -0.7764  0.0590
  140SAPE   H5X15307   2.223   0.572  10.199  0.7842 -1.3020  0.0417
  140SAPE   H5Y15308   2.369   0.668  10.145 -0.7788 -0.7007 -0.9182
  140SAPE   C3615309   2.172   0.769  10.102 -0.2130 -0.2488 -0.5825
  140SAPE   H6X15310   2.228   0.864  10.086 -2.0552  0.7452 -1.4410
  140SAPE   H6Y15311   2.079   0.798  10.154  0.0123 -0.7623  0.1219
  140SAPE   C3715312   2.131   0.710   9.965 -0.0053  0.0720  0.4034
  140SAPE   H7X15313   2.039   0.651   9.987 -0.3546  1.3161  2.6700
  140SAPE   H7Y15314   2.217   0.652   9.927  1.6144  2.5981 -0.0436
  140SAPE   C3815315   2.088   0.826   9.868 -0.3586  0.0125  0.3397
  140SAPE   H8X15316   2.159   0.908   9.842 -0.3936  0.1859  0.7730
  140SAPE   H8Y15317   2.012   0.889   9.918 -1.3585 -0.1828 -0.9005
  140SAPE   C3915318   2.022   0.767   9.740  0.1312 -0.4376 -0.4959
  140SAPE   H9X15319   1.937   0.829   9.706  0.0339 -0.5931 -0.5361
  140SAPE   H9Y15320   1.977   0.669   9.767 -1.0273 -0.3100 -1.8722
  140SAPE  C31015321   2.120   0.747   9.625 -0.2780 -0.1209  0.0406
  140SAPE  H10X15322   2.209   0.691   9.663 -0.5714 -0.0652  0.8296
  140SAPE  H10Y15323   2.150   0.846   9.585 -1.2687  0.1249 -0.1264
  140SAPE  C31115324   2.052   0.689   9.499  0.5772 -0.2020 -0.2448
  140SAPE  H11X15325   1.960   0.743   9.470 -0.3286 -1.6271 -0.1357
  140SAPE  H11Y15326   2.032   0.580   9.513  0.8619 -0.5075 -1.9428
  140SAPE  C31215327   2.135   0.695   9.371 -0.5009  0.5964 -0.0347
  140SAPE  H12X15328   2.212   0.615   9.369 -2.0213 -0.9427 -1.8200
  140SAPE  H12Y15329   2.184   0.794   9.373  1.3695 -0.2802 -0.1413
  140SAPE  C31315330   2.061   0.688   9.231 -0.0214 -0.1488 -0.4409
  140SAPE  H13X15331   2.025   0.787   9.198  1.0937 -0.2784 -2.2333
  140SAPE  H13Y15332   1.977   0.617   9.214  0.7225 -1.0405 -0.5019
  140SAPE  C31415333   2.155   0.661   9.109 -0.0478  0.1537 -0.1391
  140SAPE  H14X15334   2.185   0.555   9.125  0.4717  0.6931  3.3719
  140SAPE  H14Y15335   2.250   0.716   9.129 -0.8687  1.9958 -1.0747
  140SAPE  C31515336   2.108   0.709   8.968 -0.5192 -0.2113 -0.3094
  140SAPE  H15X15337   2.186   0.693   8.890 -0.2924 -0.8780  0.0526
  140SAPE  H15Y15338   2.099   0.819   8.977  0.3797 -0.0283 -1.3710
  140SAPE  C31615339   1.970   0.662   8.925 -0.2358  0.0278 -0.5140
  140SAPE  H16X15340   1.893   0.683   9.001  0.9405 -1.2520  1.0987
  140SAPE  H16Y15341   1.972   0.551   8.915  3.4798 -0.0569 -0.1547
  140SAPE  C31715342   1.941   0.725   8.789 -0.7203  0.0817 -0.1183
  140SAPE  H17X15343   1.877   0.655   8.731  1.5837 -3.1902  0.9742
  140SAPE  H17Y15344   2.038   0.760   8.747  0.1940 -1.2897  0.7445
  140SAPE  C31815345   1.865   0.856   8.802  0.0026 -0.9422 -0.2154
  140SAPE  H18X15346   1.834   0.868   8.696  0.5971  0.0745 -0.2926
  140SAPE  H18Y15347   1.931   0.944   8.816 -2.1008  1.3061 -3.1249
  140SAPE  H18Z15348   1.777   0.854   8.870 -0.5341  1.1627 -0.7577
  141SAPE     N15349   4.902   1.357  10.656  0.7605 -0.1546 -0.0293
  141SAPE   HN115350   4.865   1.370  10.559 -1.6433 -1.5400  0.6349
  141SAPE   HN215351   4.871   1.445  10.702 -1.7430  0.1533 -2.0526
  141SAPE   HN315352   5.005   1.360  10.646  0.5176 -0.0643 -4.3222
  141SAPE   C1215353   4.853   1.227  10.699 -0.0700 -0.3847 -0.7034
  141SAPE  H12A15354   4.876   1.212  10.807 -0.7784 -0.4284 -0.5524
  141SAPE  H12B15355   4.890   1.151  10.628 -1.0317 -0.3895 -1.2044
  141SAPE   C1115356   4.705   1.223  10.673  0.7268 -0.2358 -0.0025
  141SAPE  H11A15357   4.670   1.123  10.705  0.8214 -0.5896 -0.9821
  141SAPE  H11B15358   4.679   1.232  10.565  3.3673  0.6587 -0.6395
  141SAPE     P15359   4.490   1.337  10.756 -0.1300  0.0820  0.0805
  141SAPE   O1315360   4.443   1.293  10.886  0.3074  0.0575 -0.1363
  141SAPE   O1415361   4.446   1.474  10.724 -0.3859  0.1931  0.6856
  141SAPE   O1215362   4.644   1.327  10.741  0.2050 -0.7691 -0.5412
  141SAPE   O1115363   4.439   1.226  10.652 -0.2465 -0.2044 -0.6642
  141SAPE    C115364   4.425   1.262  10.518  0.9444  0.3872  0.8310
  141SAPE    HA15365   4.328   1.316  10.508 -0.9662 -2.7914  0.7454
  141SAPE    HB15366   4.494   1.343  10.488  2.5057 -0.8197  1.0173
  141SAPE    C215367   4.434   1.143  10.418  0.6051  0.0229 -0.0872
  141SAPE    HS15368   4.374   1.067  10.471 -1.1725 -0.4104 -2.5305
  141SAPE   O2115369   4.565   1.111  10.398 -0.3355 -0.5530 -0.0754
  141SAPE   C2115370   4.591   0.980  10.398 -0.1572  0.4057  0.2427
  141SAPE   O2215371   4.504   0.899  10.383  0.5860  0.3200 -0.3000
  141SAPE   C2215372   4.736   0.951  10.393  0.5376 -0.8148 -0.0926
  141SAPE   H2R15373   4.794   0.996  10.310  0.6909 -1.1478 -0.1682
  141SAPE   H2S15374   4.784   0.989  10.486 -0.1118  2.7878 -1.0647
  141SAPE    C315375   4.370   1.171  10.282  0.0137  0.1615 -0.2221
  141SAPE    HX15376   4.429   1.255  10.240 -0.0005  0.1032 -0.3570
  141SAPE    HY15377   4.266   1.204  10.301 -0.0439 -0.4834  0.6484
  141SAPE   O3115378   4.356   1.054  10.204  0.0186  0.0897  0.4535
  141SAPE   C3115379   4.444   1.029  10.099 -0.6731  0.0334  0.2577
  141SAPE   O3215380   4.546   1.092  10.085  0.0676  0.4249  0.0833
  141SAPE   C3215381   4.391   0.914  10.008  0.2538 -0.2698 -0.0814
  141SAPE   H2X15382   4.293   0.879  10.046  0.8499  1.4914  3.4775
  141SAPE   H2Y15383   4.460   0.827  10.018 -0.2664 -0.7408 -0.5251
  141SAPE   C2315384   4.754   0.794  10.383 -0.6357  0.2544  0.4859
  141SAPE   H3R15385   4.704   0.752  10.294 -0.7286  0.7525  0.3025
  141SAPE   H3S15386   4.709   0.755  10.477 -1.7230  0.6084  0.1265
  141SAPE   C2415387   4.906   0.742  10.385  0.4326 -0.0357 -0.2650
  141SAPE   H4R15388   4.949   0.779  10.289  1.2984  1.5335  0.6962
  141SAPE   H4S15389   4.910   0.631  10.376 -1.3145  0.0156 -3.0101
  141SAPE   C2515390   4.988   0.789  10.506 -0.3485  0.5530  0.3248
  141SAPE   H5R15391   4.937   0.769  10.601  0.7700 -3.6903  0.2307
  141SAPE   C2615392   5.110   0.857  10.505  0.9287 -0.2471  0.4849
  141SAPE   H6R15393   5.159   0.883  10.600 -2.1378 -0.0455  2.1150
  141SAPE   C2715394   5.187   0.894  10.382 -0.2176 -0.0340  0.1320
  141SAPE   H7R15395   5.126   0.879  10.291 -1.7476  1.2946  0.8797
  141SAPE   H7S15396   5.284   0.839  10.376  1.0868  2.2239 -0.8467
  141SAPE   C2815397   5.203   1.048  10.394 -0.3510 -0.2848  0.7071
  141SAPE   H8R15398   5.248   1.089  10.486 -2.2871  2.5999  0.5196
  141SAPE   C2915399   5.154   1.144  10.311  0.0953 -0.6636 -0.8612
  141SAPE   H9R15400   5.171   1.249  10.340  0.2863 -0.3115 -2.1690
  141SAPE  C21015401   5.082   1.122  10.181  0.4077  0.2982 -0.4748
  141SAPE  H10R15402   4.974   1.108  10.202  0.4652 -2.0553 -1.4914
  141SAPE  H10S15403   5.117   1.024  10.143  0.1163 -0.7489  1.7698
  141SAPE  C21115404   5.106   1.230  10.075  0.7902  0.1116 -0.2696
  141SAPE  H11R15405   5.159   1.320  10.108  2.1514 -1.3111  1.5942
  141SAPE  C21215406   5.066   1.222   9.947  0.4737 -0.2537  0.5147
  141SAPE  H12R15407   5.079   1.306   9.878 -0.8676 -0.7990 -0.4489
  141SAPE  C21315408   4.995   1.104   9.880  0.1330 -0.2242 -0.2470
  141SAPE  H13R15409   5.032   1.009   9.923 -2.5204 -1.8543 -1.3117
  141SAPE  H13S15410   5.029   1.099   9.775 -2.2351  1.5324 -1.2011
  141SAPE  C21415411   4.846   1.101   9.889  0.3016  0.7474  0.0121
  141SAPE  H14R15412   4.802   1.026   9.956 -0.7719 -2.4863 -3.8910
  141SAPE  C21515413   4.763   1.174   9.818  1.0112 -0.5589 -0.5100
  141SAPE  H15R15414   4.655   1.158   9.831  1.2831 -1.9416  0.2168
  141SAPE  C21615415   4.804   1.293   9.722 -0.0099  0.9086  0.2572
  141SAPE  H16R15416   4.905   1.324   9.755  0.8936 -2.2402  0.7733
  141SAPE  H16S15417   4.729   1.375   9.726 -0.7688  0.3813 -1.6045
  141SAPE  C21715418   4.821   1.247   9.578 -0.1478 -0.2308  0.1244
  141SAPE  H17R15419   4.728   1.192   9.550 -0.3443  0.4100 -0.5135
  141SAPE  H17S15420   4.909   1.181   9.563 -0.7340 -1.2614  1.0419
  141SAPE  C21815421   4.833   1.365   9.481  0.0013 -0.1044 -0.0684
  141SAPE  H18R15422   4.912   1.430   9.526  0.5656 -2.5746  2.9079
  141SAPE  H18S15423   4.737   1.417   9.462 -1.2670 -0.9265  3.3095
  141SAPE  C21915424   4.885   1.325   9.345 -0.7902 -0.1126  0.2632
  141SAPE  H19R15425   4.940   1.229   9.349  1.0505  0.7153 -2.4164
  141SAPE  H19S15426   4.954   1.397   9.296 -0.7997 -0.6751 -0.6109
  141SAPE  C22015427   4.772   1.303   9.247  0.0518 -0.1599  0.4253
  141SAPE  H20R15428   4.721   1.395   9.213  1.1156 -1.0891 -4.3389
  141SAPE  H20S15429   4.702   1.229   9.292  2.1614 -1.9483  1.0163
  141SAPE  H20T15430   4.813   1.259   9.154 -1.7132  1.9104 -1.4284
  141SAPE   C3315431   4.380   0.954   9.860  0.0865 -0.0808  0.4414
  141SAPE   H3X15432   4.478   0.995   9.825 -0.3873  1.5839  0.9518
  141SAPE   H3Y15433   4.303   1.033   9.850 -1.3875 -1.6053 -0.8850
  141SAPE   C3415434   4.320   0.847   9.765 -0.0335  0.3584  0.6943
  141SAPE   H4X15435   4.213   0.829   9.789 -0.0135 -0.6453  0.0686
  141SAPE   H4Y15436   4.381   0.755   9.767  0.9787  1.0248  1.0608
  141SAPE   C3515437   4.312   0.897   9.622 -0.1088 -0.6417  0.0107
  141SAPE   H5X15438   4.410   0.945   9.603 -0.6643  0.6907  0.4095
  141SAPE   H5Y15439   4.231   0.971   9.607 -0.4924 -1.4597 -2.2398
  141SAPE   C3615440   4.296   0.791   9.510 -0.0269 -0.3127  0.7963
  141SAPE   H6X15441   4.193   0.753   9.523 -1.7946  2.5899 -2.7340
  141SAPE   H6Y15442   4.370   0.708   9.510  0.3129 -0.0145  0.5166
  141SAPE   C3715443   4.286   0.849   9.362 -0.2997  0.1148 -0.3801
  141SAPE   H7X15444   4.382   0.897   9.334 -1.2500  2.6160  0.3274
  141SAPE   H7Y15445   4.209   0.930   9.360 -1.1780 -0.7086 -0.4326
  141SAPE   C3815446   4.251   0.748   9.259  0.0924  0.7288 -0.0492
  141SAPE   H8X15447   4.158   0.694   9.286  0.3294 -0.2383 -1.1383
  141SAPE   H8Y15448   4.338   0.682   9.280 -0.8414 -0.0376  1.6420
  141SAPE   C3915449   4.239   0.808   9.118  0.0586 -0.3156  0.3101
  141SAPE   H9X15450   4.245   0.718   9.053 -0.1870 -0.9451  1.1375
  141SAPE   H9Y15451   4.328   0.873   9.104 -0.0163 -0.2876 -0.0301
  141SAPE  C31015452   4.112   0.883   9.081  0.4692  0.5675  0.4862
  141SAPE  H10X15453   4.132   0.931   8.983  0.9373  0.5638  0.5761
  141SAPE  H10Y15454   4.074   0.955   9.157 -2.9699 -0.3665 -0.1874
  141SAPE  C31115455   3.996   0.781   9.052 -0.8061 -0.3654 -0.1705
  141SAPE  H11X15456   3.981   0.716   9.141 -1.3920  0.7357  0.5728
  141SAPE  H11Y15457   4.021   0.709   8.972 -1.2535  0.3684 -0.9929
  141SAPE  C31215458   3.868   0.855   9.017  0.0474 -0.0475  0.2719
  141SAPE  H12X15459   3.830   0.922   9.098 -1.2088  1.0618 -1.1738
  141SAPE  H12Y15460   3.789   0.778   9.020  1.0527 -1.1436 -0.5597
  141SAPE  C31315461   3.869   0.929   8.882  0.3403  0.9648 -0.6420
  141SAPE  H13X15462   3.920   0.863   8.809 -0.7740  1.6729 -2.1135
  141SAPE  H13Y15463   3.925   1.025   8.881  0.5808  0.8249 -0.8317
  141SAPE  C31415464   3.730   0.953   8.844 -0.0611 -0.3966 -0.1595
  141SAPE  H14X15465   3.684   1.025   8.915 -0.0524  1.0371 -1.5441
  141SAPE  H14Y15466   3.687   0.852   8.861  0.6901 -0.8204 -0.7114
  141SAPE  C31515467   3.703   0.999   8.703 -0.2050  0.7040 -0.2374
  141SAPE  H15X15468   3.766   0.945   8.629  1.6807  0.0361  1.7851
  141SAPE  H15Y15469   3.726   1.107   8.698 -0.6687  0.7800 -4.2203
  141SAPE  C31615470   3.550   0.995   8.670  0.2997  0.2233  0.2399
  141SAPE  H16X15471   3.528   1.055   8.579 -2.3063 -0.5101  0.3084
  141SAPE  H16Y15472   3.493   1.043   8.752  1.4737  2.0464  0.0314
  141SAPE  C31715473   3.488   0.853   8.653  0.5099  0.2038  0.4862
  141SAPE  H17X15474   3.487   0.798   8.749  0.3608 -1.6779 -0.5568
  141SAPE  H17Y15475   3.556   0.792   8.591  0.7552  0.5303  0.4286
  141SAPE  C31815476   3.342   0.856   8.600  0.1470  0.0936  0.1270
  141SAPE  H18X15477   3.292   0.758   8.584  0.0543  0.2996 -0.9855
  141SAPE  H18Y15478   3.334   0.917   8.507  2.5649  0.8124  0.3084
  141SAPE  H18Z15479   3.284   0.899   8.684 -0.3788 -2.0718  0.9416
  142SAPE     N15480   4.061   6.323  10.846  0.6366  0.8345  0.5789
  142SAPE   HN115481   3.974   6.267  10.835 -0.1472  1.7803  1.6062
  142SAPE   HN215482   4.147   6.265  10.845 -1.0490 -1.8190 -0.5649
  142SAPE   HN315483   4.058   6.375  10.937 -1.2755  2.3231 -0.2476
  142SAPE   C1215484   4.088   6.428  10.738 -0.1078  0.3468 -0.2000
  142SAPE  H12A15485   3.994   6.487  10.740 -1.9553 -2.3652 -1.1866
  142SAPE  H12B15486   4.095   6.376  10.641 -0.3822  1.4262 -0.8130
  142SAPE   C1115487   4.228   6.503  10.767  0.4469  0.8631 -0.0161
  142SAPE  H11A15488   4.238   6.558  10.863  0.5488 -2.1541  1.8115
  142SAPE  H11B15489   4.229   6.588  10.695  1.2067  3.3371  2.7003
  142SAPE     P15490   4.405   6.332  10.871 -0.0042 -0.1794 -0.0702
  142SAPE   O1315491   4.417   6.420  10.987 -0.0946  0.2029 -0.9592
  142SAPE   O1415492   4.321   6.212  10.894 -0.4300  0.4245 -0.2388
  142SAPE   O1215493   4.340   6.416  10.750  0.0213 -0.5740 -0.1621
  142SAPE   O1115494   4.544   6.300  10.814 -0.1113  0.9823  0.2575
  142SAPE    C115495   4.649   6.408  10.811  0.6279  0.1458 -0.3912
  142SAPE    HA15496   4.646   6.485  10.891 -1.1166 -1.0720  0.8151
  142SAPE    HB15497   4.744   6.351  10.824  0.8348  1.0092  2.7409
  142SAPE    C215498   4.648   6.486  10.677  0.1395 -0.2636  0.6601
  142SAPE    HS15499   4.568   6.564  10.682 -0.1944 -0.6841  3.0905
  142SAPE   O2115500   4.610   6.402  10.568 -0.5481  0.0353 -0.0398
  142SAPE   C2115501   4.700   6.307  10.541 -0.1792  1.1492  0.8115
  142SAPE   O2215502   4.797   6.265  10.602  0.2627 -0.0501 -0.7118
  142SAPE   C2215503   4.663   6.255  10.399  0.0407 -0.1763 -0.1772
  142SAPE   H2R15504   4.588   6.177  10.423  0.1883 -0.3908 -0.4113
  142SAPE   H2S15505   4.619   6.344  10.350  0.0784  0.9875  1.8088
  142SAPE    C315506   4.776   6.566  10.647  0.3504 -0.1500  0.2909
  142SAPE    HX15507   4.858   6.492  10.656 -0.0379 -0.4324  1.7344
  142SAPE    HY15508   4.785   6.649  10.720 -1.0398 -0.1376  0.4787
  142SAPE   O3115509   4.767   6.628  10.512  0.5089  0.2812 -1.1403
  142SAPE   C3115510   4.870   6.628  10.438 -0.5300  0.1909  0.3418
  142SAPE   O3215511   4.969   6.557  10.446  0.5673  0.4099  0.5334
  142SAPE   C3215512   4.844   6.726  10.329 -0.3848 -1.0105 -0.1382
  142SAPE   H2X15513   4.821   6.822  10.380 -1.3997 -1.1848 -0.2570
  142SAPE   H2Y15514   4.750   6.709  10.272 -1.0738 -0.1779  0.7138
  142SAPE   C2315515   4.783   6.215  10.301  0.1074 -0.5443 -0.9070
  142SAPE   H3R15516   4.830   6.128  10.351 -0.1365  0.8682  1.9851
  142SAPE   H3S15517   4.857   6.297  10.299  1.5736 -1.7451  0.9264
  142SAPE   C2415518   4.747   6.196  10.157 -0.5896 -0.6036  0.3071
  142SAPE   H4R15519   4.694   6.287  10.120 -3.5550 -1.3076  2.3962
  142SAPE   H4S15520   4.667   6.118  10.149 -0.7626 -0.3285 -0.8876
  142SAPE   C2515521   4.859   6.165  10.066  0.0624 -0.0634 -0.4253
  142SAPE   H5R15522   4.943   6.125  10.124 -1.2943 -0.3701  1.4228
  142SAPE   C2615523   4.858   6.173   9.931  0.4844  0.5232  0.6293
  142SAPE   H6R15524   4.941   6.136   9.869  0.2127  1.4067 -0.3012
  142SAPE   C2715525   4.740   6.214   9.846 -0.1186  0.1884 -0.1147
  142SAPE   H7R15526   4.648   6.213   9.908  1.1394 -1.3056  1.8454
  142SAPE   H7S15527   4.717   6.135   9.771  1.6902  0.1734 -0.6850
  142SAPE   C2815528   4.776   6.344   9.778  0.6992 -0.1053  0.2481
  142SAPE   H8R15529   4.756   6.428   9.846 -0.2931 -2.2971  2.8626
  142SAPE   C2915530   4.801   6.385   9.650  0.0537  0.7053  0.2898
  142SAPE   H9R15531   4.809   6.490   9.618 -0.6366  0.6617 -0.0393
  142SAPE  C21015532   4.787   6.281   9.546 -0.5879 -0.0304  0.6712
  142SAPE  H10R15533   4.753   6.329   9.451  1.0186  0.4251  0.2882
  142SAPE  H10S15534   4.722   6.194   9.571 -1.7949  0.6168 -0.0792
  142SAPE  C21115535   4.924   6.219   9.515  0.5039  0.0008  0.1324
  142SAPE  H11R15536   4.967   6.160   9.598 -0.6591 -1.8009 -0.4971
  142SAPE  C21215537   4.991   6.218   9.397 -0.3707 -0.2078 -0.2850
  142SAPE  H12R15538   5.087   6.164   9.385  0.9156  1.8095  0.3628
  142SAPE  C21315539   4.955   6.289   9.268 -0.0504  0.6405  0.2903
  142SAPE  H13R15540   4.846   6.311   9.267 -0.3421 -0.7402 -1.3628
  142SAPE  H13S15541   4.969   6.217   9.185 -0.3257 -0.0753  0.8524
  142SAPE  C21415542   5.016   6.426   9.251 -0.1032  0.7397  0.5910
  142SAPE  H14R15543   5.020   6.488   9.343 -2.0145  3.5625 -1.0806
  142SAPE  C21515544   5.073   6.484   9.138  0.2153  0.1509 -0.3019
  142SAPE  H15R15545   5.123   6.582   9.143  0.0950  0.1739  0.9763
  142SAPE  C21615546   5.070   6.421   8.999  0.3503  0.3231  0.5789
  142SAPE  H16R15547   5.026   6.320   8.989 -2.0978  1.1905  1.7730
  142SAPE  H16S15548   5.174   6.408   8.960  0.2487  1.4094 -0.1079
  142SAPE  C21715549   4.995   6.509   8.900  0.5610 -0.0393 -0.6974
  142SAPE  H17R15550   5.062   6.598   8.902  0.7904 -0.1751  2.7571
  142SAPE  H17S15551   4.896   6.537   8.942  0.6756  0.9731 -1.0557
  142SAPE  C21815552   4.987   6.436   8.765  0.2980  0.1486 -0.3086
  142SAPE  H18R15553   4.915   6.487   8.698  0.1673 -0.1089 -0.3667
  142SAPE  H18S15554   4.937   6.340   8.789 -1.2391  0.5084 -1.8913
  142SAPE  C21915555   5.116   6.417   8.687 -0.2783 -0.7737  0.0199
  142SAPE  H19R15556   5.088   6.355   8.599  0.6036 -1.5316  0.2598
  142SAPE  H19S15557   5.187   6.353   8.744  1.0363 -0.4621 -1.2166
  142SAPE  C22015558   5.184   6.548   8.644  0.4368  0.0560 -0.3139
  142SAPE  H20R15559   5.115   6.622   8.598  0.5044 -0.1876 -0.8169
  142SAPE  H20S15560   5.269   6.527   8.575  1.1184 -0.0461  0.5407
  142SAPE  H20T15561   5.230   6.603   8.729 -0.4304  0.5762 -0.1705
  142SAPE   C3315562   4.954   6.749  10.224 -0.7012  0.1495 -0.0724
  142SAPE   H3X15563   5.053   6.775  10.266 -0.0427 -0.1932 -1.3641
  142SAPE   H3Y15564   4.911   6.831  10.163 -1.0943  1.0864  1.4189
  142SAPE   C3415565   4.980   6.631  10.137 -0.3671 -0.1935 -0.3460
  142SAPE   H4X15566   4.886   6.589  10.096 -0.2789 -0.0566 -0.6929
  142SAPE   H4Y15567   5.037   6.555  10.194  1.2154  1.8158  0.8832
  142SAPE   C3515568   5.066   6.672  10.009  0.2592 -0.3069 -0.4931
  142SAPE   H5X15569   5.110   6.576   9.976  0.1529 -0.6629  0.3700
  142SAPE   H5Y15570   5.147   6.741  10.044 -0.8043  1.3214 -1.1142
  142SAPE   C3615571   4.988   6.755   9.903  0.1867 -0.8545  0.0910
  142SAPE   H6X15572   4.999   6.863   9.924 -2.8994 -0.8123  2.1106
  142SAPE   H6Y15573   4.882   6.723   9.909  0.6979 -3.1522 -1.5593
  142SAPE   C3715574   5.020   6.724   9.750  0.7885 -0.5457  0.5972
  142SAPE   H7X15575   5.040   6.614   9.746  1.4676 -0.5091  2.0706
  142SAPE   H7Y15576   5.113   6.775   9.717 -0.2277 -0.0362 -1.6709
  142SAPE   C3815577   4.904   6.758   9.655 -0.6901 -0.1560 -0.4799
  142SAPE   H8X15578   4.889   6.863   9.688  1.3666 -0.5593  2.0768
  142SAPE   H8Y15579   4.817   6.697   9.687  1.0536 -0.7518  3.7807
  142SAPE   C3915580   4.940   6.767   9.512  0.8725 -0.2951 -0.7116
  142SAPE   H9X15581   4.981   6.670   9.476 -0.3389 -0.3680 -2.0116
  142SAPE   H9Y15582   5.013   6.849   9.497  1.1186  0.1049  2.2280
  142SAPE  C31015583   4.812   6.786   9.422 -0.4316  0.4704 -0.4182
  142SAPE  H10X15584   4.772   6.885   9.453  0.8938  1.0140 -0.3705
  142SAPE  H10Y15585   4.742   6.704   9.446 -1.8765  1.3455 -1.4874
  142SAPE  C31115586   4.835   6.798   9.272  0.3197 -0.4574 -0.5677
  142SAPE  H11X15587   4.858   6.693   9.244 -0.5025 -0.3269 -1.8325
  142SAPE  H11Y15588   4.926   6.860   9.253  0.8210 -0.8457  0.5144
  142SAPE  C31215589   4.709   6.844   9.192 -0.1969 -0.8376 -0.5925
  142SAPE  H12X15590   4.689   6.953   9.187  1.4609 -0.5377 -1.2787
  142SAPE  H12Y15591   4.626   6.806   9.255 -0.1751  0.2417  0.1357
  142SAPE  C31315592   4.713   6.783   9.058  0.3814  0.8835 -0.3408
  142SAPE  H13X15593   4.728   6.673   9.067 -3.2387  0.2035 -0.8968
  142SAPE  H13Y15594   4.787   6.836   8.995 -1.1255  0.0615 -3.0120
  142SAPE  C31415595   4.577   6.812   8.984  0.1435  0.2336 -1.0616
  142SAPE  H14X15596   4.559   6.921   8.999 -3.0477 -0.3185 -0.1718
  142SAPE  H14Y15597   4.495   6.761   9.040 -0.8121  1.3352 -1.4077
  142SAPE  C31515598   4.589   6.767   8.840 -0.3656  0.0890  0.0382
  142SAPE  H15X15599   4.616   6.659   8.837 -3.0211 -0.7725  2.0910
  142SAPE  H15Y15600   4.681   6.812   8.798  0.6148 -2.0056 -0.1739
  142SAPE  C31615601   4.462   6.795   8.765 -0.3905  0.1103  0.5586
  142SAPE  H16X15602   4.427   6.899   8.783 -0.3272  0.3726 -0.7381
  142SAPE  H16Y15603   4.388   6.723   8.807 -0.7663  1.5382  2.4694
  142SAPE  C31715604   4.470   6.770   8.614 -0.2715 -0.1347 -0.3736
  142SAPE  H17X15605   4.499   6.664   8.594 -1.8554 -0.2931 -2.1358
  142SAPE  H17Y15606   4.551   6.824   8.562 -1.4961  0.1038 -2.1144
  142SAPE  C31815607   4.336   6.801   8.546 -0.3307  0.5057  0.2938
  142SAPE  H18X15608   4.342   6.902   8.499  0.4574  0.2042 -0.2637
  142SAPE  H18Y15609   4.249   6.795   8.616 -0.2798  0.6235  0.3689
  142SAPE  H18Z15610   4.323   6.731   8.461 -0.6260  0.8131  0.0805
  143SAPE     N15611   4.964   2.114  10.910 -0.7634 -0.2950 -0.6114
  143SAPE   HN115612   5.045   2.049  10.906  0.8099  1.3932  1.2067
  143SAPE   HN215613   5.002   2.211  10.905 -0.2647 -0.1169  3.1345
  143SAPE   HN315614   4.930   2.089  11.005  0.7360 -0.6649 -0.1459
  143SAPE   C1215615   4.849   2.082  10.811  0.4670  0.0732 -0.2228
  143SAPE  H12A15616   4.886   2.102  10.708  0.7213  2.5056  0.2905
  143SAPE  H12B15617   4.776   2.161  10.839  1.4091  0.5709  0.9199
  143SAPE   C1115618   4.772   1.958  10.847  0.0947 -0.5602  0.3789
  143SAPE  H11A15619   4.667   1.965  10.812 -0.0856  1.2170  1.1568
  143SAPE  H11B15620   4.766   1.950  10.958 -0.3311  1.3178  0.5245
  143SAPE     P15621   4.757   1.714  10.774 -0.2165 -0.0415  0.4608
  143SAPE   O1315622   4.837   1.611  10.713 -0.6911 -0.0793 -0.4736
  143SAPE   O1415623   4.688   1.686  10.900  0.3860 -0.5943  0.2676
  143SAPE   O1215624   4.842   1.844  10.789 -0.0277  0.2246  0.5765
  143SAPE   O1115625   4.656   1.752  10.661  0.3829  0.6453 -0.1974
  143SAPE    C115626   4.702   1.827  10.551 -0.2780  0.4626  0.1487
  143SAPE    HA15627   4.619   1.892  10.514 -1.5319 -1.0548  0.2126
  143SAPE    HB15628   4.786   1.893  10.581  0.2079 -1.3526  3.2059
  143SAPE    C215629   4.739   1.740  10.423 -0.5265  0.1775 -0.2799
  143SAPE    HS15630   4.833   1.683  10.441 -0.5805  0.3367  0.5587
  143SAPE   O2115631   4.760   1.819  10.307  0.5706  0.6143 -0.0894
  143SAPE   C2115632   4.888   1.864  10.302 -0.0732  0.1519 -0.6675
  143SAPE   O2215633   4.979   1.844  10.382  0.3723 -0.2407  0.8744
  143SAPE   C2215634   4.905   1.931  10.167 -0.0988 -0.3076 -0.1659
  143SAPE   H2R15635   4.944   1.858  10.093  0.0400 -0.2539 -0.1447
  143SAPE   H2S15636   4.815   1.977  10.120  3.5978  5.1007 -3.0731
  143SAPE    C315637   4.624   1.637  10.398  0.2118 -0.5475  0.1178
  143SAPE    HX15638   4.526   1.690  10.397 -0.1880 -1.2693  0.2384
  143SAPE    HY15639   4.624   1.582  10.494  1.8848 -0.1084  0.3963
  143SAPE   O3115640   4.650   1.547  10.292 -1.1340 -0.3439  0.5012
  143SAPE   C3115641   4.731   1.449  10.303 -0.3810 -0.7328 -0.4652
  143SAPE   O3215642   4.796   1.406  10.397  0.1722  0.0791 -0.1825
  143SAPE   C3215643   4.728   1.390  10.165  0.0944  0.5132 -0.4411
  143SAPE   H2X15644   4.628   1.389  10.116  0.1544  2.8032 -0.7051
  143SAPE   H2Y15645   4.754   1.283  10.179  1.8698  0.8335 -0.9620
  143SAPE   C2315646   5.017   2.043  10.148 -0.1429 -0.4344  0.3644
  143SAPE   H3R15647   5.120   2.002  10.141 -1.3666 -3.7810  0.0870
  143SAPE   H3S15648   5.029   2.096  10.245  1.2645 -1.9322  1.0563
  143SAPE   C2415649   4.974   2.123  10.021  0.8405  0.3775  0.5786
  143SAPE   H4R15650   4.956   2.045   9.944 -0.6537  1.4401 -0.2028
  143SAPE   H4S15651   5.064   2.177   9.982  1.0111 -0.6694 -0.5370
  143SAPE   C2515652   4.854   2.218  10.035 -0.3776 -0.5054 -0.5272
  143SAPE   H5R15653   4.860   2.296  10.113 -0.4415 -2.6484  1.7555
  143SAPE   C2615654   4.739   2.212   9.965 -0.2848 -0.1314  0.0801
  143SAPE   H6R15655   4.664   2.287   9.995  2.3135  3.0082 -0.7415
  143SAPE   C2715656   4.702   2.122   9.854 -0.0249 -0.5939 -0.0048
  143SAPE   H7R15657   4.620   2.053   9.882 -0.7750  0.2455 -0.0747
  143SAPE   H7S15658   4.786   2.056   9.824 -0.0762 -0.6899  0.0648
  143SAPE   C2815659   4.646   2.191   9.731  0.2250 -0.3084  0.0637
  143SAPE   H8R15660   4.537   2.205   9.737 -0.0886 -2.2194 -0.3179
  143SAPE   C2915661   4.711   2.217   9.614 -0.6458  0.8918 -1.1946
  143SAPE   H9R15662   4.659   2.258   9.526 -0.8943 -0.4925 -1.7281
  143SAPE  C21015663   4.861   2.188   9.593  0.4746  0.4508  0.3809
  143SAPE  H10R15664   4.877   2.171   9.484 -1.7320 -2.6459  0.4211
  143SAPE  H10S15665   4.896   2.090   9.631  2.1239  1.1286  0.6828
  143SAPE  C21115666   4.944   2.290   9.659 -0.0218  0.0445 -0.1522
  143SAPE  H11R15667   4.999   2.256   9.748 -0.6734 -0.1143  0.2004
  143SAPE  C21215668   4.966   2.413   9.613  0.3348  0.3103 -0.2015
  143SAPE  H12R15669   5.039   2.474   9.669  1.0974 -0.9658  0.2362
  143SAPE  C21315670   4.909   2.483   9.491  0.0046 -0.2297 -0.6290
  143SAPE  H13R15671   4.907   2.593   9.508 -0.0798 -0.2523 -0.4887
  143SAPE  H13S15672   4.799   2.475   9.476  0.0435 -0.5172 -0.7588
  143SAPE  C21415673   4.993   2.466   9.364  0.4216  0.3783  0.2603
  143SAPE  H14R15674   5.092   2.513   9.370 -0.1115  1.4932  0.5468
  143SAPE  C21515675   4.955   2.398   9.253 -0.6260 -0.7467 -0.0792
  143SAPE  H15R15676   5.021   2.391   9.166  2.0787 -4.2808  1.9994
  143SAPE  C21615677   4.819   2.328   9.229  0.3350  0.0635  0.2637
  143SAPE  H16R15678   4.736   2.400   9.215 -0.4083 -1.1197 -1.7641
  143SAPE  H16S15679   4.798   2.267   9.320  1.8011 -0.0964  0.5278
  143SAPE  C21715680   4.832   2.227   9.108  0.2055 -0.6352  0.5121
  143SAPE  H17R15681   4.734   2.175   9.103 -1.1944  1.8488  0.0534
  143SAPE  H17S15682   4.922   2.163   9.120  1.1754  0.4824 -0.5220
  143SAPE  C21815683   4.841   2.308   8.974 -0.5260  0.1513  0.6633
  143SAPE  H18R15684   4.924   2.380   8.961 -0.7666  0.6129  1.6151
  143SAPE  H18S15685   4.750   2.372   8.969 -1.2282 -0.7812  1.0566
  143SAPE  C21915686   4.841   2.217   8.857  0.4074  0.1257 -0.4622
  143SAPE  H19R15687   4.752   2.150   8.859  1.3142 -1.0888  0.4673
  143SAPE  H19S15688   4.919   2.138   8.855 -0.3850 -0.6891 -2.8616
  143SAPE  C22015689   4.849   2.278   8.712  0.4183  0.2093 -0.0918
  143SAPE  H20R15690   4.833   2.202   8.633  1.3093 -0.6423  0.5142
  143SAPE  H20S15691   4.936   2.334   8.674 -0.4505  0.8904 -1.1439
  143SAPE  H20T15692   4.765   2.350   8.707 -1.2444 -1.6022  0.1589
  143SAPE   C3315693   4.814   1.467  10.064 -0.4861  0.6776  0.5115
  143SAPE   H3X15694   4.843   1.388   9.991  0.5180  1.7193 -0.2442
  143SAPE   H3Y15695   4.912   1.502  10.102  0.1156  0.7963 -1.0819
  143SAPE   C3415696   4.759   1.593   9.988 -0.0238 -0.0700 -0.1169
  143SAPE   H4X15697   4.749   1.678  10.058  2.2547 -0.2371  0.4958
  143SAPE   H4Y15698   4.659   1.574   9.943  0.7766 -0.1184 -1.9972
  143SAPE   C3515699   4.841   1.648   9.874  0.5545 -0.5012  0.0368
  143SAPE   H5X15700   4.873   1.562   9.810  2.7043  1.2146 -1.3532
  143SAPE   H5Y15701   4.927   1.697   9.924 -1.7119  3.8316  0.1083
  143SAPE   C3615702   4.776   1.756   9.793 -0.0918  0.8740 -0.6744
  143SAPE   H6X15703   4.851   1.822   9.743  0.1039  0.1260 -1.4080
  143SAPE   H6Y15704   4.719   1.820   9.863  2.0604 -0.2749  2.3266
  143SAPE   C3715705   4.688   1.708   9.675 -0.6585 -0.2897 -0.3657
  143SAPE   H7X15706   4.613   1.636   9.714  0.3381 -1.4820 -0.6040
  143SAPE   H7Y15707   4.753   1.653   9.604  0.2219  1.9989 -1.4460
  143SAPE   C3815708   4.636   1.824   9.589 -0.5465 -0.0485 -0.4129
  143SAPE   H8X15709   4.724   1.878   9.550  2.1343 -3.0586  0.9429
  143SAPE   H8Y15710   4.571   1.886   9.655  0.1567  1.9390 -1.5165
  143SAPE   C3915711   4.550   1.777   9.470 -0.2000 -0.3942  0.3741
  143SAPE   H9X15712   4.463   1.712   9.494 -0.7303  0.4736  0.8529
  143SAPE   H9Y15713   4.619   1.713   9.411  1.8128  3.1180 -1.3456
  143SAPE  C31015714   4.494   1.899   9.384 -0.6934 -0.8323 -0.2473
  143SAPE  H10X15715   4.582   1.965   9.367  0.1907 -1.0666  2.8635
  143SAPE  H10Y15716   4.435   1.966   9.449  1.9682  0.1750  1.2775
  143SAPE  C31115717   4.425   1.849   9.257 -0.2563  0.1414  0.1478
  143SAPE  H11X15718   4.332   1.807   9.302  0.0150  0.1622  0.7466
  143SAPE  H11Y15719   4.479   1.769   9.202  2.2167  0.6993  1.6062
  143SAPE  C31215720   4.388   1.963   9.168 -0.1602 -0.1585  0.0437
  143SAPE  H12X15721   4.484   2.002   9.127  1.6011 -2.3451  1.7903
  143SAPE  H12Y15722   4.342   2.044   9.228  0.1137  1.0049 -1.2413
  143SAPE  C31315723   4.277   1.930   9.064  0.6053 -0.3237  0.1494
  143SAPE  H13X15724   4.225   2.027   9.055  3.7012  1.4139 -0.2610
  143SAPE  H13Y15725   4.202   1.862   9.109  0.1749 -0.3674 -0.6205
  143SAPE  C31415726   4.324   1.880   8.932  0.4705 -0.8757 -0.2801
  143SAPE  H14X15727   4.366   1.777   8.930  0.8721 -0.7312  0.5565
  143SAPE  H14Y15728   4.410   1.945   8.905  0.0065  0.3181  1.0272
  143SAPE  C31515729   4.200   1.907   8.834 -0.8055  0.3823 -0.4137
  143SAPE  H15X15730   4.180   2.016   8.820  0.5288  0.9522  1.6571
  143SAPE  H15Y15731   4.116   1.865   8.893 -1.0642  0.4618 -0.7245
  143SAPE  C31615732   4.211   1.834   8.697 -0.0869 -0.3989 -0.5788
  143SAPE  H16X15733   4.210   1.724   8.715 -0.0069 -0.1035  1.5234
  143SAPE  H16Y15734   4.307   1.854   8.646 -0.5513 -0.2524 -1.4097
  143SAPE  C31715735   4.094   1.872   8.605 -0.3038  0.6567 -0.3548
  143SAPE  H17X15736   4.116   1.824   8.507  0.2635  2.1350 -0.9789
  143SAPE  H17Y15737   4.104   1.981   8.588  2.9836  0.3960 -0.6639
  143SAPE  C31815738   3.952   1.832   8.641  0.0385 -0.1867  0.1501
  143SAPE  H18X15739   3.894   1.804   8.551  1.1000 -2.2207  0.0455
  143SAPE  H18Y15740   3.897   1.914   8.692 -0.8203 -1.0176  0.5984
  143SAPE  H18Z15741   3.951   1.746   8.711 -1.1670  0.4917  1.0018
  144SAPE     N15742   2.770   5.561  11.309  0.1511 -0.4828  0.1313
  144SAPE   HN115743   2.806   5.577  11.406 -0.0216  2.0473 -0.1421
  144SAPE   HN215744   2.850   5.577  11.244 -0.1940  0.5548 -0.0609
  144SAPE   HN315745   2.696   5.632  11.290  0.2234 -0.5279 -0.3313
  144SAPE   C1215746   2.710   5.426  11.292  0.1615  1.4521 -0.1248
  144SAPE  H12A15747   2.606   5.425  11.331  0.0311 -1.4434 -0.3526
  144SAPE  H12B15748   2.774   5.363  11.358 -1.5627  1.4144  1.6051
  144SAPE   C1115749   2.712   5.384  11.146  0.1288 -0.0633 -0.0641
  144SAPE  H11A15750   2.677   5.279  11.137 -0.2928  0.0974 -0.3330
  144SAPE  H11B15751   2.816   5.371  11.109 -0.1694 -0.9448 -0.6249
  144SAPE     P15752   2.549   5.449  10.954 -0.5640  0.1066  0.3323
  144SAPE   O1315753   2.438   5.379  11.016 -0.2851  0.1507  0.1019
  144SAPE   O1415754   2.528   5.571  10.878 -0.2835  0.2539 -0.1777
  144SAPE   O1215755   2.653   5.485  11.062 -0.3322  0.3321  0.2048
  144SAPE   O1115756   2.635   5.346  10.864 -0.1210  0.9932  0.3647
  144SAPE    C115757   2.746   5.370  10.786 -0.5220 -0.3643 -0.7634
  144SAPE    HA15758   2.783   5.474  10.792 -0.0850 -0.5387 -0.3869
  144SAPE    HB15759   2.821   5.301  10.830 -2.1972 -2.3630 -0.8455
  144SAPE    C215760   2.714   5.330  10.637 -0.2504  0.0426 -0.0726
  144SAPE    HS15761   2.804   5.324  10.572  0.8469  1.4438  1.2270
  144SAPE   O2115762   2.610   5.411  10.580 -0.3743  0.0509  0.2663
  144SAPE   C2115763   2.644   5.530  10.545 -0.0335  0.1805 -0.1430
  144SAPE   O2215764   2.758   5.573  10.547  0.2684 -0.2101 -0.4012
  144SAPE   C2215765   2.532   5.608  10.484  0.6445 -0.1874 -0.9293
  144SAPE   H2R15766   2.441   5.586  10.544 -0.3884  1.3437 -1.8508
  144SAPE   H2S15767   2.561   5.714  10.493  1.1191 -0.4926  1.7397
  144SAPE    C315768   2.678   5.178  10.630  0.1964  0.0252 -0.2393
  144SAPE    HX15769   2.591   5.171  10.699  0.2638  2.0053  0.1019
  144SAPE    HY15770   2.769   5.121  10.659  1.1306  1.6004  0.0366
  144SAPE   O3115771   2.658   5.145  10.486  0.2661 -0.4333 -0.4476
  144SAPE   C3115772   2.550   5.064  10.463 -0.6514 -0.4338 -0.2401
  144SAPE   O3215773   2.496   5.008  10.550  0.5705  0.2197 -0.1106
  144SAPE   C3215774   2.524   5.058  10.315 -0.0517  0.9767  0.2384
  144SAPE   H2X15775   2.416   5.065  10.291 -0.5329  2.2524  2.4500
  144SAPE   H2Y15776   2.564   4.958  10.290 -2.4610 -0.5692  2.1885
  144SAPE   C2315777   2.493   5.570  10.338  0.1943  0.0724 -0.1352
  144SAPE   H3R15778   2.406   5.617  10.288 -0.9090 -0.9471  0.7671
  144SAPE   H3S15779   2.460   5.464  10.338 -0.4062  0.2419  1.5001
  144SAPE   C2415780   2.613   5.592  10.238 -0.1950 -0.0285  0.0052
  144SAPE   H4R15781   2.591   5.555  10.136  2.3387  1.2183 -1.1064
  144SAPE   H4S15782   2.701   5.539  10.281  1.1022  3.6376  2.3834
  144SAPE   C2515783   2.656   5.736  10.239 -0.3850 -0.0643 -0.3361
  144SAPE   H5R15784   2.680   5.788  10.333 -0.3346  0.0075 -0.3893
  144SAPE   C2615785   2.650   5.817  10.134 -0.1539  0.6886  0.1677
  144SAPE   H6R15786   2.682   5.919  10.157  0.0073  0.3544  1.5019
  144SAPE   C2715787   2.608   5.787   9.991 -0.4437 -1.4844  0.8634
  144SAPE   H7R15788   2.510   5.737   9.987  0.0026 -2.3526 -1.9821
  144SAPE   H7S15789   2.686   5.715   9.958  0.5314  0.0297 -0.3008
  144SAPE   C2815790   2.611   5.910   9.899 -0.3146  0.6161  0.2564
  144SAPE   H8R15791   2.638   6.002   9.953 -1.1965  1.0249  0.0102
  144SAPE   C2915792   2.580   5.916   9.771  0.6069  0.4304 -0.0295
  144SAPE   H9R15793   2.580   6.018   9.730  0.9674  0.1073 -0.8652
  144SAPE  C21015794   2.525   5.812   9.673  0.1093  0.3350 -0.3880
  144SAPE  H10R15795   2.500   5.717   9.723 -1.9560  1.2634  0.4755
  144SAPE  H10S15796   2.593   5.795   9.587  0.0413 -0.5418 -0.2780
  144SAPE  C21115797   2.394   5.872   9.622  0.4721 -0.2510 -1.0157
  144SAPE  H11R15798   2.314   5.889   9.695 -0.1367  2.6949 -2.2454
  144SAPE  C21215799   2.359   5.894   9.496  0.5486  0.2045 -0.1331
  144SAPE  H12R15800   2.265   5.946   9.472  0.6031 -0.3527 -1.6801
  144SAPE  C21315801   2.451   5.864   9.377  0.2233  0.5365  0.1787
  144SAPE  H13R15802   2.558   5.865   9.409  0.5702  1.1431 -0.9546
  144SAPE  H13S15803   2.447   5.952   9.310 -1.2968  0.0288 -0.4221
  144SAPE  C21415804   2.424   5.731   9.316  0.2855 -0.5304 -0.1682
  144SAPE  H14R15805   2.440   5.638   9.373 -2.4209 -1.4170 -0.6632
  144SAPE  C21515806   2.369   5.702   9.199 -0.3977  0.0523 -0.1634
  144SAPE  H15R15807   2.366   5.598   9.165  1.0140 -0.0209 -0.1141
  144SAPE  C21615808   2.325   5.797   9.095  0.5768 -0.7035  0.6742
  144SAPE  H16R15809   2.367   5.896   9.122  1.8815 -0.8223 -0.7265
  144SAPE  H16S15810   2.214   5.806   9.095  0.6925  0.9906  0.3246
  144SAPE  C21715811   2.361   5.760   8.948  1.3881 -0.6916 -0.2926
  144SAPE  H17R15812   2.306   5.837   8.889  3.2037  0.5652 -0.4321
  144SAPE  H17S15813   2.315   5.661   8.930  1.2691 -0.4411 -1.4680
  144SAPE  C21815814   2.512   5.754   8.910  0.4878 -0.0287  0.1308
  144SAPE  H18R15815   2.565   5.696   8.989  1.5987  1.9279  0.8874
  144SAPE  H18S15816   2.535   5.862   8.923 -0.8128  0.4907 -1.6150
  144SAPE  C21915817   2.544   5.707   8.766  0.7536  0.0275  0.4441
  144SAPE  H19R15818   2.525   5.598   8.760 -2.8278  0.5737 -0.4006
  144SAPE  H19S15819   2.652   5.723   8.745  0.4484 -0.4685 -1.7491
  144SAPE  C22015820   2.455   5.774   8.656 -0.0140  0.4972  0.5046
  144SAPE  H20R15821   2.510   5.765   8.559 -0.4376  1.2618  0.1849
  144SAPE  H20S15822   2.448   5.883   8.680 -3.5067  0.1766  1.4899
  144SAPE  H20T15823   2.357   5.723   8.649 -0.5118  1.6315 -1.6472
  144SAPE   C3315824   2.592   5.172  10.234  0.0560 -0.2780  0.8873
  144SAPE   H3X15825   2.698   5.192  10.263 -0.3165 -0.9856  2.8438
  144SAPE   H3Y15826   2.523   5.256  10.254 -1.2506 -1.3489  1.0601
  144SAPE   C3415827   2.597   5.139  10.081 -0.2747 -0.0048 -0.6340
  144SAPE   H4X15828   2.525   5.059  10.055 -0.0052 -0.8772  1.1299
  144SAPE   H4Y15829   2.695   5.091  10.059  0.0489 -1.6523  3.4128
  144SAPE   C3515830   2.570   5.261   9.993  0.1468  0.1624 -0.0927
  144SAPE   H5X15831   2.644   5.340  10.017 -0.4296  0.9099 -0.7049
  144SAPE   H5Y15832   2.466   5.298  10.007  0.1484 -0.3627  1.4428
  144SAPE   C3615833   2.585   5.220   9.845 -0.7146  0.4727  0.0577
  144SAPE   H6X15834   2.504   5.149   9.817 -0.0698 -0.1857 -0.1554
  144SAPE   H6Y15835   2.683   5.173   9.823 -0.7956 -0.2865  1.2437
  144SAPE   C3715836   2.578   5.332   9.744  0.5799  0.2020  0.2847
  144SAPE   H7X15837   2.655   5.408   9.768  1.7965 -0.8650 -0.1037
  144SAPE   H7Y15838   2.475   5.374   9.737 -0.9590 -2.9777  1.8090
  144SAPE   C3815839   2.615   5.291   9.598  0.3765  0.3014  0.1324
  144SAPE   H8X15840   2.618   5.180   9.593 -0.1783  0.2142  1.3450
  144SAPE   H8Y15841   2.719   5.317   9.569  0.8125 -0.5756  0.8534
  144SAPE   C3915842   2.526   5.351   9.488 -0.4127 -0.5713 -0.6612
  144SAPE   H9X15843   2.543   5.456   9.459 -0.6649 -0.1753  0.5576
  144SAPE   H9Y15844   2.419   5.352   9.519 -0.2217 -1.7936  0.1498
  144SAPE  C31015845   2.551   5.283   9.353 -0.2379 -0.8994  0.3720
  144SAPE  H10X15846   2.508   5.180   9.358  1.3236 -1.6241 -0.3702
  144SAPE  H10Y15847   2.658   5.284   9.323 -0.4875 -1.8012 -0.6169
  144SAPE  C31115848   2.469   5.355   9.239 -0.6181 -0.1349 -0.7419
  144SAPE  H11X15849   2.529   5.448   9.241  0.7871 -0.9456  2.8499
  144SAPE  H11Y15850   2.363   5.372   9.270 -0.8513  1.5850 -2.3029
  144SAPE  C31215851   2.468   5.282   9.104  0.4844  0.0293  0.6773
  144SAPE  H12X15852   2.481   5.171   9.110  0.2679 -0.3744 -3.4119
  144SAPE  H12Y15853   2.559   5.297   9.042  0.5384  1.2791  1.0375
  144SAPE  C31315854   2.344   5.323   9.017  0.4828 -0.3010 -0.2856
  144SAPE  H13X15855   2.364   5.425   8.976  0.0503 -0.0744  0.0500
  144SAPE  H13Y15856   2.261   5.323   9.091  1.7068  0.2825  1.1335
  144SAPE  C31415857   2.310   5.222   8.905 -0.2468 -0.1908 -0.3928
  144SAPE  H14X15858   2.299   5.119   8.948  0.4825  0.6128  1.8585
  144SAPE  H14Y15859   2.395   5.225   8.835 -0.9389  0.9196 -1.1990
  144SAPE  C31515860   2.189   5.268   8.828  0.0396  0.2506  0.7367
  144SAPE  H15X15861   2.177   5.378   8.816  1.2293  0.2484 -0.8536
  144SAPE  H15Y15862   2.101   5.237   8.889 -0.2887  1.7372  1.0670
  144SAPE  C31615863   2.180   5.209   8.681  0.3285  0.5899  0.2711
  144SAPE  H16X15864   2.078   5.197   8.639  0.6483  0.3051 -0.4332
  144SAPE  H16Y15865   2.213   5.104   8.693 -1.7617 -0.1669 -0.1168
  144SAPE  C31715866   2.268   5.259   8.572  0.3065  0.0354  0.1071
  144SAPE  H17X15867   2.372   5.261   8.612  0.9515  0.2605 -1.4997
  144SAPE  H17Y15868   2.243   5.366   8.555 -0.5375 -0.0810  0.6164
  144SAPE  C31815869   2.260   5.172   8.441  0.1601 -0.1887  0.2014
  144SAPE  H18X15870   2.312   5.227   8.359 -0.9868  1.4351  0.5123
  144SAPE  H18Y15871   2.154   5.150   8.417  0.2125  1.0432 -1.3795
  144SAPE  H18Z15872   2.329   5.085   8.447  0.9887  0.4595  0.2537
  145SAPE     N15873   6.178   0.789  11.511 -0.1089  0.5984  0.4219
  145SAPE   HN115874   6.168   0.687  11.497  0.5898  0.5503  0.2765
  145SAPE   HN215875   6.163   0.810  11.612  1.2279 -2.4566  1.3682
  145SAPE   HN315876   6.099   0.831  11.457  0.5687 -1.2777 -2.2121
  145SAPE   C1215877   6.308   0.848  11.456  0.0086 -0.5614  0.0270
  145SAPE  H12A15878   6.395   0.834  11.524  0.0880  1.0126  0.2830
  145SAPE  H12B15879   6.300   0.958  11.442  3.0774 -0.0189  1.6373
  145SAPE   C1115880   6.332   0.797  11.309 -0.1862  0.6085 -1.2854
  145SAPE  H11A15881   6.423   0.844  11.265  1.3157 -1.8906 -1.0336
  145SAPE  H11B15882   6.245   0.837  11.252 -1.4897 -0.0135  0.2023
  145SAPE     P15883   6.379   0.590  11.157 -0.0046  0.3409  0.0765
  145SAPE   O1315884   6.521   0.597  11.125 -0.4319 -0.1464 -0.4783
  145SAPE   O1415885   6.321   0.455  11.173  0.2946 -0.2463  0.0253
  145SAPE   O1215886   6.355   0.660  11.297 -0.5461  0.2445  0.0976
  145SAPE   O1115887   6.299   0.681  11.056 -0.4441  0.8844  0.6516
  145SAPE    C115888   6.296   0.630  10.920  0.2641  0.1395 -0.2716
  145SAPE    HA15889   6.258   0.722  10.870  0.3816  1.8102  2.4710
  145SAPE    HB15890   6.399   0.612  10.881 -0.2446  0.7602 -1.9797
  145SAPE    C215891   6.193   0.515  10.900 -0.4671 -0.7563 -0.3413
  145SAPE    HS15892   6.223   0.425  10.957  1.2750 -1.5254 -2.3440
  145SAPE   O2115893   6.198   0.479  10.761 -0.0698  0.1835 -0.1983
  145SAPE   C2115894   6.301   0.418  10.720  0.1241 -0.1362 -0.2642
  145SAPE   O2215895   6.395   0.381  10.788  0.1480  0.0799 -0.9484
  145SAPE   C2215896   6.288   0.393  10.567 -0.3046  0.0527  0.5476
  145SAPE   H2R15897   6.230   0.299  10.560 -1.1268  0.6290 -0.7757
  145SAPE   H2S15898   6.228   0.472  10.517  1.1934 -0.9335 -3.1259
  145SAPE    C315899   6.048   0.550  10.943 -0.1323 -0.5994  0.4081
  145SAPE    HX15900   6.031   0.572  11.050  2.8558 -1.0059  1.0498
  145SAPE    HY15901   5.993   0.459  10.911 -0.4078  0.3268 -1.9444
  145SAPE   O3115902   5.984   0.662  10.858  0.2152 -0.0376 -0.4810
  145SAPE   C3115903   5.939   0.630  10.737 -0.2322 -0.0015  0.4688
  145SAPE   O3215904   5.942   0.515  10.691  0.4184  0.2593  0.4482
  145SAPE   C3215905   5.891   0.759  10.663  0.2535  0.1114 -0.4024
  145SAPE   H2X15906   5.969   0.838  10.673 -1.7558  2.3445 -1.1162
  145SAPE   H2Y15907   5.801   0.799  10.716 -0.5244  0.3235 -1.8250
  145SAPE   C2315908   6.422   0.375  10.496 -0.7014  0.3921 -0.2779
  145SAPE   H3R15909   6.492   0.330  10.569  0.0643  0.5498 -0.9013
  145SAPE   H3S15910   6.461   0.475  10.468 -0.3397  0.0990 -0.8396
  145SAPE   C2415911   6.411   0.289  10.367 -0.1585 -0.0346 -0.0587
  145SAPE   H4R15912   6.491   0.309  10.294 -0.0707  1.9078  0.5233
  145SAPE   H4S15913   6.322   0.333  10.317  1.4105  2.8345 -0.5335
  145SAPE   C2515914   6.408   0.140  10.376  0.1419 -0.5639 -0.1535
  145SAPE   H5R15915   6.486   0.094  10.438  0.1199 -0.7603 -0.2718
  145SAPE   C2615916   6.314   0.061  10.317  0.4738 -0.0350 -0.0758
  145SAPE   H6R15917   6.310  -0.046  10.341  0.0091 -0.3601 -1.5167
  145SAPE   C2715918   6.201   0.103  10.235 -0.3068  0.2274 -0.8377
  145SAPE   H7R15919   6.233   0.180  10.161 -0.8573  0.1626 -1.1444
  145SAPE   H7S15920   6.140   0.171  10.298 -0.7501 -0.5157 -0.4531
  145SAPE   C2815921   6.129  -0.008  10.168 -0.1541  0.0108  0.6409
  145SAPE   H8R15922   6.072  -0.074  10.235  1.3789 -0.4751  1.5259
  145SAPE   C2915923   6.115  -0.020  10.033 -0.0256 -0.2163 -0.3059
  145SAPE   H9R15924   6.039  -0.089   9.993  0.0394 -2.6300  3.2641
  145SAPE  C21015925   6.178   0.066   9.925 -0.0328  0.3191 -0.1266
  145SAPE  H10R15926   6.253   0.142   9.955  0.7378  0.1198 -1.4740
  145SAPE  H10S15927   6.099   0.124   9.872 -1.4397 -1.5479 -0.1633
  145SAPE  C21115928   6.260  -0.022   9.840 -0.0338 -0.6141  0.5431
  145SAPE  H11R15929   6.345  -0.068   9.892  1.5892  0.7415 -0.7968
  145SAPE  C21215930   6.229  -0.052   9.714  0.3051 -0.6038  0.5707
  145SAPE  H12R15931   6.302  -0.105   9.651 -0.4751 -0.5245 -0.4126
  145SAPE  C21315932   6.103  -0.012   9.632  0.3816 -0.2642 -0.6903
  145SAPE  H13R15933   6.135   0.068   9.562  0.7924  0.3946  0.2216
  145SAPE  H13S15934   6.019   0.024   9.696  0.9078 -0.3883  0.0846
  145SAPE  C21415935   6.050  -0.130   9.551  0.7178 -0.6073 -0.1903
  145SAPE  H14R15936   6.101  -0.227   9.541 -0.8431 -1.3379 -1.8358
  145SAPE  C21515937   5.939  -0.103   9.471  0.2315 -0.0459  0.0567
  145SAPE  H15R15938   5.905  -0.183   9.404  0.2332  0.5494 -0.6639
  145SAPE  C21615939   5.862   0.021   9.450  0.0578 -0.6420  0.2407
  145SAPE  H16R15940   5.907   0.106   9.506 -0.1799 -0.7412  0.5852
  145SAPE  H16S15941   5.755   0.003   9.473 -0.5541  0.8094 -1.2286
  145SAPE  C21715942   5.857   0.064   9.304 -0.2618  0.4620 -0.0467
  145SAPE  H17R15943   5.802  -0.014   9.246  0.1957 -0.0161  0.1526
  145SAPE  H17S15944   5.959   0.068   9.260  0.6737 -1.7697  1.6808
  145SAPE  C21815945   5.780   0.198   9.277  0.1477 -0.0724  0.8317
  145SAPE  H18R15946   5.821   0.269   9.352  2.5452  0.6818 -1.0468
  145SAPE  H18S15947   5.671   0.193   9.295  0.1920  0.1644  1.1775
  145SAPE  C21915948   5.806   0.263   9.139  0.6372  0.7925  0.3424
  145SAPE  H19R15949   5.913   0.285   9.118  0.2943  1.1366 -1.1209
  145SAPE  H19S15950   5.762   0.365   9.134  2.1780  1.5587  1.4197
  145SAPE  C22015951   5.745   0.183   9.028 -0.2094 -0.5770 -0.0326
  145SAPE  H20R15952   5.772   0.221   8.927  0.6478 -2.9718 -0.7744
  145SAPE  H20S15953   5.637   0.209   9.035 -0.7510 -3.0494  2.1869
  145SAPE  H20T15954   5.759   0.074   9.041  0.5207 -0.2744  2.0861
  145SAPE   C3315955   5.845   0.738  10.518  0.5035  0.3286  0.2537
  145SAPE   H3X15956   5.761   0.665  10.520 -0.2252  1.0812 -1.1468
  145SAPE   H3Y15957   5.935   0.701  10.464  0.1815  1.2102 -0.9271
  145SAPE   C3415958   5.802   0.870  10.453  0.0838 -0.5067  0.5133
  145SAPE   H4X15959   5.877   0.950  10.473  0.8780 -1.0422 -0.2375
  145SAPE   H4Y15960   5.704   0.911  10.484 -0.8896 -0.4481 -2.3288
  145SAPE   C3515961   5.795   0.857  10.293  0.7665 -0.0871 -0.3448
  145SAPE   H5X15962   5.888   0.802  10.266  0.2488  0.0427 -2.6162
  145SAPE   H5Y15963   5.794   0.965  10.266 -0.4948  0.1528  0.5664
  145SAPE   C3615964   5.660   0.795  10.240 -0.1890  0.3542  0.0950
  145SAPE   H6X15965   5.582   0.829  10.312  0.1131 -0.1095  0.6506
  145SAPE   H6Y15966   5.664   0.684  10.249 -1.9530  0.2943  0.7531
  145SAPE   C3715967   5.629   0.843  10.103  0.3811  0.7755  0.0678
  145SAPE   H7X15968   5.723   0.841  10.044  1.1640 -0.7549  1.3021
  145SAPE   H7Y15969   5.611   0.953  10.102  1.8599  1.1032 -2.9849
  145SAPE   C3815970   5.524   0.767  10.022  0.2750  0.3217  0.9822
  145SAPE   H8X15971   5.445   0.727  10.089 -0.0265  0.4280  0.6913
  145SAPE   H8Y15972   5.567   0.677   9.975 -1.1645 -0.8083  1.7381
  145SAPE   C3915973   5.469   0.848   9.912  0.5343 -0.0452  0.3239
  145SAPE   H9X15974   5.549   0.900   9.857 -1.1752  0.3970 -1.9041
  145SAPE   H9Y15975   5.422   0.935   9.962 -2.4964 -0.2110 -1.9670
  145SAPE  C31015976   5.368   0.782   9.818  0.5008  0.1419  0.0818
  145SAPE  H10X15977   5.289   0.735   9.879  0.7407 -0.7142 -0.2570
  145SAPE  H10Y15978   5.426   0.701   9.770  0.4500  1.0094 -1.5323
  145SAPE  C31115979   5.316   0.877   9.712 -0.3224 -0.5254  0.0070
  145SAPE  H11X15980   5.403   0.932   9.671 -0.7492  1.6310  1.8311
  145SAPE  H11Y15981   5.258   0.959   9.758  1.4400  0.4816  0.5398
  145SAPE  C31215982   5.258   0.810   9.587 -0.0932 -0.3837  0.3051
  145SAPE  H12X15983   5.166   0.751   9.608 -0.1812 -0.5755 -0.5983
  145SAPE  H12Y15984   5.336   0.739   9.553 -0.6977 -1.4377  1.0611
  145SAPE  C31315985   5.243   0.916   9.474  0.5439  0.8680  0.2409
  145SAPE  H13X15986   5.337   0.975   9.479  0.0833  1.5718  1.0224
  145SAPE  H13Y15987   5.161   0.989   9.492  1.0246  1.5312 -0.2107
  145SAPE  C31415988   5.225   0.845   9.337 -0.3246 -0.3496 -0.1405
  145SAPE  H14X15989   5.125   0.797   9.348  0.2207 -1.3550  0.5462
  145SAPE  H14Y15990   5.296   0.761   9.323 -0.7131 -0.5054 -1.3336
  145SAPE  C31515991   5.219   0.941   9.216  0.2358 -0.0823 -0.4230
  145SAPE  H15X15992   5.303   1.013   9.214  1.1277 -1.0711  0.2134
  145SAPE  H15Y15993   5.133   1.007   9.240  0.8420  0.2936  0.8145
  145SAPE  C31615994   5.205   0.867   9.079 -0.4482 -0.4680 -0.4839
  145SAPE  H16X15995   5.134   0.784   9.099  0.7308 -1.4783 -0.3854
  145SAPE  H16Y15996   5.308   0.843   9.045  0.4396  1.4091  0.6946
  145SAPE  C31715997   5.163   0.960   8.955 -0.1436 -0.2902 -0.8572
  145SAPE  H17X15998   5.240   1.040   8.963  2.2128 -2.5990  1.6849
  145SAPE  H17Y15999   5.070   1.012   8.986  0.9741  1.3931 -0.1472
  145SAPE  C31816000   5.161   0.884   8.823  0.2441  0.1759 -0.5582
  145SAPE  H18X16001   5.260   0.849   8.787  1.3027 -0.2330  2.4621
  145SAPE  H18Y16002   5.133   0.953   8.740 -1.3529  1.3044  0.8428
  145SAPE  H18Z16003   5.093   0.796   8.831 -1.9543  1.5745 -2.2299
  146SAPE     N16004   5.449   4.759  10.967  0.3468 -0.3951 -0.0696
  146SAPE   HN116005   5.439   4.739  10.866  1.1923  0.2778 -0.2986
  146SAPE   HN216006   5.552   4.769  10.973  0.4926 -0.6604 -1.8134
  146SAPE   HN316007   5.425   4.668  11.012 -1.6699 -0.2690 -0.8036
  146SAPE   C1216008   5.372   4.869  11.035  1.0506 -0.3751 -0.9125
  146SAPE  H12A16009   5.389   4.852  11.144 -1.8338 -1.1198 -0.5017
  146SAPE  H12B16010   5.264   4.859  11.012  1.2747 -1.9892 -1.3682
  146SAPE   C1116011   5.407   5.013  10.977  0.0079  0.0187 -0.6295
  146SAPE  H11A16012   5.516   5.023  10.957  0.3809 -0.4204  1.0478
  146SAPE  H11B16013   5.378   5.093  11.049 -0.1518  0.3086 -1.0111
  146SAPE     P16014   5.350   5.190  10.796 -0.1640 -0.0849  0.5619
  146SAPE   O1316015   5.270   5.293  10.871  0.3915 -0.1763 -0.1274
  146SAPE   O1416016   5.498   5.210  10.770  0.6232  0.0849 -0.6595
  146SAPE   O1216017   5.325   5.046  10.861  0.0743 -0.6054  0.5445
  146SAPE   O1116018   5.265   5.171  10.652  0.1217 -0.2198 -0.6255
  146SAPE    C116019   5.321   5.078  10.552  0.3193 -0.2222 -0.8834
  146SAPE    HA16020   5.432   5.077  10.546  0.2774 -1.0934 -1.7149
  146SAPE    HB16021   5.282   4.982  10.592 -2.8283  1.3230  0.0445
  146SAPE    C216022   5.266   5.122  10.418 -0.3953 -0.2522  1.6360
  146SAPE    HS16023   5.319   5.075  10.332 -1.1451  0.2642  0.8827
  146SAPE   O2116024   5.273   5.264  10.395  0.1419  0.5544  0.0326
  146SAPE   C2116025   5.386   5.329  10.408 -0.2263  0.6434 -0.1425
  146SAPE   O2216026   5.495   5.275  10.430 -0.2897 -0.5726 -0.4946
  146SAPE   C2216027   5.356   5.476  10.420 -0.0018 -0.3618  0.5122
  146SAPE   H2R16028   5.259   5.505  10.374  0.8650  1.6319 -0.2043
  146SAPE   H2S16029   5.335   5.509  10.525 -0.3806  1.4038 -0.0765
  146SAPE    C316030   5.119   5.067  10.396  0.8109 -0.0445  0.3587
  146SAPE    HX16031   5.055   5.132  10.461 -0.3954 -1.2557  0.4287
  146SAPE    HY16032   5.125   4.960  10.426 -0.0120  0.0608  0.9437
  146SAPE   O3116033   5.080   5.074  10.259  0.5533  0.0638 -0.1712
  146SAPE   C3116034   5.010   5.180  10.231 -0.5518  0.1055  1.3997
  146SAPE   O3216035   4.987   5.278  10.300  0.0415 -0.0460  0.2383
  146SAPE   C3216036   4.980   5.167  10.080 -0.1793  0.2573  0.2236
  146SAPE   H2X16037   4.904   5.091  10.052 -0.0987 -0.2654  1.3416
  146SAPE   H2Y16038   5.074   5.134  10.032  0.4707 -0.4999  1.9225
  146SAPE   C2316039   5.470   5.563  10.352 -0.1103 -0.7194  0.2458
  146SAPE   H3R16040   5.569   5.538  10.395 -0.1110  0.3411  0.9088
  146SAPE   H3S16041   5.452   5.668  10.383  1.9822  0.4138 -1.9975
  146SAPE   C2416042   5.446   5.556  10.203  0.0800  0.1546  0.0363
  146SAPE   H4R16043   5.475   5.650  10.151 -2.5555  1.5778  0.9754
  146SAPE   H4S16044   5.343   5.543  10.165 -0.1015  0.2825  0.4752
  146SAPE   C2516045   5.529   5.437  10.151  0.4380 -0.0186 -0.3430
  146SAPE   H5R16046   5.632   5.457  10.184 -0.4397  0.4530  2.3577
  146SAPE   C2616047   5.499   5.322  10.087 -0.2918  0.2000 -0.8556
  146SAPE   H6R16048   5.582   5.258  10.052  0.0113  0.8021 -1.2508
  146SAPE   C2716049   5.361   5.287  10.045  0.2203 -0.8370  0.1349
  146SAPE   H7R16050   5.337   5.368   9.973  0.7658  0.0649  0.9298
  146SAPE   H7S16051   5.283   5.301  10.123  1.1237  0.7407  0.8101
  146SAPE   C2816052   5.355   5.149   9.981  0.1660 -0.1727  0.1092
  146SAPE   H8R16053   5.319   5.073  10.053  1.7886  0.1683  1.3358
  146SAPE   C2916054   5.371   5.119   9.851 -0.0457  0.6058  0.0617
  146SAPE   H9R16055   5.356   5.014   9.822  1.3347  0.3566  0.1684
  146SAPE  C21016056   5.400   5.219   9.741 -0.2232 -0.0174  0.6775
  146SAPE  H10R16057   5.321   5.295   9.759  0.5693  1.2688 -0.9549
  146SAPE  H10S16058   5.375   5.175   9.641  1.8687 -1.6704  0.8154
  146SAPE  C21116059   5.536   5.284   9.735 -0.0953  0.1871 -0.1852
  146SAPE  H11R16060   5.579   5.326   9.827  2.7790  0.7514 -1.6701
  146SAPE  C21216061   5.617   5.308   9.630  1.1839 -0.1002  0.2963
  146SAPE  H12R16062   5.704   5.370   9.653  0.7735  0.6438 -0.1039
  146SAPE  C21316063   5.575   5.276   9.489 -0.5450  0.6841 -0.7361
  146SAPE  H13R16064   5.477   5.324   9.466  0.0046  1.6474 -1.1169
  146SAPE  H13S16065   5.565   5.165   9.496  0.3717  0.7042  1.5808
  146SAPE  C21416066   5.679   5.305   9.381  0.9424 -0.6555 -0.2423
  146SAPE  H14R16067   5.771   5.361   9.405 -0.0645  0.5793  0.8747
  146SAPE  C21516068   5.666   5.271   9.256 -0.7553 -0.2242 -0.4035
  146SAPE  H15R16069   5.743   5.311   9.188  0.2774  0.3682  1.0467
  146SAPE  C21616070   5.557   5.190   9.198 -0.4182  0.3154  0.7988
  146SAPE  H16R16071   5.507   5.234   9.109  0.6592  1.6132  0.8133
  146SAPE  H16S16072   5.478   5.161   9.270 -0.8026 -1.5447 -0.2908
  146SAPE  C21716073   5.617   5.056   9.125 -0.3516  0.5855 -0.3178
  146SAPE  H17R16074   5.530   4.989   9.107 -0.2818 -0.4836  2.8686
  146SAPE  H17S16075   5.689   5.005   9.192  1.9877  1.6219 -1.8823
  146SAPE  C21816076   5.699   5.080   8.988  0.2169  0.4391  0.0202
  146SAPE  H18R16077   5.794   5.132   9.013  0.0709  1.5331 -1.5401
  146SAPE  H18S16078   5.640   5.149   8.923 -0.6073  0.0073  0.3036
  146SAPE  C21916079   5.727   4.948   8.916 -0.8558  0.5252 -0.2454
  146SAPE  H19R16080   5.622   4.917   8.894 -0.6321 -0.2041 -0.3199
  146SAPE  H19S16081   5.773   4.874   8.985 -0.8349  0.1363 -0.6642
  146SAPE  C22016082   5.811   4.966   8.792  0.0344  0.0137  0.6166
  146SAPE  H20R16083   5.751   5.032   8.727 -1.6559 -2.4938 -0.5088
  146SAPE  H20S16084   5.823   4.866   8.745 -1.5956  0.5253 -1.0002
  146SAPE  H20T16085   5.910   5.012   8.811  0.3823 -0.6395  0.4394
  146SAPE   C3316086   4.937   5.309  10.028  0.3535 -0.1217  0.3872
  146SAPE   H3X16087   5.019   5.384  10.039 -0.7802  1.2856 -0.5006
  146SAPE   H3Y16088   4.848   5.342  10.084 -0.9173  0.4414 -1.8421
  146SAPE   C3416089   4.907   5.299   9.880  0.2907  0.2359 -0.4178
  146SAPE   H4X16090   4.844   5.379   9.836 -0.5226 -0.7762 -1.1428
  146SAPE   H4Y16091   4.854   5.207   9.848  0.0350  0.6880 -1.3181
  146SAPE   C3516092   5.025   5.313   9.789  0.2121 -0.4450 -0.3674
  146SAPE   H5X16093   5.091   5.226   9.806  2.1162  0.9413 -0.2540
  146SAPE   H5Y16094   5.092   5.395   9.823 -1.9347  1.5967 -0.7156
  146SAPE   C3616095   4.999   5.318   9.633  0.1815  0.3961 -0.5483
  146SAPE   H6X16096   4.902   5.369   9.618 -2.2541 -3.5437  0.3912
  146SAPE   H6Y16097   4.987   5.209   9.615  0.5859  0.4175 -0.9786
  146SAPE   C3716098   5.108   5.390   9.560 -0.5478 -0.0622 -0.9478
  146SAPE   H7X16099   5.200   5.330   9.576  0.9094  2.1834 -0.4654
  146SAPE   H7Y16100   5.133   5.490   9.600 -0.2637  0.6295 -2.7369
  146SAPE   C3816101   5.084   5.401   9.410  0.1276 -1.2215  0.5452
  146SAPE   H8X16102   5.008   5.477   9.383  1.4274  0.3298  1.1054
  146SAPE   H8Y16103   5.058   5.302   9.366 -0.4513  0.0163 -2.1618
  146SAPE   C3916104   5.217   5.456   9.348 -0.0050  0.0639 -0.6295
  146SAPE   H9X16105   5.297   5.380   9.345 -0.9599 -0.9324 -2.0536
  146SAPE   H9Y16106   5.246   5.538   9.417  1.5087 -0.1077 -1.0428
  146SAPE  C31016107   5.201   5.519   9.208 -0.0657  0.4354 -0.6295
  146SAPE  H10X16108   5.155   5.620   9.219 -1.3507 -0.1360 -0.5038
  146SAPE  H10Y16109   5.124   5.455   9.160  1.4280  0.1807 -2.7870
  146SAPE  C31116110   5.334   5.509   9.131 -0.0485  0.6112 -0.7427
  146SAPE  H11X16111   5.376   5.407   9.140 -0.7294  0.2809 -1.1891
  146SAPE  H11Y16112   5.411   5.574   9.178 -0.9403  1.2684 -0.1654
  146SAPE  C31216113   5.315   5.544   8.980  0.1928 -0.7234  0.4301
  146SAPE  H12X16114   5.287   5.652   8.977 -2.8010 -1.3815  1.0919
  146SAPE  H12Y16115   5.230   5.483   8.942 -1.6867  1.1173  1.4613
  146SAPE  C31316116   5.438   5.520   8.894 -0.1530 -0.5170  0.4901
  146SAPE  H13X16117   5.481   5.419   8.909  1.0392  0.1292  1.5303
  146SAPE  H13Y16118   5.525   5.583   8.924  0.0719 -0.8532  0.5432
  146SAPE  C31416119   5.411   5.527   8.739 -0.3013 -0.8222 -0.2720
  146SAPE  H14X16120   5.359   5.623   8.718  2.3807  0.7983  0.0635
  146SAPE  H14Y16121   5.333   5.454   8.707 -1.0999 -0.5287  0.9682
  146SAPE  C31516122   5.545   5.511   8.656  0.3922 -0.8572  0.1401
  146SAPE  H15X16123   5.522   5.494   8.548  0.1405 -1.2752  0.2590
  146SAPE  H15Y16124   5.601   5.420   8.689 -0.3406 -1.7226 -0.9281
  146SAPE  C31616125   5.641   5.633   8.648  0.4477  0.4594 -0.2126
  146SAPE  H16X16126   5.686   5.617   8.748  0.0432  1.7978  0.2123
  146SAPE  H16Y16127   5.596   5.734   8.636  3.0549  1.3739 -3.7608
  146SAPE  C31716128   5.756   5.610   8.548  1.0284 -0.5464 -0.0463
  146SAPE  H17X16129   5.717   5.601   8.445  0.6400  0.9535 -0.0482
  146SAPE  H17Y16130   5.801   5.513   8.578  1.9527  0.3510  1.6515
  146SAPE  C31816131   5.870   5.711   8.568 -0.1189  0.5566 -0.2961
  146SAPE  H18X16132   5.940   5.694   8.484 -0.0327  1.6233 -0.4547
  146SAPE  H18Y16133   5.919   5.694   8.666 -0.3554  0.6455 -0.1606
  146SAPE  H18Z16134   5.838   5.817   8.560 -1.3264  0.2494  0.2555
  147SAPE     N16135   4.721   4.231   6.225 -0.0565  0.3104 -0.3926
  147SAPE   HN116136   4.783   4.257   6.146 -3.0522  0.7480 -2.7607
  147SAPE   HN216137   4.680   4.138   6.203  2.3108 -0.5109 -1.6568
  147SAPE   HN316138   4.651   4.308   6.214  1.6624  1.7431 -1.9140
  147SAPE   C1216139   4.784   4.240   6.364 -0.6717 -0.1759  0.4255
  147SAPE  H12A16140   4.830   4.141   6.380  0.8328  0.0918 -1.8529
  147SAPE  H12B16141   4.707   4.257   6.443 -1.9786  0.9329 -1.0196
  147SAPE   C1116142   4.876   4.362   6.374 -0.8607 -0.1668  0.8926
  147SAPE  H11A16143   4.891   4.364   6.484  2.9543  0.0737  0.4894
  147SAPE  H11B16144   4.824   4.453   6.336  1.3697  0.0902 -1.8085
  147SAPE     P16145   5.122   4.275   6.335 -0.3390  0.0651 -0.2325
  147SAPE   O1316146   5.101   4.138   6.384  0.5003 -1.0037 -0.1246
  147SAPE   O1416147   5.220   4.284   6.223  0.2364 -0.2258 -0.2771
  147SAPE   O1216148   4.988   4.348   6.293  0.0120  0.2644  0.0590
  147SAPE   O1116149   5.159   4.370   6.456  0.8495 -0.6727 -0.0871
  147SAPE    C116150   5.272   4.351   6.544  0.2484  0.6615 -0.4117
  147SAPE    HA16151   5.352   4.286   6.504  0.5893  1.2998 -0.8033
  147SAPE    HB16152   5.320   4.450   6.559  1.3079  0.1934 -0.6482
  147SAPE    C216153   5.227   4.298   6.685 -0.4497 -0.9012  0.1480
  147SAPE    HS16154   5.319   4.299   6.747  0.4269 -1.1976 -1.1144
  147SAPE   O2116155   5.173   4.159   6.676 -0.5052  0.2412  0.3851
  147SAPE   C2116156   5.262   4.061   6.652 -0.3795 -0.5176  0.1624
  147SAPE   O2216157   5.381   4.080   6.663 -0.6779  0.1145  0.4350
  147SAPE   C2216158   5.191   3.925   6.635  0.1887 -0.0786 -0.3632
  147SAPE   H2R16159   5.087   3.952   6.610  0.2852 -1.5200 -2.5609
  147SAPE   H2S16160   5.233   3.872   6.547  1.2452  0.2199 -0.0565
  147SAPE    C316161   5.118   4.394   6.736  0.0519 -0.0122  0.0649
  147SAPE    HX16162   5.042   4.396   6.655  1.9494  0.0212 -1.7822
  147SAPE    HY16163   5.180   4.486   6.744 -0.0425 -0.0514  1.5002
  147SAPE   O3116164   5.075   4.358   6.870 -0.1716 -0.1479  0.1784
  147SAPE   C3116165   4.942   4.392   6.893  0.0053 -0.2163  0.3029
  147SAPE   O3216166   4.878   4.471   6.825  0.0060 -0.1561  0.2305
  147SAPE   C3216167   4.900   4.330   7.024 -0.3221  0.1577  0.0464
  147SAPE   H2X16168   4.910   4.221   7.041  1.0662  0.7377  3.7474
  147SAPE   H2Y16169   4.792   4.353   7.034 -0.5031 -1.2487  1.7509
  147SAPE   C2316170   5.190   3.826   6.753  0.7844 -0.0821  0.1697
  147SAPE   H3R16171   5.297   3.799   6.764  0.7218  0.0438  1.1898
  147SAPE   H3S16172   5.135   3.735   6.722 -0.8923  0.2259  2.0384
  147SAPE   C2416173   5.127   3.881   6.874 -0.8688  0.2066 -0.2178
  147SAPE   H4R16174   5.026   3.900   6.834 -0.6793 -1.5667 -1.6792
  147SAPE   H4S16175   5.165   3.984   6.893 -2.6180  0.6889  0.8248
  147SAPE   C2516176   5.112   3.801   6.996  0.0794 -0.0645 -0.0447
  147SAPE   H5R16177   5.053   3.708   6.987 -1.6967  0.7160  2.3539
  147SAPE   C2616178   5.166   3.825   7.114  0.9001 -0.7772 -0.3624
  147SAPE   H6R16179   5.140   3.745   7.185 -0.5166  0.2065  0.2748
  147SAPE   C2716180   5.254   3.932   7.165  0.6932 -0.4579  0.2083
  147SAPE   H7R16181   5.307   3.967   7.074  0.3028 -0.9284 -0.2066
  147SAPE   H7S16182   5.334   3.886   7.226  2.1452  0.8266 -0.6519
  147SAPE   C2816183   5.205   4.044   7.253  0.1887  0.1647 -0.2309
  147SAPE   H8R16184   5.217   4.147   7.217 -1.5771  1.0720  1.5345
  147SAPE   C2916185   5.162   4.031   7.379 -0.3802 -1.0602  0.1852
  147SAPE   H9R16186   5.132   4.122   7.434 -0.0427 -1.1717  0.5617
  147SAPE  C21016187   5.165   3.910   7.463  0.1105 -0.2666 -0.1476
  147SAPE  H10R16188   5.135   3.827   7.395 -2.3109 -0.5843  1.2144
  147SAPE  H10S16189   5.087   3.912   7.542  0.6837  0.5528  0.4052
  147SAPE  C21116190   5.306   3.893   7.526  0.2576 -0.3318 -0.1818
  147SAPE  H11R16191   5.386   3.947   7.473 -1.7727  0.6083 -2.4484
  147SAPE  C21216192   5.345   3.822   7.641  0.5584 -0.4377  0.2446
  147SAPE  H12R16193   5.450   3.823   7.675  1.0302 -1.5871 -1.0480
  147SAPE  C21316194   5.242   3.750   7.721 -1.1812 -0.0755  0.2072
  147SAPE  H13R16195   5.300   3.676   7.780  1.4416  1.1522 -0.6815
  147SAPE  H13S16196   5.171   3.690   7.661 -1.2353  0.7777 -0.6097
  147SAPE  C21416197   5.163   3.839   7.804  0.4546  0.4518  0.3484
  147SAPE  H14R16198   5.081   3.892   7.754 -0.7998 -0.8427  0.9541
  147SAPE  C21516199   5.158   3.839   7.935 -0.4131  0.2955  0.2408
  147SAPE  H15R16200   5.105   3.918   7.989  2.6859  0.8453  2.7707
  147SAPE  C21616201   5.246   3.763   8.027 -0.2372 -0.9737 -1.1241
  147SAPE  H16R16202   5.308   3.840   8.079 -4.4331  0.3315  2.5890
  147SAPE  H16S16203   5.317   3.692   7.980 -0.2063 -1.3439 -0.5233
  147SAPE  C21716204   5.171   3.698   8.137 -0.5684 -0.7658 -0.3545
  147SAPE  H17R16205   5.224   3.609   8.177  1.5597  0.0321 -1.2984
  147SAPE  H17S16206   5.069   3.670   8.102 -2.0749  0.1156  2.8891
  147SAPE  C21816207   5.150   3.799   8.258  0.0515 -0.4208  0.4381
  147SAPE  H18R16208   5.108   3.894   8.220  1.7533  0.4993  0.7704
  147SAPE  H18S16209   5.246   3.830   8.304 -0.3540 -0.9448  1.6754
  147SAPE  C21916210   5.053   3.742   8.360  0.5649  0.0247 -1.2163
  147SAPE  H19R16211   5.094   3.648   8.401  0.8597 -0.6479 -2.9490
  147SAPE  H19S16212   4.957   3.718   8.310 -0.0487  3.5527 -2.0126
  147SAPE  C22016213   5.033   3.845   8.482 -1.1268  0.3262 -0.5379
  147SAPE  H20R16214   5.131   3.857   8.533 -0.9139  0.1294 -0.8933
  147SAPE  H20S16215   4.963   3.817   8.564  1.0335  1.6148  1.8875
  147SAPE  H20T16216   4.995   3.945   8.451 -0.8210  0.7757  0.5025
  147SAPE   C3316217   4.968   4.401   7.142 -0.2705 -0.0441 -0.5551
  147SAPE   H3X16218   4.946   4.510   7.145 -0.3495 -0.0557  2.0711
  147SAPE   H3Y16219   5.078   4.388   7.131  0.2135  3.8061 -1.6639
  147SAPE   C3416220   4.914   4.343   7.277 -0.3731 -0.4490 -0.4222
  147SAPE   H4X16221   4.895   4.234   7.275 -0.1603 -0.4869 -0.4680
  147SAPE   H4Y16222   4.813   4.388   7.281  1.0779  3.2115 -0.5520
  147SAPE   C3516223   4.984   4.379   7.412  0.6727  0.1057  0.8816
  147SAPE   H5X16224   4.969   4.488   7.423 -2.6154  0.1652 -2.2682
  147SAPE   H5Y16225   5.091   4.351   7.401  0.7231 -0.1447  1.9208
  147SAPE   C3616226   4.928   4.298   7.530  0.2482  0.4557 -0.5524
  147SAPE   H6X16227   4.957   4.197   7.494 -1.4684 -0.9383  1.7302
  147SAPE   H6Y16228   4.817   4.304   7.525  0.3116  0.8845 -2.0628
  147SAPE   C3716229   4.984   4.308   7.670  0.5102  0.4368 -0.2853
  147SAPE   H7X16230   4.951   4.407   7.707  1.0419  0.8526 -0.8910
  147SAPE   H7Y16231   5.095   4.299   7.680  0.6145 -1.3377 -2.2983
  147SAPE   C3816232   4.914   4.219   7.782  0.3834 -0.0058 -0.0226
  147SAPE   H8X16233   4.927   4.114   7.747 -0.0278 -0.0072 -0.1866
  147SAPE   H8Y16234   4.803   4.227   7.775  0.1403 -0.8170  2.0918
  147SAPE   C3916235   4.940   4.251   7.927  0.3375 -0.5595  0.6854
  147SAPE   H9X16236   4.887   4.179   7.993  0.1918 -1.5631 -0.4957
  147SAPE   H9Y16237   4.896   4.349   7.955 -1.5193 -1.3518  0.6724
  147SAPE  C31016238   5.083   4.240   7.967 -0.0215  0.1515  0.7686
  147SAPE  H10X16239   5.140   4.320   7.915  1.9125 -0.8162  1.2789
  147SAPE  H10Y16240   5.117   4.141   7.928 -1.8443  0.2787 -1.3042
  147SAPE  C31116241   5.096   4.261   8.123  0.0916 -0.3975 -0.2884
  147SAPE  H11X16242   5.206   4.254   8.134  0.4463  1.5535 -2.0786
  147SAPE  H11Y16243   5.046   4.177   8.177 -1.4890  2.4024  3.0329
  147SAPE  C31216244   5.046   4.392   8.188  0.3205 -0.0264  0.5302
  147SAPE  H12X16245   5.074   4.417   8.293  0.8100  1.7713  0.0046
  147SAPE  H12Y16246   4.936   4.380   8.195  0.3125  1.0209  4.0559
  147SAPE  C31316247   5.081   4.514   8.108 -0.4134 -0.8845  0.9334
  147SAPE  H13X16248   5.018   4.603   8.128  0.9712  0.2130  0.5584
  147SAPE  H13Y16249   5.062   4.505   7.999  2.0817  2.8984 -0.0030
  147SAPE  C31416250   5.224   4.560   8.109 -0.3336 -0.1563 -0.0336
  147SAPE  H14X16251   5.296   4.477   8.094  0.9473  1.0327 -0.7268
  147SAPE  H14Y16252   5.256   4.609   8.204 -0.6697  3.3804 -1.5792
  147SAPE  C31516253   5.263   4.651   7.984  0.0152  0.5300  0.5795
  147SAPE  H15X16254   5.210   4.747   7.999  1.6062  1.1822  2.3090
  147SAPE  H15Y16255   5.219   4.598   7.896  0.1921  3.6232 -1.5078
  147SAPE  C31616256   5.415   4.657   7.954  0.2088 -0.4169 -0.1958
  147SAPE  H16X16257   5.447   4.553   7.927  0.1428 -0.8277  1.2571
  147SAPE  H16Y16258   5.474   4.690   8.042 -0.0362  1.4509 -0.6986
  147SAPE  C31716259   5.452   4.762   7.845 -0.0783  0.2720 -0.2267
  147SAPE  H17X16260   5.556   4.798   7.862  0.3045 -1.4607  1.5047
  147SAPE  H17Y16261   5.385   4.845   7.874  1.1681  0.7870  1.3879
  147SAPE  C31816262   5.417   4.726   7.706  0.2288 -0.6857  0.1563
  147SAPE  H18X16263   5.338   4.649   7.718 -0.9550  0.1006 -2.0775
  147SAPE  H18Y16264   5.501   4.677   7.652  0.5310 -0.4898  0.4453
  147SAPE  H18Z16265   5.382   4.811   7.643 -0.3110 -2.9159 -2.7394
  148SAPE     N16266   5.244   2.339   6.327  0.0907 -0.0896  0.1724
  148SAPE   HN116267   5.314   2.334   6.404  1.1621  0.0207 -0.7601
  148SAPE   HN216268   5.259   2.434   6.286 -0.4471  0.2455  0.7475
  148SAPE   HN316269   5.147   2.337   6.364  0.2701 -2.4512  0.6301
  148SAPE   C1216270   5.267   2.219   6.244  0.4150  0.0995  0.2246
  148SAPE  H12A16271   5.363   2.238   6.192 -0.9616  2.2979 -1.7114
  148SAPE  H12B16272   5.181   2.219   6.173  0.3682  1.2701  0.2735
  148SAPE   C1116273   5.280   2.092   6.328  0.5007 -0.2634  0.1659
  148SAPE  H11A16274   5.332   2.025   6.256  0.2195 -0.3602  0.0483
  148SAPE  H11B16275   5.182   2.047   6.357  0.7328 -0.0403  1.3486
  148SAPE     P16276   5.432   1.994   6.510  0.3657 -0.2097 -0.2021
  148SAPE   O1316277   5.454   1.886   6.412  0.3451  0.1112 -0.2032
  148SAPE   O1416278   5.547   2.048   6.578 -0.2002 -0.6380  0.3001
  148SAPE   O1216279   5.358   2.117   6.446  0.1453  0.4458 -0.6534
  148SAPE   O1116280   5.324   1.948   6.618 -0.1563  0.2125  0.0757
  148SAPE    C116281   5.215   2.039   6.664  0.2449 -0.5110 -0.0582
  148SAPE    HA16282   5.254   2.141   6.688  0.6609 -0.7779  0.4121
  148SAPE    HB16283   5.137   2.047   6.585  0.1367  0.4052  0.1235
  148SAPE    C216284   5.145   1.990   6.797  0.4006 -0.6386 -0.3916
  148SAPE    HS16285   5.085   1.900   6.771 -2.0949  1.1193 -1.1761
  148SAPE   O2116286   5.054   2.095   6.842 -0.3706 -0.4446 -0.5220
  148SAPE   C2116287   4.957   2.054   6.917  0.3088  0.2965 -0.6839
  148SAPE   O2216288   4.940   1.935   6.939  0.6128  0.5439  0.0869
  148SAPE   C2216289   4.861   2.158   6.985 -0.2294  0.4403 -0.3753
  148SAPE   H2R16290   4.799   2.186   6.897 -0.9817 -0.5681 -0.1890
  148SAPE   H2S16291   4.795   2.096   7.050  0.2761 -0.0531 -0.3233
  148SAPE    C316292   5.250   1.952   6.904  0.4561  0.2524 -0.1381
  148SAPE    HX16293   5.304   2.045   6.933 -0.2305  1.2283 -1.8544
  148SAPE    HY16294   5.330   1.889   6.861  1.0248  1.6379 -1.1953
  148SAPE   O3116295   5.200   1.893   7.025  0.0191  0.2710  0.2000
  148SAPE   C3116296   5.167   1.767   7.010  0.1538  0.1657  0.3015
  148SAPE   O3216297   5.168   1.696   6.911  0.0174  0.2774 -0.3316
  148SAPE   C3216298   5.120   1.724   7.145  0.0991  0.2021 -0.2492
  148SAPE   H2X16299   5.060   1.632   7.126  0.5924  0.2491 -2.2608
  148SAPE   H2Y16300   5.041   1.790   7.186 -1.1163 -0.3955 -1.5282
  148SAPE   C2316301   4.938   2.271   7.053  0.5972 -0.0815 -0.2140
  148SAPE   H3R16302   4.871   2.359   7.064  0.7789 -0.0508  0.6877
  148SAPE   H3S16303   5.028   2.308   6.999  1.2826  0.6910  1.4032
  148SAPE   C2416304   4.955   2.241   7.205  0.3828 -0.4659  0.3180
  148SAPE   H4R16305   4.855   2.211   7.245  0.0894 -1.4742 -1.0837
  148SAPE   H4S16306   4.966   2.342   7.249 -0.1487  0.3660 -1.3748
  148SAPE   C2516307   5.060   2.140   7.241 -0.2368 -0.6863  0.0015
  148SAPE   H5R16308   5.145   2.136   7.171  0.0852  1.6662  0.1963
  148SAPE   C2616309   5.049   2.059   7.349  0.3927  0.3212 -0.1605
  148SAPE   H6R16310   5.132   1.991   7.372  1.8507  2.7130  2.1657
  148SAPE   C2716311   4.929   2.058   7.444 -0.5936  0.4910 -0.0941
  148SAPE   H7R16312   4.848   2.128   7.415  0.1756  0.7886 -1.6662
  148SAPE   H7S16313   4.970   2.094   7.540  0.4137  1.2928 -0.7973
  148SAPE   C2816314   4.866   1.918   7.450 -0.4088  0.1606 -0.1434
  148SAPE   H8R16315   4.821   1.874   7.360 -1.2835 -1.0613  0.8485
  148SAPE   C2916316   4.862   1.846   7.562 -0.2560  0.2690 -0.4678
  148SAPE   H9R16317   4.803   1.753   7.560  0.3073 -0.1669  1.3517
  148SAPE  C21016318   4.907   1.888   7.699  0.2998  0.3191  1.2991
  148SAPE  H10R16319   4.992   1.958   7.704  1.6094 -1.1120  0.1674
  148SAPE  H10S16320   4.955   1.799   7.744 -0.0773 -0.7991 -0.3935
  148SAPE  C21116321   4.783   1.925   7.779 -0.1907  0.1049  0.9122
  148SAPE  H11R16322   4.752   2.017   7.726  3.9894  0.1915 -1.8832
  148SAPE  C21216323   4.729   1.877   7.899 -0.1912 -0.1913 -0.5086
  148SAPE  H12R16324   4.633   1.915   7.937 -0.0586  0.6103 -0.9501
  148SAPE  C21316325   4.781   1.752   7.973 -0.0903  0.4614 -0.4005
  148SAPE  H13R16326   4.877   1.775   8.023 -1.4628  3.1235  1.2167
  148SAPE  H13S16327   4.792   1.671   7.898  0.1623  0.0043  0.1202
  148SAPE  C21416328   4.686   1.697   8.080 -0.6349  0.7137 -0.6210
  148SAPE  H14R16329   4.608   1.629   8.044  0.1754 -0.1817 -0.7432
  148SAPE  C21516330   4.686   1.730   8.209 -1.7245 -0.5285 -0.2499
  148SAPE  H15R16331   4.612   1.683   8.276 -0.5966 -0.6779  0.9331
  148SAPE  C21616332   4.785   1.825   8.279  0.1531  0.2042  0.1396
  148SAPE  H16R16333   4.744   1.929   8.272 -1.6541 -0.1950  2.9508
  148SAPE  H16S16334   4.886   1.826   8.234 -0.6301  1.0032 -1.7302
  148SAPE  C21716335   4.810   1.773   8.420  0.0077  0.4021  0.1291
  148SAPE  H17R16336   4.870   1.679   8.416  2.0230  1.6238  0.3533
  148SAPE  H17S16337   4.712   1.759   8.470  0.4912  1.4327  1.4267
  148SAPE  C21816338   4.896   1.879   8.490 -0.0918  0.9223 -0.0861
  148SAPE  H18R16339   4.856   1.982   8.477  0.5164  0.9093 -2.5922
  148SAPE  H18S16340   4.995   1.883   8.439 -0.1190 -1.0345 -0.3475
  148SAPE  C21916341   4.912   1.853   8.641 -0.0423  0.1047 -0.6054
  148SAPE  H19R16342   4.814   1.874   8.688  0.3595 -0.2379  0.4294
  148SAPE  H19S16343   4.985   1.928   8.679 -0.9672  1.3773 -1.2679
  148SAPE  C22016344   4.965   1.718   8.687 -0.0707 -0.2710 -0.1367
  148SAPE  H20R16345   5.070   1.690   8.662  0.3003 -1.1093  2.0893
  148SAPE  H20S16346   4.904   1.633   8.651 -3.2298  0.3588  3.1504
  148SAPE  H20T16347   4.970   1.729   8.798 -1.4194 -1.4566  0.0766
  148SAPE   C3316348   5.234   1.714   7.248  0.3472 -0.1857  0.3582
  148SAPE   H3X16349   5.270   1.817   7.268 -0.5721  0.4402 -1.0543
  148SAPE   H3Y16350   5.308   1.644   7.203 -1.5439 -1.6763 -0.5941
  148SAPE   C3416351   5.187   1.647   7.377  0.2922 -0.3769 -0.0653
  148SAPE   H4X16352   5.149   1.551   7.334  2.5293 -1.9022  1.1469
  148SAPE   H4Y16353   5.104   1.707   7.419  0.6808  0.6232 -0.6908
  148SAPE   C3516354   5.302   1.633   7.478 -0.5965 -0.6932 -0.5267
  148SAPE   H5X16355   5.394   1.592   7.430  0.7974 -0.9849  2.1824
  148SAPE   H5Y16356   5.266   1.565   7.558  2.3483 -1.2353  0.4748
  148SAPE   C3616357   5.349   1.770   7.552 -0.8087 -0.2072 -0.6010
  148SAPE   H6X16358   5.262   1.817   7.604 -0.3475  2.7620 -2.2990
  148SAPE   H6Y16359   5.373   1.836   7.467 -1.8235  0.0198 -0.7260
  148SAPE   C3716360   5.471   1.745   7.638 -0.3007  0.0311 -0.8008
  148SAPE   H7X16361   5.560   1.706   7.585  0.4832 -1.3370  1.3980
  148SAPE   H7Y16362   5.437   1.670   7.713  1.9979  0.8126  1.1740
  148SAPE   C3816363   5.499   1.871   7.726 -0.6565 -0.0100  0.7110
  148SAPE   H8X16364   5.407   1.891   7.784 -1.8837  0.9283 -1.4636
  148SAPE   H8Y16365   5.521   1.963   7.668  1.5427 -0.0384  1.3989
  148SAPE   C3916366   5.618   1.841   7.819 -0.0320 -0.3790  0.2064
  148SAPE   H9X16367   5.632   1.927   7.888 -0.4221 -1.4037  1.6180
  148SAPE   H9Y16368   5.706   1.820   7.755 -1.7276  0.4045 -2.5277
  148SAPE  C31016369   5.585   1.715   7.911  0.2333  0.8232  0.2211
  148SAPE  H10X16370   5.604   1.620   7.857 -2.8799  1.1075 -1.5933
  148SAPE  H10Y16371   5.479   1.724   7.943  0.5753  2.7347  0.9158
  148SAPE  C31116372   5.662   1.706   8.046 -0.0302 -0.1271 -0.0513
  148SAPE  H11X16373   5.771   1.721   8.031  0.2442  0.6848  2.3268
  148SAPE  H11Y16374   5.648   1.605   8.090  0.4525 -0.6093 -0.9681
  148SAPE  C31216375   5.609   1.810   8.145  0.6389  0.0266 -0.7650
  148SAPE  H12X16376   5.504   1.783   8.169  0.7047  1.1064  0.8317
  148SAPE  H12Y16377   5.608   1.918   8.120  1.8860  0.3207  0.3529
  148SAPE  C31316378   5.680   1.792   8.284 -0.2773 -0.2761 -0.0156
  148SAPE  H13X16379   5.672   1.686   8.317  2.1820  0.0148  1.8027
  148SAPE  H13Y16380   5.629   1.851   8.364  2.5062  1.9873  0.2477
  148SAPE  C31416381   5.830   1.811   8.300  0.2242  0.1962  0.3918
  148SAPE  H14X16382   5.860   1.917   8.285  1.0043 -0.2429 -1.4347
  148SAPE  H14Y16383   5.882   1.752   8.221 -1.2400  0.0255 -0.4678
  148SAPE  C31516384   5.884   1.760   8.429 -0.4562  0.1477  0.7302
  148SAPE  H15X16385   5.884   1.649   8.424 -2.7288  0.0941  0.8842
  148SAPE  H15Y16386   5.819   1.780   8.517 -0.5813 -1.2562  0.9806
  148SAPE  C31616387   6.028   1.810   8.454 -0.2577 -0.3563  0.4716
  148SAPE  H16X16388   6.034   1.921   8.449 -0.7599 -0.3350  0.2625
  148SAPE  H16Y16389   6.097   1.771   8.377 -0.8889  0.5094 -0.5681
  148SAPE  C31716390   6.074   1.776   8.593 -0.3517  0.2864  0.2127
  148SAPE  H17X16391   6.030   1.846   8.668 -1.2068 -0.3782  0.3371
  148SAPE  H17Y16392   6.185   1.789   8.596 -0.3685  0.8915 -1.0880
  148SAPE  C31816393   6.062   1.633   8.637 -0.6195 -0.0486  0.7726
  148SAPE  H18X16394   5.959   1.595   8.653  0.2692 -3.3598 -0.5621
  148SAPE  H18Y16395   6.125   1.619   8.727  0.4405  2.1430  0.4278
  148SAPE  H18Z16396   6.091   1.564   8.555 -1.0934 -1.3615  1.6775
  149SAPE     N16397   3.859   3.150   6.038 -0.9379 -0.2723 -0.6870
  149SAPE   HN116398   3.865   3.251   6.063 -0.2291  0.1408 -2.3571
  149SAPE   HN216399   3.928   3.088   6.086 -1.5759  0.4712  1.2921
  149SAPE   HN316400   3.870   3.146   5.934  1.0410 -0.8982 -0.4920
  149SAPE   C1216401   3.735   3.083   6.093 -0.3239 -0.4316  0.3531
  149SAPE  H12A16402   3.758   2.975   6.079 -1.5578 -0.7661  0.7458
  149SAPE  H12B16403   3.646   3.112   6.033  0.2507 -0.9515 -0.7702
  149SAPE   C1116404   3.724   3.127   6.243 -0.2692  0.3342 -0.1623
  149SAPE  H11A16405   3.630   3.083   6.282 -0.0557  1.1815  1.3845
  149SAPE  H11B16406   3.719   3.237   6.258  1.7460  0.1186  2.8453
  149SAPE     P16407   3.942   3.141   6.401  0.2452 -0.1597 -0.4533
  149SAPE   O1316408   4.070   3.064   6.406  0.2364 -0.7608 -0.0851
  149SAPE   O1416409   3.940   3.286   6.382  0.1086 -0.1736  0.0727
  149SAPE   O1216410   3.834   3.070   6.310 -0.0188  0.2415 -0.1180
  149SAPE   O1116411   3.870   3.131   6.538 -0.4408  0.4676 -0.2939
  149SAPE    C116412   3.791   3.030   6.589  0.5878 -0.3386  0.2014
  149SAPE    HA16413   3.683   3.055   6.595  0.2286  1.3461 -6.0759
  149SAPE    HB16414   3.777   2.940   6.525 -3.7795  0.0969  0.2780
  149SAPE    C216415   3.839   2.968   6.725 -0.4046  0.1313  0.1971
  149SAPE    HS16416   3.773   2.880   6.744 -1.2779  0.2810 -1.8109
  149SAPE   O2116417   3.830   3.061   6.831  0.7589  0.7653 -0.1627
  149SAPE   C2116418   3.705   3.069   6.878  0.4239 -0.6126 -0.1450
  149SAPE   O2216419   3.609   3.006   6.835  0.2535  0.4524  0.0160
  149SAPE   C2216420   3.698   3.167   6.990  0.3630 -0.2401  0.1316
  149SAPE   H2R16421   3.798   3.181   7.035 -0.0477  0.2289  0.9169
  149SAPE   H2S16422   3.661   3.266   6.953 -1.4683 -1.0419 -0.3238
  149SAPE    C316423   3.983   2.919   6.703 -0.0360  0.3836  0.0768
  149SAPE    HX16424   4.048   2.996   6.656 -1.9281  2.0364  0.0391
  149SAPE    HY16425   3.978   2.840   6.625 -0.6662  0.2002  0.3055
  149SAPE   O3116426   4.040   2.869   6.820 -0.0417  0.1801 -0.3286
  149SAPE   C3116427   4.114   2.939   6.900 -0.3254 -0.5723 -0.0851
  149SAPE   O3216428   4.139   3.059   6.894  0.5770  0.3069 -0.3834
  149SAPE   C3216429   4.176   2.846   7.002  0.1240 -0.4231  0.4050
  149SAPE   H2X16430   4.282   2.842   6.971  0.2486  1.2145  0.5166
  149SAPE   H2Y16431   4.121   2.750   7.010 -2.2336  0.8383  0.4324
  149SAPE   C2316432   3.601   3.120   7.105 -0.3293  0.6026 -0.1267
  149SAPE   H3R16433   3.496   3.099   7.076 -0.0433  1.0089 -1.5498
  149SAPE   H3S16434   3.602   3.203   7.178 -0.4249 -1.7751  2.7731
  149SAPE   C2416435   3.654   2.994   7.174  0.6236 -0.2768  0.5268
  149SAPE   H4R16436   3.757   3.014   7.213  0.3845  0.8159  0.6390
  149SAPE   H4S16437   3.656   2.911   7.101  0.4838  0.5389 -0.4381
  149SAPE   C2516438   3.571   2.946   7.283 -0.5918 -0.2080 -0.0860
  149SAPE   H5R16439   3.513   2.856   7.256  0.8161 -1.1461 -0.1236
  149SAPE   C2616440   3.551   2.998   7.405  0.3391 -0.3424 -0.0280
  149SAPE   H6R16441   3.487   2.946   7.477  0.9697  1.9570  2.3134
  149SAPE   C2716442   3.595   3.125   7.466  1.0439  0.5136  0.1876
  149SAPE   H7R16443   3.665   3.177   7.397 -2.3127  4.3315 -0.7327
  149SAPE   H7S16444   3.664   3.106   7.551  2.4375  0.1856 -0.9732
  149SAPE   C2816445   3.490   3.222   7.507 -0.1726 -0.3047  0.4251
  149SAPE   H8R16446   3.433   3.275   7.429  0.3260 -3.6635 -2.5321
  149SAPE   C2916447   3.441   3.224   7.632  0.6336 -1.3054 -0.2108
  149SAPE   H9R16448   3.363   3.299   7.650  1.5121 -0.6814  1.1213
  149SAPE  C21016449   3.494   3.137   7.741 -0.4711 -0.1913 -0.6997
  149SAPE  H10R16450   3.592   3.185   7.763  1.0678 -2.6465 -1.7692
  149SAPE  H10S16451   3.519   3.041   7.692 -0.8274 -0.8199  0.3124
  149SAPE  C21116452   3.416   3.105   7.866 -0.1952 -0.0150 -0.4494
  149SAPE  H11R16453   3.306   3.113   7.867 -0.0959  1.9438  1.0142
  149SAPE  C21216454   3.482   3.055   7.978  1.2061 -0.6320  0.9824
  149SAPE  H12R16455   3.423   3.025   8.066  1.0382  0.7868  1.3763
  149SAPE  C21316456   3.633   3.029   7.987  0.0380 -0.5895  0.4735
  149SAPE  H13R16457   3.674   3.132   7.994 -0.1610 -0.5414  0.9907
  149SAPE  H13S16458   3.675   2.992   7.891  0.0008 -1.2005  0.6885
  149SAPE  C21416459   3.669   2.942   8.100 -0.5585  0.0183 -0.3850
  149SAPE  H14R16460   3.621   2.972   8.195 -0.0085  0.4291 -0.2315
  149SAPE  C21516461   3.760   2.839   8.100 -0.1816  0.5362  0.0960
  149SAPE  H15R16462   3.774   2.767   8.182 -0.5314 -0.0988 -0.3949
  149SAPE  C21616463   3.834   2.792   7.979 -0.5319 -0.0343  0.4944
  149SAPE  H16R16464   3.938   2.828   7.964  0.5604 -3.4586 -1.4518
  149SAPE  H16S16465   3.787   2.816   7.882  1.0877  0.6009 -0.1746
  149SAPE  C21716466   3.831   2.635   7.968 -0.1016 -0.9623  0.4858
  149SAPE  H17R16467   3.870   2.607   7.868  0.3943  0.2190  0.3319
  149SAPE  H17S16468   3.725   2.604   7.981 -0.2761 -0.4085  0.4166
  149SAPE  C21816469   3.921   2.562   8.063 -0.8397  0.1122 -1.0232
  149SAPE  H18R16470   3.940   2.462   8.018  0.8442 -1.3898  2.6086
  149SAPE  H18S16471   3.880   2.558   8.166  1.3791  0.4808 -0.0732
  149SAPE  C21916472   4.057   2.629   8.092  0.5440  0.2524 -0.3723
  149SAPE  H19R16473   4.044   2.714   8.162  1.0749 -0.4717  0.6569
  149SAPE  H19S16474   4.101   2.654   7.993  2.2884 -0.6600  0.1201
  149SAPE  C22016475   4.153   2.534   8.160  0.3996  0.3232 -0.2309
  149SAPE  H20R16476   4.100   2.494   8.248  1.0531 -2.6284 -1.0843
  149SAPE  H20S16477   4.247   2.582   8.194 -0.1607  0.9976  0.3854
  149SAPE  H20T16478   4.183   2.446   8.099  2.8020 -0.6807  2.2172
  149SAPE   C3316479   4.170   2.919   7.142  0.3389  0.1721 -0.3576
  149SAPE   H3X16480   4.080   2.979   7.164  0.9850  1.1525 -0.3161
  149SAPE   H3Y16481   4.259   2.986   7.148 -0.6907  1.7630 -2.0067
  149SAPE   C3416482   4.189   2.826   7.264 -0.5879 -0.1566 -0.3197
  149SAPE   H4X16483   4.264   2.748   7.237  0.8112  0.9049  0.3763
  149SAPE   H4Y16484   4.089   2.779   7.282 -1.5404  2.1106  0.6475
  149SAPE   C3516485   4.228   2.900   7.390 -0.9745 -0.8313  0.6290
  149SAPE   H5X16486   4.141   2.958   7.427 -0.8688  0.5586 -1.1554
  149SAPE   H5Y16487   4.315   2.965   7.367  0.2492 -1.6661  2.5973
  149SAPE   C3616488   4.271   2.819   7.516  0.5831  0.0780 -0.0532
  149SAPE   H6X16489   4.175   2.777   7.551  0.3583 -0.5400 -1.3270
  149SAPE   H6Y16490   4.314   2.883   7.596  2.3420  1.4003 -1.9473
  149SAPE   C3716491   4.366   2.703   7.484  0.3797  0.0993 -0.0409
  149SAPE   H7X16492   4.452   2.735   7.420 -0.4617 -1.0400 -1.8232
  149SAPE   H7Y16493   4.309   2.622   7.434 -1.3919  1.0126  0.4259
  149SAPE   C3816494   4.439   2.642   7.606 -0.0548 -0.2265 -0.2236
  149SAPE   H8X16495   4.496   2.724   7.654  1.2174 -0.8581 -0.5797
  149SAPE   H8Y16496   4.519   2.568   7.582 -0.6153 -0.6654 -0.7770
  149SAPE   C3916497   4.341   2.582   7.703  0.2928  0.0465  0.6310
  149SAPE   H9X16498   4.281   2.514   7.639 -0.7198  0.0601  1.5540
  149SAPE   H9Y16499   4.266   2.658   7.734  0.8448  1.0094 -0.2948
  149SAPE  C31016500   4.405   2.507   7.820  0.4718 -0.2633 -0.7601
  149SAPE  H10X16501   4.430   2.407   7.778 -0.3215  0.4273 -3.0447
  149SAPE  H10Y16502   4.333   2.504   7.904  0.5757  2.8450 -0.4179
  149SAPE  C31116503   4.534   2.574   7.877  0.1587  0.0401  0.5175
  149SAPE  H11X16504   4.609   2.581   7.795  1.5448  0.4530  1.7712
  149SAPE  H11Y16505   4.576   2.523   7.966  1.1526  4.3693  2.7893
  149SAPE  C31216506   4.516   2.723   7.922 -0.7531  0.0062  0.2571
  149SAPE  H12X16507   4.455   2.718   8.015 -2.2330 -0.1760 -0.6729
  149SAPE  H12Y16508   4.445   2.779   7.857 -1.0059 -2.5687 -1.8942
  149SAPE  C31316509   4.639   2.806   7.909 -0.2423 -0.6736 -0.6027
  149SAPE  H13X16510   4.617   2.909   7.944  0.1818 -0.6835 -0.2961
  149SAPE  H13Y16511   4.672   2.830   7.805  1.2599 -0.0144  0.0041
  149SAPE  C31416512   4.758   2.774   8.007 -0.1241 -1.0213  0.7053
  149SAPE  H14X16513   4.791   2.671   7.983  0.6763 -0.9706  1.5210
  149SAPE  H14Y16514   4.735   2.783   8.115  0.0986  1.6550  0.5967
  149SAPE  C31516515   4.876   2.858   7.974 -0.2777  0.3357  0.0130
  149SAPE  H15X16516   4.854   2.967   7.983  2.0566  0.8525 -0.0143
  149SAPE  H15Y16517   4.912   2.842   7.870 -0.0177  1.3860 -0.0739
  149SAPE  C31616518   4.993   2.843   8.073 -0.0418 -0.0751 -0.2318
  149SAPE  H16X16519   4.938   2.833   8.169 -0.4312  0.9040 -0.3418
  149SAPE  H16Y16520   5.045   2.941   8.070 -0.7093  0.2841 -3.2389
  149SAPE  C31716521   5.101   2.739   8.049  0.2652  0.8993  0.1488
  149SAPE  H17X16522   5.134   2.758   7.945  1.7445  1.8801  0.7600
  149SAPE  H17Y16523   5.058   2.636   8.052 -0.5342  1.2388  1.4252
  149SAPE  C31816524   5.201   2.754   8.156 -0.2764 -0.2492  0.8490
  149SAPE  H18X16525   5.270   2.667   8.149 -0.8745 -0.6017 -1.1116
  149SAPE  H18Y16526   5.163   2.746   8.260 -0.2544  1.2062  0.9951
  149SAPE  H18Z16527   5.264   2.845   8.142 -1.4184  0.6201  1.2461
  150SAPE     N16528   1.264   4.113   6.347  0.3193  0.8190 -0.6324
  150SAPE   HN116529   1.228   4.073   6.258 -1.4201 -0.0486  0.4005
  150SAPE   HN216530   1.211   4.070   6.426 -0.4591  1.3071 -0.8798
  150SAPE   HN316531   1.251   4.216   6.344 -1.9912  0.5717 -0.6796
  150SAPE   C1216532   1.404   4.072   6.357 -0.1100 -0.3129  0.4232
  150SAPE  H12A16533   1.404   3.962   6.371  1.7133 -0.4436 -0.3679
  150SAPE  H12B16534   1.459   4.123   6.439  0.4900  0.0767 -0.2169
  150SAPE   C1116535   1.473   4.102   6.221 -0.7290 -0.3390 -0.1777
  150SAPE  H11A16536   1.576   4.060   6.221 -0.8820 -0.7221 -0.1687
  150SAPE  H11B16537   1.487   4.211   6.207 -2.5685 -0.2072 -1.1753
  150SAPE     P16538   1.380   3.918   6.063 -0.2640 -0.3589  0.1060
  150SAPE   O1316539   1.301   3.843   6.163  0.6866 -0.0585  0.2895
  150SAPE   O1416540   1.345   3.901   5.919 -0.0162 -0.0307 -0.4342
  150SAPE   O1216541   1.394   4.068   6.111 -0.1396  0.3401  0.1958
  150SAPE   O1116542   1.539   3.875   6.077  0.2886 -0.1422  0.4451
  150SAPE    C116543   1.568   3.734   6.105 -0.9741 -0.3034  0.2253
  150SAPE    HA16544   1.479   3.667   6.106  0.2232 -1.9286  1.6735
  150SAPE    HB16545   1.638   3.690   6.031  0.2972  0.0492  1.2013
  150SAPE    C216546   1.648   3.713   6.234 -0.4128  0.1377 -0.6209
  150SAPE    HS16547   1.678   3.606   6.244 -0.5234  0.0997 -0.6921
  150SAPE   O2116548   1.567   3.745   6.350 -0.7318  0.1114  0.3164
  150SAPE   C2116549   1.485   3.653   6.394  0.1937  0.3668  0.0790
  150SAPE   O2216550   1.464   3.544   6.349 -0.5735 -0.1617  0.2614
  150SAPE   C2216551   1.418   3.702   6.524  0.2450 -0.3977 -0.0252
  150SAPE   H2R16552   1.350   3.788   6.504  0.9190 -0.3534 -2.5636
  150SAPE   H2S16553   1.354   3.616   6.552  0.8814 -1.1682 -0.8784
  150SAPE    C316554   1.785   3.798   6.224  0.2108  0.5748 -0.1081
  150SAPE    HX16555   1.752   3.903   6.214  3.0792  1.8054  1.9701
  150SAPE    HY16556   1.849   3.776   6.136 -1.9715  0.2578 -1.7023
  150SAPE   O3116557   1.860   3.782   6.344 -0.5936 -0.6213 -0.0638
  150SAPE   C3116558   1.830   3.870   6.446 -0.0973  0.9658  0.9538
  150SAPE   O3216559   1.759   3.966   6.434  0.3990 -0.4461  0.5023
  150SAPE   C3216560   1.910   3.836   6.567  0.1564  0.6472  0.2283
  150SAPE   H2X16561   2.013   3.877   6.553 -0.3484  1.1693 -2.5029
  150SAPE   H2Y16562   1.915   3.727   6.590  1.1364  0.6154 -0.0639
  150SAPE   C2316563   1.507   3.732   6.650  0.4292 -0.0131  0.1843
  150SAPE   H3R16564   1.531   3.841   6.651  2.1583 -0.3595  1.1543
  150SAPE   H3S16565   1.594   3.664   6.645 -0.9215 -2.0604  2.3290
  150SAPE   C2416566   1.431   3.693   6.779  0.2297  0.0950  0.3061
  150SAPE   H4R16567   1.390   3.590   6.783  1.9403 -0.6574 -0.3467
  150SAPE   H4S16568   1.341   3.757   6.767 -0.4088 -0.7784  0.3550
  150SAPE   C2516569   1.505   3.714   6.910  0.0049  0.3815  0.0197
  150SAPE   H5R16570   1.613   3.698   6.900 -0.2130 -0.2020 -1.8032
  150SAPE   C2616571   1.458   3.757   7.029  0.3696 -0.1044 -0.2980
  150SAPE   H6R16572   1.518   3.783   7.117  1.5196  0.6293 -1.2657
  150SAPE   C2716573   1.306   3.784   7.049 -0.1214 -0.1518 -0.0091
  150SAPE   H7R16574   1.274   3.703   7.119 -1.2708 -0.1892 -0.5546
  150SAPE   H7S16575   1.243   3.774   6.958  0.8779 -1.5034 -0.5936
  150SAPE   C2816576   1.278   3.913   7.105  0.1887 -0.1333 -0.9004
  150SAPE   H8R16577   1.255   3.985   7.026 -1.0788 -0.5366 -0.9128
  150SAPE   C2916578   1.269   3.941   7.239 -1.0106 -0.5996  0.4010
  150SAPE   H9R16579   1.236   4.041   7.270 -2.1240 -0.8082 -0.0956
  150SAPE  C21016580   1.305   3.855   7.358 -1.2989  0.3689 -0.3140
  150SAPE  H10R16581   1.329   3.753   7.321  0.0582  1.6386 -3.2424
  150SAPE  H10S16582   1.213   3.845   7.420 -0.7462  0.8647  0.5998
  150SAPE  C21116583   1.406   3.918   7.451  0.3303 -0.2041  0.2928
  150SAPE  H11R16584   1.510   3.883   7.438 -0.4326 -1.8041 -2.2109
  150SAPE  C21216585   1.395   4.009   7.554 -0.1044  0.2580 -0.2860
  150SAPE  H12R16586   1.476   4.061   7.608 -0.6425  0.7174  0.0919
  150SAPE  C21316587   1.267   4.069   7.593  0.1450 -0.0475  1.0808
  150SAPE  H13R16588   1.210   4.092   7.500  0.0824  1.3578  1.4412
  150SAPE  H13S16589   1.285   4.173   7.628 -0.0254  0.5737 -0.6201
  150SAPE  C21416590   1.178   3.992   7.685 -0.4776  0.0036  0.3281
  150SAPE  H14R16591   1.088   3.948   7.639  0.0701 -1.8209  0.9256
  150SAPE  C21516592   1.205   3.965   7.815 -0.1043 -0.2586 -0.2502
  150SAPE  H15R16593   1.141   3.898   7.874 -0.5790  1.0820  0.8006
  150SAPE  C21616594   1.334   4.013   7.877 -0.2714 -0.1010 -0.9688
  150SAPE  H16R16595   1.379   4.102   7.828 -0.0411 -0.2202 -0.9771
  150SAPE  H16S16596   1.407   3.932   7.853 -0.3251 -0.1783 -0.8722
  150SAPE  C21716597   1.334   4.054   8.026 -0.7597 -0.0187 -0.7840
  150SAPE  H17R16598   1.442   4.058   8.052 -0.1912 -3.2144 -2.1347
  150SAPE  H17S16599   1.284   3.986   8.099 -1.0961 -0.8435 -1.7685
  150SAPE  C21816600   1.265   4.188   8.048  0.4660 -0.3381 -0.3158
  150SAPE  H18R16601   1.158   4.159   8.034  0.5334  0.5662 -3.9361
  150SAPE  H18S16602   1.286   4.263   7.969  1.4048 -0.2550  0.0030
  150SAPE  C21916603   1.290   4.246   8.191  0.2389  0.4201  0.1711
  150SAPE  H19R16604   1.398   4.228   8.205  0.7423  1.8981 -1.4072
  150SAPE  H19S16605   1.237   4.177   8.261  1.1468  1.2701  1.7484
  150SAPE  C22016606   1.241   4.389   8.216  0.1763 -0.2661  0.3411
  150SAPE  H20R16607   1.287   4.455   8.139  1.3593 -1.1158  0.2955
  150SAPE  H20S16608   1.278   4.419   8.317  0.4390  1.6761 -0.2830
  150SAPE  H20T16609   1.130   4.390   8.208  0.1920  2.6553 -1.0102
  150SAPE   C3316610   1.847   3.910   6.695  0.4457  0.3296  0.9772
  150SAPE   H3X16611   1.736   3.902   6.700  0.4608  0.0311  0.8554
  150SAPE   H3Y16612   1.879   4.015   6.677  2.1434 -0.4707 -0.9889
  150SAPE   C3416613   1.895   3.849   6.825  0.0873 -0.5501  0.0916
  150SAPE   H4X16614   2.004   3.869   6.822  0.5683 -3.0169 -0.8382
  150SAPE   H4Y16615   1.887   3.738   6.826  1.4219 -0.6655  1.7511
  150SAPE   C3516616   1.843   3.923   6.954  0.4059 -0.3146 -0.2714
  150SAPE   H5X16617   1.733   3.913   6.957  0.1105  1.4998 -2.2303
  150SAPE   H5Y16618   1.858   4.033   6.946  1.2246 -0.2422  1.6323
  150SAPE   C3616619   1.908   3.878   7.087  0.1302 -0.7771  0.6505
  150SAPE   H6X16620   2.015   3.908   7.081  0.0057 -0.1427  1.4730
  150SAPE   H6Y16621   1.908   3.768   7.102 -1.7709 -0.6836  1.4946
  150SAPE   C3716622   1.837   3.944   7.207 -0.0877 -0.1474 -0.2043
  150SAPE   H7X16623   1.740   3.891   7.208  0.0759 -0.4497 -0.3169
  150SAPE   H7Y16624   1.830   4.054   7.188 -1.2262 -0.0245  0.8386
  150SAPE   C3816625   1.910   3.919   7.337 -1.1665 -0.2398  0.9281
  150SAPE   H8X16626   1.999   3.982   7.311  0.3577 -1.7022  2.3663
  150SAPE   H8Y16627   1.927   3.812   7.359 -2.7961 -0.7062  0.0767
  150SAPE   C3916628   1.839   3.984   7.454  0.2046 -0.2231 -0.0464
  150SAPE   H9X16629   1.730   4.000   7.442  0.2086  0.1906  0.3960
  150SAPE   H9Y16630   1.885   4.085   7.467 -0.4871  0.2106 -0.8723
  150SAPE  C31016631   1.870   3.913   7.585  0.2146 -0.2041 -0.2575
  150SAPE  H10X16632   1.979   3.897   7.599  0.0987 -1.3187 -0.5291
  150SAPE  H10Y16633   1.805   3.824   7.572 -1.2427  0.7747  0.0726
  150SAPE  C31116634   1.815   3.969   7.712  0.5958 -0.5160 -0.1703
  150SAPE  H11X16635   1.815   3.887   7.787  4.2800  0.5085  1.1964
  150SAPE  H11Y16636   1.707   3.993   7.704  0.7768  0.1982 -0.5514
  150SAPE  C31216637   1.898   4.093   7.761 -0.5995  1.1264 -0.2083
  150SAPE  H12X16638   1.885   4.181   7.695  1.0722  0.8904 -0.8847
  150SAPE  H12Y16639   2.006   4.068   7.764 -0.5838  0.4530 -3.1925
  150SAPE  C31316640   1.857   4.149   7.901  1.2167  0.1728  0.5785
  150SAPE  H13X16641   1.747   4.152   7.891  1.1253  0.5070  1.5969
  150SAPE  H13Y16642   1.893   4.254   7.898  1.2011  0.1813 -2.1594
  150SAPE  C31416643   1.911   4.077   8.025 -0.0362  0.1756  0.1119
  150SAPE  H14X16644   2.021   4.086   8.032  0.0329 -1.5157  2.4635
  150SAPE  H14Y16645   1.884   3.969   8.033  0.5390 -0.0017 -0.2928
  150SAPE  C31516646   1.858   4.147   8.149  0.0036  0.2929 -0.0188
  150SAPE  H15X16647   1.912   4.098   8.233  1.5825  2.7573  0.5184
  150SAPE  H15Y16648   1.748   4.137   8.160  0.2159 -2.6999  0.2649
  150SAPE  C31616649   1.896   4.294   8.166  0.2061 -0.0775  0.0172
  150SAPE  H16X16650   1.890   4.358   8.075 -2.0995 -1.4696 -0.9252
  150SAPE  H16Y16651   2.005   4.297   8.186 -0.1305 -1.3657  2.3712
  150SAPE  C31716652   1.826   4.356   8.288  0.3527 -0.2763 -0.9006
  150SAPE  H17X16653   1.891   4.431   8.336  0.1572 -0.7819  0.1702
  150SAPE  H17Y16654   1.830   4.283   8.371  0.0703 -0.1521 -0.7757
  150SAPE  C31816655   1.685   4.417   8.265 -0.7056 -0.3539  0.4113
  150SAPE  H18X16656   1.702   4.511   8.208  0.7801 -0.5615  0.4608
  150SAPE  H18Y16657   1.639   4.440   8.363  0.3482  3.5698  0.1625
  150SAPE  H18Z16658   1.620   4.349   8.206 -0.6503 -1.2671  1.3716
  151SAPE     N16659   6.510   0.929   6.138  0.3557 -0.5504  0.0841
  151SAPE   HN116660   6.614   0.932   6.144  0.2937  1.6282  0.9416
  151SAPE   HN216661   6.488   0.860   6.062 -1.5271 -0.7146  0.7379
  151SAPE   HN316662   6.475   1.024   6.115 -0.0491 -0.0503  2.5348
  151SAPE   C1216663   6.455   0.885   6.272  0.3866  0.7570  0.8258
  151SAPE  H12A16664   6.509   0.795   6.308 -2.5375 -0.9093  1.2942
  151SAPE  H12B16665   6.353   0.845   6.257  0.8825  0.4085 -2.2402
  151SAPE   C1116666   6.461   0.996   6.369  0.9155  0.2424  0.3482
  151SAPE  H11A16667   6.560   1.040   6.393  2.0075 -0.7958 -1.9619
  151SAPE  H11B16668   6.403   0.948   6.452  1.5030 -3.1312 -1.0137
  151SAPE     P16669   6.395   1.242   6.312 -0.0772 -0.2868  0.0558
  151SAPE   O1316670   6.540   1.269   6.297  0.6426 -0.1134 -0.0612
  151SAPE   O1416671   6.308   1.292   6.210 -0.1445  0.1389 -0.1469
  151SAPE   O1216672   6.370   1.097   6.336  0.0817  0.2772  0.2759
  151SAPE   O1116673   6.353   1.315   6.451  0.0905 -0.1905  0.6627
  151SAPE    C116674   6.378   1.458   6.462 -0.1231  0.0333 -0.1307
  151SAPE    HA16675   6.447   1.497   6.384 -0.6447  2.0236  0.3344
  151SAPE    HB16676   6.287   1.520   6.444  0.3038  0.8833  0.5993
  151SAPE    C216677   6.438   1.500   6.599  0.2189  0.1113  0.2416
  151SAPE    HS16678   6.482   1.600   6.579  1.2211 -0.7192 -2.0589
  151SAPE   O2116679   6.531   1.405   6.645 -0.1669  0.2628  0.0682
  151SAPE   C2116680   6.640   1.405   6.574 -0.2159  0.1922 -0.2954
  151SAPE   O2216681   6.674   1.495   6.499  0.1525 -0.0547 -0.8471
  151SAPE   C2216682   6.722   1.287   6.609 -0.8084  1.1941 -0.2221
  151SAPE   H2R16683   6.657   1.209   6.655 -0.9207 -0.0589 -2.3469
  151SAPE   H2S16684   6.766   1.248   6.514 -2.2010 -1.4436  0.1143
  151SAPE    C316685   6.325   1.516   6.703 -0.2276  0.1266 -0.3277
  151SAPE    HX16686   6.266   1.424   6.722 -1.3596  1.0346  0.7082
  151SAPE    HY16687   6.239   1.576   6.665  0.1145  1.6481  1.1908
  151SAPE   O3116688   6.375   1.581   6.822 -0.6082  0.3495 -1.1589
  151SAPE   C3116689   6.363   1.708   6.826  0.1738 -0.4143 -0.1401
  151SAPE   O3216690   6.339   1.783   6.734 -0.0006  0.3487  0.1867
  151SAPE   C3216691   6.404   1.751   6.967 -0.0917  0.7990  0.4059
  151SAPE   H2X16692   6.494   1.814   6.948  0.7068 -0.7639 -1.3874
  151SAPE   H2Y16693   6.438   1.659   7.021 -1.3320  1.1291  1.8284
  151SAPE   C2316694   6.834   1.322   6.709  0.0936 -0.2316  0.4316
  151SAPE   H3R16695   6.790   1.340   6.810  0.8847  2.8977  0.3137
  151SAPE   H3S16696   6.893   1.412   6.683  1.4450 -1.2041 -0.0017
  151SAPE   C2416697   6.934   1.202   6.739  0.1294 -0.4614  0.2632
  151SAPE   H4R16698   6.958   1.148   6.645 -0.0430  0.3070 -0.2290
  151SAPE   H4S16699   6.880   1.131   6.807  0.7044  0.6084  1.9062
  151SAPE   C2516700   7.067   1.252   6.805  0.2178 -0.2112  0.8152
  151SAPE   H5R16701   7.142   1.270   6.727  2.4064 -0.0560  2.8353
  151SAPE   C2616702   7.101   1.246   6.934 -0.5938  0.0334  0.1794
  151SAPE   H6R16703   7.198   1.291   6.962  0.0825  0.1560 -2.1464
  151SAPE   C2716704   7.013   1.199   7.047  0.2443 -0.5722  0.0847
  151SAPE   H7R16705   7.044   1.100   7.086  0.3314 -1.2210 -1.5636
  151SAPE   H7S16706   6.913   1.178   7.003 -0.2850  1.9747 -0.0518
  151SAPE   C2816707   7.001   1.315   7.144  0.2086  0.4963 -0.1122
  151SAPE   H8R16708   6.959   1.404   7.096 -1.6786 -0.4606 -0.2964
  151SAPE   C2916709   7.033   1.308   7.276  0.5528 -0.1736  0.5278
  151SAPE   H9R16710   7.014   1.391   7.345  2.1945 -0.8623  1.8727
  151SAPE  C21016711   7.085   1.184   7.352 -0.6536 -0.2985 -0.3673
  151SAPE  H10R16712   7.038   1.091   7.314 -2.7563  0.1531  0.9222
  151SAPE  H10S16713   7.041   1.187   7.454 -0.0309 -3.3023  0.0699
  151SAPE  C21116714   7.238   1.173   7.360 -0.4336 -0.3850 -1.3149
  151SAPE  H11R16715   7.274   1.142   7.261 -1.3458 -0.8228 -1.5234
  151SAPE  C21216716   7.314   1.195   7.470  0.9505 -0.2495 -0.4917
  151SAPE  H12R16717   7.421   1.172   7.466  0.3443 -3.6907  0.3693
  151SAPE  C21316718   7.273   1.234   7.609 -0.3112 -0.2578 -0.4529
  151SAPE  H13R16719   7.305   1.150   7.673 -1.5846  0.8892  1.8269
  151SAPE  H13S16720   7.162   1.242   7.605 -0.7267 -3.6386  1.3746
  151SAPE  C21416721   7.326   1.368   7.649 -0.2184 -0.0258  0.0665
  151SAPE  H14R16722   7.288   1.449   7.585 -0.1570 -0.8988 -1.1123
  151SAPE  C21516723   7.407   1.396   7.754 -0.0065 -0.2121  0.2911
  151SAPE  H15R16724   7.429   1.503   7.769 -3.5539  0.4648  1.6509
  151SAPE  C21616725   7.472   1.288   7.846 -0.1721 -0.1075 -0.7707
  151SAPE  H16R16726   7.575   1.271   7.807  0.6794  0.7573  1.0104
  151SAPE  H16S16727   7.420   1.190   7.848  1.7786 -1.1884  0.5519
  151SAPE  C21716728   7.482   1.325   7.997  0.2074  0.9248  0.7549
  151SAPE  H17R16729   7.523   1.238   8.054  1.3764  1.2730  0.4763
  151SAPE  H17S16730   7.375   1.344   8.016 -0.4635 -1.2008 -0.5457
  151SAPE  C21816731   7.579   1.440   8.022  0.1268  0.7638  0.0565
  151SAPE  H18R16732   7.555   1.527   7.957  2.0509  2.0293  0.9293
  151SAPE  H18S16733   7.680   1.415   7.982  0.7269  0.1426  1.8815
  151SAPE  C21916734   7.576   1.486   8.173  0.0818  0.6966  0.5488
  151SAPE  H19R16735   7.665   1.552   8.181  0.7815  0.2731 -2.5140
  151SAPE  H19S16736   7.599   1.400   8.240  0.6607  0.9512  0.6882
  151SAPE  C22016737   7.444   1.561   8.222 -0.1797  0.5596  0.5175
  151SAPE  H20R16738   7.431   1.573   8.332 -1.9790  3.2066  0.1073
  151SAPE  H20S16739   7.441   1.665   8.183 -0.8015 -0.5733 -2.7069
  151SAPE  H20T16740   7.369   1.493   8.178  1.4885 -1.5396  0.7579
  151SAPE   C3316741   6.310   1.836   7.049  0.8465 -0.0042  0.1633
  151SAPE   H3X16742   6.208   1.793   7.045  0.1848  1.3235  1.7748
  151SAPE   H3Y16743   6.301   1.939   7.008  1.6695 -0.8801 -2.4263
  151SAPE   C3416744   6.344   1.827   7.195  0.3596  0.8111 -0.2274
  151SAPE   H4X16745   6.446   1.868   7.213  0.7818 -0.9123  1.7299
  151SAPE   H4Y16746   6.340   1.720   7.226 -1.2468  0.4326 -1.5976
  151SAPE   C3516747   6.248   1.898   7.292  0.3268  0.1374 -0.4319
  151SAPE   H5X16748   6.141   1.884   7.268 -0.7065 -0.0324  3.6148
  151SAPE   H5Y16749   6.262   2.009   7.293  0.2924  0.1363  0.7356
  151SAPE   C3616750   6.252   1.846   7.436  0.0359  0.3212 -0.3649
  151SAPE   H6X16751   6.214   1.742   7.439 -0.5421  0.4814 -1.6004
  151SAPE   H6Y16752   6.182   1.904   7.500 -0.8936  0.3111 -1.3497
  151SAPE   C3716753   6.392   1.838   7.497 -0.0487  0.2702  0.2162
  151SAPE   H7X16754   6.425   1.940   7.527 -0.5374  0.4064  0.3071
  151SAPE   H7Y16755   6.466   1.792   7.429 -0.5575 -0.3803  0.0926
  151SAPE   C3816756   6.384   1.754   7.619  0.8303  0.2262 -0.3702
  151SAPE   H8X16757   6.487   1.714   7.631  0.3123 -1.0482 -0.0145
  151SAPE   H8Y16758   6.323   1.663   7.598  1.2001  0.4286 -2.5792
  151SAPE   C3916759   6.346   1.814   7.752  0.5433  0.7450 -0.3288
  151SAPE   H9X16760   6.236   1.820   7.762  0.5634  0.4829  0.0638
  151SAPE   H9Y16761   6.403   1.909   7.746  1.2583  0.2553 -2.0807
  151SAPE  C31016762   6.401   1.733   7.865  0.2521 -0.6347  0.1002
  151SAPE  H10X16763   6.510   1.751   7.869  0.2203  0.0560 -1.6538
  151SAPE  H10Y16764   6.385   1.623   7.866 -0.5787 -0.5492  1.7980
  151SAPE  C31116765   6.345   1.780   8.002 -0.0898  0.0100 -0.0914
  151SAPE  H11X16766   6.317   1.689   8.061 -2.5193  0.3049 -0.6907
  151SAPE  H11Y16767   6.257   1.847   7.993 -0.4763 -0.0619  2.3776
  151SAPE  C31216768   6.464   1.830   8.085  0.4199  0.2679 -0.0475
  151SAPE  H12X16769   6.528   1.905   8.035 -0.6947  0.6412 -0.9355
  151SAPE  H12Y16770   6.538   1.749   8.104 -2.2041 -2.1489  0.6003
  151SAPE  C31316771   6.425   1.883   8.227 -1.0510  0.1355 -0.4403
  151SAPE  H13X16772   6.346   1.822   8.276 -1.8440  0.3860 -1.3746
  151SAPE  H13Y16773   6.383   1.984   8.206 -0.4682 -0.0257 -2.5581
  151SAPE  C31416774   6.544   1.884   8.325 -0.5141  0.3612  0.2559
  151SAPE  H14X16775   6.630   1.949   8.297 -0.9564  1.5361  1.4958
  151SAPE  H14Y16776   6.582   1.780   8.325 -1.7924 -0.1198  0.4733
  151SAPE  C31516777   6.504   1.930   8.465 -1.0473  0.2892  0.6363
  151SAPE  H15X16778   6.485   1.831   8.512 -1.0950  1.0490  2.2703
  151SAPE  H15Y16779   6.417   2.000   8.458 -1.6628 -0.4660  0.5488
  151SAPE  C31616780   6.624   1.999   8.539 -0.6131  0.1113 -0.1898
  151SAPE  H16X16781   6.639   2.100   8.493 -0.7818  0.2651  0.0938
  151SAPE  H16Y16782   6.719   1.945   8.520 -0.8397 -0.0945 -0.7688
  151SAPE  C31716783   6.608   1.984   8.693 -0.0266 -0.3352 -0.0676
  151SAPE  H17X16784   6.693   2.024   8.753 -0.1688 -2.0016  1.3520
  151SAPE  H17Y16785   6.611   1.880   8.732  0.8260  0.4088  1.9872
  151SAPE  C31816786   6.490   2.062   8.738 -0.2346 -0.2971 -0.5149
  151SAPE  H18X16787   6.485   2.170   8.715 -2.1474  0.2679  2.0478
  151SAPE  H18Y16788   6.476   2.055   8.848 -1.6793  1.1349 -0.5767
  151SAPE  H18Z16789   6.399   2.016   8.692 -0.3666  0.4379 -1.0027
  152SAPE     N16790   2.351   4.897   5.909  0.0185 -0.2341 -0.5487
  152SAPE   HN116791   2.376   4.815   5.851 -0.9068 -1.0273  0.1417
  152SAPE   HN216792   2.336   4.974   5.841  1.5561  0.2803 -0.3470
  152SAPE   HN316793   2.437   4.930   5.959  1.1461 -0.7981 -2.0360
  152SAPE   C1216794   2.230   4.860   5.985 -0.3287  0.6153 -0.3050
  152SAPE  H12A16795   2.160   4.813   5.912  0.3915  0.7256 -1.0810
  152SAPE  H12B16796   2.174   4.950   6.019 -0.4911  1.4380 -2.5889
  152SAPE   C1116797   2.257   4.754   6.099 -0.6279  0.3502  0.0319
  152SAPE  H11A16798   2.170   4.726   6.162  1.6272  0.5616  3.5041
  152SAPE  H11B16799   2.324   4.808   6.169 -0.5371  1.1795 -0.6833
  152SAPE     P16800   2.228   4.503   6.022  0.0495 -0.0363  0.1810
  152SAPE   O1316801   2.099   4.552   5.968 -0.0561 -0.5384  0.3343
  152SAPE   O1416802   2.305   4.412   5.935 -0.6629  0.1151 -0.4215
  152SAPE   O1216803   2.316   4.637   6.043  0.2486  0.7969  0.0028
  152SAPE   O1116804   2.208   4.441   6.169  0.2455 -0.4991 -0.0304
  152SAPE    C116805   2.322   4.415   6.254 -0.1778 -0.3005  0.9013
  152SAPE    HA16806   2.401   4.367   6.192  0.5631  2.8565 -0.8053
  152SAPE    HB16807   2.361   4.507   6.304 -2.1143  0.8970  0.2968
  152SAPE    C216808   2.291   4.307   6.358 -0.6060  0.5672 -0.3417
  152SAPE    HS16809   2.220   4.240   6.305  0.9492 -0.8054 -0.7698
  152SAPE   O2116810   2.245   4.369   6.483  0.2666  0.0375 -0.0608
  152SAPE   C2116811   2.177   4.281   6.562 -0.0594  0.1206  0.4055
  152SAPE   O2216812   2.149   4.166   6.532  0.2819 -0.0970 -1.1422
  152SAPE   C2216813   2.133   4.355   6.684  0.3760 -0.9344  0.2138
  152SAPE   H2R16814   2.223   4.415   6.712  0.4443 -1.1857  0.5434
  152SAPE   H2S16815   2.046   4.417   6.655  0.0031 -0.7679  1.5887
  152SAPE    C316816   2.410   4.218   6.388  0.2877 -0.0369 -0.5113
  152SAPE    HX16817   2.448   4.170   6.296 -0.7782 -0.0243 -0.9721
  152SAPE    HY16818   2.397   4.137   6.463  1.1196  0.0613 -0.2518
  152SAPE   O3116819   2.526   4.299   6.438  0.6140  1.2096 -0.2918
  152SAPE   C3116820   2.541   4.325   6.568 -0.1782  0.1689 -0.5148
  152SAPE   O3216821   2.469   4.291   6.656  0.2650  0.1049 -0.1226
  152SAPE   C3216822   2.679   4.389   6.599  0.2164 -0.1358  0.3061
  152SAPE   H2X16823   2.679   4.492   6.556  2.6085 -0.3534 -0.3691
  152SAPE   H2Y16824   2.749   4.322   6.545  0.2577  1.2245 -1.4523
  152SAPE   C2316825   2.083   4.259   6.797 -0.0375  0.0440  0.1659
  152SAPE   H3R16826   2.024   4.177   6.752 -1.4729  0.3813  1.3585
  152SAPE   H3S16827   2.014   4.321   6.859  1.2856  0.1434  1.6171
  152SAPE   C2416828   2.196   4.199   6.891  0.2751  0.3952  0.5678
  152SAPE   H4R16829   2.268   4.149   6.823 -0.8843 -0.9396  0.2777
  152SAPE   H4S16830   2.155   4.112   6.946 -0.8594  1.4862  1.4938
  152SAPE   C2516831   2.258   4.295   6.981 -0.1452 -0.2452 -0.4575
  152SAPE   H5R16832   2.341   4.355   6.940  0.1943 -0.0403  0.5143
  152SAPE   C2616833   2.232   4.317   7.115 -0.9050  0.1423 -0.3056
  152SAPE   H6R16834   2.297   4.393   7.162  1.4693 -0.8687 -1.7519
  152SAPE   C2716835   2.137   4.244   7.206  0.5456  0.0369  1.0238
  152SAPE   H7R16836   2.191   4.204   7.294 -0.0344 -1.5332  0.7045
  152SAPE   H7S16837   2.093   4.157   7.154 -0.1139  0.4260  0.9180
  152SAPE   C2816838   2.020   4.333   7.249  0.3225  0.3783  0.2090
  152SAPE   H8R16839   1.951   4.365   7.170  0.1183  0.2005  0.3156
  152SAPE   C2916840   1.998   4.373   7.378 -0.0947  0.1417 -0.5336
  152SAPE   H9R16841   1.904   4.427   7.397 -0.7546 -0.9505 -0.5896
  152SAPE  C21016842   2.077   4.327   7.496  0.2756 -0.4111 -1.2050
  152SAPE  H10R16843   2.074   4.216   7.503  1.4695 -0.3899 -0.0979
  152SAPE  H10S16844   2.021   4.377   7.577  0.1680 -0.9060 -0.9731
  152SAPE  C21116845   2.225   4.372   7.510 -0.2804  0.2712 -0.3110
  152SAPE  H11R16846   2.267   4.416   7.418 -1.0460  0.1349 -0.7360
  152SAPE  C21216847   2.308   4.360   7.613  0.2434 -0.7188  0.2307
  152SAPE  H12R16848   2.407   4.408   7.608 -0.0669  0.0538  1.1186
  152SAPE  C21316849   2.273   4.319   7.755  0.3493 -0.6305  0.6039
  152SAPE  H13R16850   2.365   4.313   7.816  0.3960  0.3632  0.6325
  152SAPE  H13S16851   2.232   4.216   7.743 -0.0911 -0.6062  1.8002
  152SAPE  C21416852   2.163   4.391   7.831 -0.5632 -0.4199  0.0156
  152SAPE  H14R16853   2.064   4.375   7.786  0.4839 -1.3111 -2.1446
  152SAPE  C21516854   2.164   4.469   7.942 -0.1340 -0.5362 -0.1551
  152SAPE  H15R16855   2.068   4.510   7.976  0.2524  0.5503 -0.3441
  152SAPE  C21616856   2.282   4.504   8.030  0.0612 -0.1956  0.0835
  152SAPE  H16R16857   2.279   4.613   8.052  1.7542 -0.3837  1.4788
  152SAPE  H16S16858   2.384   4.483   7.993  0.4102 -0.3283  1.0808
  152SAPE  C21716859   2.277   4.431   8.170  0.1704 -0.2915  0.2829
  152SAPE  H17R16860   2.181   4.456   8.219  0.2500  1.3510 -0.3298
  152SAPE  H17S16861   2.357   4.479   8.231 -0.8108  0.3921  1.0564
  152SAPE  C21816862   2.314   4.282   8.157  0.5899 -0.1342 -0.1459
  152SAPE  H18R16863   2.416   4.284   8.114  0.0376 -1.2852 -1.5877
  152SAPE  H18S16864   2.250   4.223   8.089 -0.5410  2.0593 -1.0837
  152SAPE  C21916865   2.310   4.214   8.295  0.5247 -0.1740 -0.1160
  152SAPE  H19R16866   2.213   4.229   8.346  1.3609 -1.0492  1.8407
  152SAPE  H19S16867   2.379   4.266   8.365 -2.2997  2.8773  0.6335
  152SAPE  C22016868   2.335   4.062   8.289 -0.2737 -0.2153  0.1320
  152SAPE  H20R16869   2.262   4.004   8.229 -0.8053 -1.9641  2.3281
  152SAPE  H20S16870   2.360   4.016   8.387  1.4941  0.2942 -0.0547
  152SAPE  H20T16871   2.435   4.041   8.244 -0.9421 -0.1285 -1.4603
  152SAPE   C3316872   2.713   4.383   6.752 -0.3084 -0.7284  0.6994
  152SAPE   H3X16873   2.709   4.279   6.790  0.0457 -1.0614 -0.1404
  152SAPE   H3Y16874   2.644   4.448   6.810  1.0801  1.2703  0.1993
  152SAPE   C3416875   2.853   4.438   6.773 -0.4429 -0.1862 -0.5396
  152SAPE   H4X16876   2.857   4.466   6.880 -0.8955  0.8665 -0.7801
  152SAPE   H4Y16877   2.887   4.521   6.708 -0.7876  1.8280  1.7219
  152SAPE   C3516878   2.964   4.327   6.766 -0.3429 -0.2035  0.6299
  152SAPE   H5X16879   2.968   4.278   6.666 -0.1418 -0.5815  0.8204
  152SAPE   H5Y16880   2.929   4.253   6.841 -0.3168  0.2574  1.1013
  152SAPE   C3616881   3.105   4.380   6.785 -0.4616 -0.3515  0.4124
  152SAPE   H6X16882   3.135   4.430   6.691  2.4032 -1.1623  0.8263
  152SAPE   H6Y16883   3.156   4.282   6.790 -0.0114 -0.0469  2.9715
  152SAPE   C3716884   3.142   4.455   6.905  0.1786  0.2533  0.0127
  152SAPE   H7X16885   3.106   4.560   6.909  0.9252  0.4895  0.8962
  152SAPE   H7Y16886   3.251   4.476   6.906  0.1590  0.4785  1.8647
  152SAPE   C3816887   3.113   4.389   7.038  0.6022  0.2365  0.4810
  152SAPE   H8X16888   3.145   4.283   7.051 -1.0765 -0.5170 -1.1432
  152SAPE   H8Y16889   3.004   4.369   7.047  0.7066 -1.5695 -1.5012
  152SAPE   C3916890   3.154   4.474   7.158  0.1958 -0.0659  0.6926
  152SAPE   H9X16891   3.074   4.550   7.171 -0.9391 -1.0000 -0.5488
  152SAPE   H9Y16892   3.250   4.525   7.137  0.4748 -0.8016  0.1721
  152SAPE  C31016893   3.170   4.396   7.291 -0.1644  0.0034 -0.3811
  152SAPE  H10X16894   3.250   4.320   7.283 -0.0464 -0.2512  2.3853
  152SAPE  H10Y16895   3.073   4.342   7.306  0.9794 -2.2354 -0.5934
  152SAPE  C31116896   3.179   4.477   7.420 -0.3436 -0.0681 -0.0103
  152SAPE  H11X16897   3.113   4.564   7.397 -0.8919 -0.6212 -0.5857
  152SAPE  H11Y16898   3.284   4.512   7.429  0.3819 -1.4643 -2.3297
  152SAPE  C31216899   3.122   4.395   7.538 -0.2393 -0.2058 -0.0589
  152SAPE  H12X16900   3.179   4.300   7.530  0.9625  0.6086 -2.0657
  152SAPE  H12Y16901   3.017   4.371   7.512 -0.5060 -1.3175  1.8239
  152SAPE  C31316902   3.141   4.454   7.675  0.0548  0.6435  0.5859
  152SAPE  H13X16903   3.059   4.524   7.700 -0.4624 -0.1074  1.0417
  152SAPE  H13Y16904   3.235   4.512   7.688  1.4925 -1.7481  1.5903
  152SAPE  C31416905   3.151   4.337   7.774 -0.6915 -0.3493 -0.3731
  152SAPE  H14X16906   3.225   4.260   7.741  0.9123 -0.7796  3.5814
  152SAPE  H14Y16907   3.056   4.279   7.774  0.4324 -2.3689 -2.3195
  152SAPE  C31516908   3.181   4.384   7.916 -0.2604 -0.0172  0.2735
  152SAPE  H15X16909   3.096   4.453   7.935 -0.3566 -0.7486  2.9574
  152SAPE  H15Y16910   3.285   4.424   7.917 -0.1407 -0.3308  1.1411
  152SAPE  C31616911   3.176   4.274   8.030  0.0314 -0.9928  0.6633
  152SAPE  H16X16912   3.249   4.197   8.000 -2.1577 -2.0275 -2.5485
  152SAPE  H16Y16913   3.081   4.216   8.024 -0.0032 -0.9601  0.8993
  152SAPE  C31716914   3.204   4.343   8.166 -0.2812  0.2173  0.0962
  152SAPE  H17X16915   3.136   4.427   8.192 -0.2228  0.0962  0.6504
  152SAPE  H17Y16916   3.301   4.394   8.155  1.1446 -2.2622  0.3450
  152SAPE  C31816917   3.209   4.243   8.277 -0.5988  0.4849 -0.1943
  152SAPE  H18X16918   3.272   4.154   8.255  0.5092  0.4108  2.8125
  152SAPE  H18Y16919   3.102   4.217   8.292 -1.1117  0.9577 -2.5188
  152SAPE  H18Z16920   3.249   4.288   8.370 -0.9863  0.5314 -0.0514
  153SAPE     N16921   5.617   5.014   6.072 -0.3595  0.3375 -0.3412
  153SAPE   HN116922   5.640   4.913   6.068 -0.7008  0.2866 -1.7879
  153SAPE   HN216923   5.614   5.062   5.980 -0.7810  1.8889  0.4446
  153SAPE   HN316924   5.695   5.063   6.119  1.5805 -1.2881 -1.6700
  153SAPE   C1216925   5.486   5.037   6.149  0.3462 -0.7598 -0.3896
  153SAPE  H12A16926   5.411   4.989   6.083  0.2791 -1.1136 -0.0579
  153SAPE  H12B16927   5.467   5.147   6.151 -0.6344 -0.9257  0.1398
  153SAPE   C1116928   5.491   4.978   6.292  0.0279  0.1992  0.0502
  153SAPE  H11A16929   5.399   5.003   6.348  0.9185 -0.8658  2.1022
  153SAPE  H11B16930   5.572   5.026   6.350 -0.7280  0.3563  1.0104
  153SAPE     P16931   5.407   4.735   6.293 -0.1522  0.0595 -0.1407
  153SAPE   O1316932   5.307   4.758   6.189  0.0520  0.1790 -0.5404
  153SAPE   O1416933   5.477   4.603   6.283 -0.1323 -0.0664  0.7389
  153SAPE   O1216934   5.518   4.843   6.288  0.3227 -0.1129  0.4322
  153SAPE   O1116935   5.334   4.744   6.432 -0.1449  0.0428 -0.5642
  153SAPE    C116936   5.413   4.776   6.549 -0.3319  0.2041 -0.7045
  153SAPE    HA16937   5.494   4.700   6.553  0.7731  1.2430 -2.3867
  153SAPE    HB16938   5.462   4.875   6.536 -0.9813  0.2247 -3.6134
  153SAPE    C216939   5.341   4.762   6.684  0.5535 -0.3683 -0.7702
  153SAPE    HS16940   5.295   4.662   6.697 -2.9791  1.1260 -0.5484
  153SAPE   O2116941   5.232   4.858   6.668 -0.9386  0.6654  0.2961
  153SAPE   C2116942   5.131   4.843   6.757  0.1212  0.1273 -0.6932
  153SAPE   O2216943   5.129   4.760   6.849  0.0448  0.3083 -0.0490
  153SAPE   C2216944   5.028   4.952   6.724 -0.3962 -0.4913 -0.3391
  153SAPE   H2R16945   5.085   5.047   6.719  3.1031 -2.4701 -2.6024
  153SAPE   H2S16946   4.977   4.926   6.628 -0.6709 -1.0488 -0.0503
  153SAPE    C316947   5.440   4.795   6.803  0.3589 -0.3120 -0.0962
  153SAPE    HX16948   5.467   4.903   6.807  1.1731 -0.4010 -2.1237
  153SAPE    HY16949   5.536   4.750   6.770 -0.2052 -2.6637  1.2496
  153SAPE   O3116950   5.396   4.750   6.934 -0.6049  0.0281 -0.7573
  153SAPE   C3116951   5.387   4.615   6.945  0.5730 -0.6469 -0.2692
  153SAPE   O3216952   5.431   4.536   6.865  0.4090  0.1236  0.4158
  153SAPE   C3216953   5.301   4.589   7.071  0.0216 -0.2835  0.2171
  153SAPE   H2X16954   5.199   4.572   7.032  0.8665 -1.3647 -1.6220
  153SAPE   H2Y16955   5.304   4.673   7.143 -0.1148  2.0092 -2.2929
  153SAPE   C2316956   4.926   4.961   6.843 -0.0085 -0.2004 -0.7061
  153SAPE   H3R16957   4.898   4.855   6.866  1.8842 -1.1446 -2.4305
  153SAPE   H3S16958   4.839   5.022   6.809  0.2729  1.3954  1.2561
  153SAPE   C2416959   4.975   5.033   6.967 -0.0467  0.1759  0.0118
  153SAPE   H4R16960   5.013   5.135   6.942 -1.2806  0.6734  0.0523
  153SAPE   H4S16961   5.063   4.977   7.003 -0.4878  0.3956  1.5208
  153SAPE   C2516962   4.870   5.048   7.072 -0.2235  0.6867  0.2783
  153SAPE   H5R16963   4.779   5.109   7.060 -0.1215  0.7962  0.0593
  153SAPE   C2616964   4.881   4.988   7.187 -0.1898  0.6884 -0.4780
  153SAPE   H6R16965   4.804   5.006   7.264 -1.0677 -1.5091 -0.7722
  153SAPE   C2716966   4.987   4.906   7.255 -0.0744  0.5705 -0.2041
  153SAPE   H7R16967   5.034   4.970   7.333 -1.0736  1.4634 -0.3045
  153SAPE   H7S16968   5.072   4.872   7.192 -0.6310 -0.2713 -0.5181
  153SAPE   C2816969   4.917   4.779   7.302  0.6154 -0.2453 -0.4005
  153SAPE   H8R16970   4.888   4.707   7.224 -3.1828  1.0459 -0.3938
  153SAPE   C2916971   4.881   4.751   7.428 -0.1663 -0.0742  0.0930
  153SAPE   H9R16972   4.819   4.663   7.450 -0.8281  0.4110  0.2222
  153SAPE  C21016973   4.900   4.848   7.545 -0.3562  0.0825  0.2044
  153SAPE  H10R16974   4.804   4.856   7.601  0.5450  0.1511  1.8204
  153SAPE  H10S16975   4.915   4.954   7.515  2.1206 -0.4479 -0.6347
  153SAPE  C21116976   5.019   4.811   7.628  0.6997  0.1932  0.4245
  153SAPE  H11R16977   5.112   4.787   7.576  0.1578 -0.3780 -0.2935
  153SAPE  C21216978   5.020   4.783   7.764  0.7846 -0.4178 -0.4307
  153SAPE  H12R16979   5.114   4.756   7.814  0.8809  2.2044  0.9993
  153SAPE  C21316980   4.903   4.792   7.861 -0.6183  0.3185  0.4272
  153SAPE  H13R16981   4.858   4.893   7.849  2.8408  2.0548  0.9703
  153SAPE  H13S16982   4.937   4.786   7.967 -1.7455 -0.7519  0.7624
  153SAPE  C21416983   4.799   4.691   7.829  0.0936  0.9098  0.0513
  153SAPE  H14R16984   4.840   4.602   7.779  0.8306 -0.1379  2.3780
  153SAPE  C21516985   4.666   4.703   7.853 -0.6930 -0.3985  0.0537
  153SAPE  H15R16986   4.600   4.621   7.822  0.5558 -0.9025 -1.3864
  153SAPE  C21616987   4.612   4.824   7.929 -0.3663  0.2042  0.6742
  153SAPE  H16R16988   4.503   4.827   7.909 -0.7799 -0.0426  2.7147
  153SAPE  H16S16989   4.662   4.920   7.904 -1.5060  0.3871 -1.1054
  153SAPE  C21716990   4.636   4.819   8.081  0.1460  0.2999  0.0275
  153SAPE  H17R16991   4.745   4.832   8.095  0.8702 -1.0869 -3.4172
  153SAPE  H17S16992   4.608   4.724   8.131  2.3209  1.4806  3.9125
  153SAPE  C21816993   4.556   4.927   8.153  0.1652 -0.3395 -0.2053
  153SAPE  H18R16994   4.450   4.892   8.155  0.2720 -0.6593 -0.0409
  153SAPE  H18S16995   4.553   5.023   8.098  3.5034  0.3586  0.6475
  153SAPE  C21916996   4.600   4.941   8.309  0.1545  0.1301 -0.0433
  153SAPE  H19R16997   4.709   4.961   8.309  1.1030 -4.0569 -2.0816
  153SAPE  H19S16998   4.585   4.840   8.352 -0.4243 -0.1621 -0.8859
  153SAPE  C22016999   4.523   5.039   8.394  0.0359 -0.6010 -0.1988
  153SAPE  H20R17000   4.513   5.132   8.334 -1.6227 -1.3747 -1.2001
  153SAPE  H20S17001   4.568   5.055   8.494 -4.5178 -0.2137  2.0447
  153SAPE  H20T17002   4.417   5.010   8.412 -0.5072  1.2694 -0.2163
  153SAPE   C3317003   5.348   4.470   7.151 -0.1535  0.4444 -0.4183
  153SAPE   H3X17004   5.346   4.377   7.089  1.7403  0.2049 -0.1918
  153SAPE   H3Y17005   5.263   4.457   7.221 -0.9285  1.1845 -1.1854
  153SAPE   C3417006   5.482   4.496   7.222  0.6369 -0.6115 -0.1976
  153SAPE   H4X17007   5.478   4.590   7.281  0.5103 -0.6293 -0.1780
  153SAPE   H4Y17008   5.573   4.509   7.159  1.8626  2.6841  1.9947
  153SAPE   C3517009   5.514   4.384   7.326 -0.2845 -0.1083 -0.6826
  153SAPE   H5X17010   5.618   4.398   7.362 -0.9736  0.1613  1.3272
  153SAPE   H5Y17011   5.513   4.284   7.276  0.3011 -0.0084 -0.9077
  153SAPE   C3617012   5.427   4.391   7.453  0.1867 -0.5387 -0.1016
  153SAPE   H6X17013   5.319   4.393   7.426  0.0001  1.2178  0.6430
  153SAPE   H6Y17014   5.451   4.483   7.511  0.0067 -0.2884 -0.4232
  153SAPE   C3717015   5.462   4.269   7.538  0.1992 -0.5592  0.2097
  153SAPE   H7X17016   5.569   4.277   7.566  0.6838  1.2982 -1.8555
  153SAPE   H7Y17017   5.446   4.173   7.485 -1.2299 -2.0649  3.1564
  153SAPE   C3817018   5.387   4.277   7.669  0.0692 -0.2196  0.0741
  153SAPE   H8X17019   5.281   4.270   7.636 -0.0780  0.5074  0.3880
  153SAPE   H8Y17020   5.419   4.366   7.727 -1.4992 -0.6999  1.7939
  153SAPE   C3917021   5.419   4.152   7.766 -0.6908  0.2379  0.2403
  153SAPE   H9X17022   5.432   4.062   7.703  0.7556  2.0089 -2.1493
  153SAPE   H9Y17023   5.328   4.136   7.829 -1.3036 -0.9287 -0.8850
  153SAPE  C31017024   5.540   4.179   7.854  0.6257  0.6632  0.8076
  153SAPE  H10X17025   5.519   4.282   7.890 -0.2437  1.0707 -0.7268
  153SAPE  H10Y17026   5.627   4.175   7.785  0.5474 -1.9186  0.7741
  153SAPE  C31117027   5.564   4.077   7.965  0.3009 -1.2716  0.3695
  153SAPE  H11X17028   5.667   4.091   8.003  1.4008 -0.9619 -2.4879
  153SAPE  H11Y17029   5.548   3.970   7.938  1.2603 -1.5054  0.6965
  153SAPE  C31217030   5.467   4.100   8.078 -0.5021 -0.2968  0.4335
  153SAPE  H12X17031   5.370   4.065   8.035  1.3015 -2.1448 -2.4702
  153SAPE  H12Y17032   5.452   4.208   8.097  2.0996 -0.0016  1.1075
  153SAPE  C31317033   5.492   4.029   8.207  0.5423  0.4526 -0.0859
  153SAPE  H13X17034   5.511   3.921   8.190  0.4903  0.6060 -1.2238
  153SAPE  H13Y17035   5.400   4.055   8.264 -1.2077 -1.7920 -1.7155
  153SAPE  C31417036   5.608   4.096   8.282 -0.4370  0.2690 -0.4597
  153SAPE  H14X17037   5.596   4.205   8.267 -0.8327  0.1904 -0.7235
  153SAPE  H14Y17038   5.705   4.062   8.238  1.0176  0.6802  2.2164
  153SAPE  C31517039   5.612   4.043   8.425  0.2166 -0.5468 -0.1147
  153SAPE  H15X17040   5.624   3.933   8.414  0.4813 -0.2732 -4.2293
  153SAPE  H15Y17041   5.516   4.068   8.474  0.6106 -0.6592  0.7239
  153SAPE  C31617042   5.730   4.105   8.500  0.0291 -0.8365 -0.0907
  153SAPE  H16X17043   5.702   4.206   8.535  0.9803 -0.8439  0.7424
  153SAPE  H16Y17044   5.810   4.119   8.424  1.8777  0.2286  1.9353
  153SAPE  C31717045   5.791   4.011   8.613 -0.1992  0.8712  0.5195
  153SAPE  H17X17046   5.704   3.958   8.658 -0.4894  1.7437  1.0046
  153SAPE  H17Y17047   5.825   4.066   8.703  3.0517 -3.3675  2.1975
  153SAPE  C31817048   5.889   3.921   8.559 -0.4346  0.7779  0.1651
  153SAPE  H18X17049   5.913   3.843   8.635 -1.2539  0.5002  0.1471
  153SAPE  H18Y17050   5.981   3.976   8.530 -1.0940  1.3230 -0.9663
  153SAPE  H18Z17051   5.845   3.870   8.471 -0.0320  2.5530 -1.1031
  154SAPE     N17052   3.095   4.696   6.540  0.8955 -0.3805 -0.0912
  154SAPE   HN117053   3.052   4.619   6.485  1.6819  0.0492 -1.3539
  154SAPE   HN217054   3.187   4.672   6.583  0.0189 -0.9841  1.4991
  154SAPE   HN317055   3.028   4.728   6.613  1.2151  3.1110 -1.1683
  154SAPE   C1217056   3.102   4.814   6.445 -0.5104 -0.5088 -0.4743
  154SAPE  H12A17057   3.068   4.909   6.492 -2.3465 -2.1274  1.7079
  154SAPE  H12B17058   3.039   4.791   6.356 -4.3259  2.8453  1.0263
  154SAPE   C1117059   3.244   4.834   6.387 -0.5301  0.5118 -0.1239
  154SAPE  H11A17060   3.307   4.864   6.474  0.1252  1.9597 -1.0456
  154SAPE  H11B17061   3.256   4.920   6.318 -2.2335 -0.3303 -1.5492
  154SAPE     P17062   3.452   4.682   6.306 -0.0455  0.3921  0.0139
  154SAPE   O1317063   3.475   4.533   6.286 -0.1788 -0.0619 -0.6692
  154SAPE   O1417064   3.496   4.775   6.206 -0.0775  0.3440  0.4896
  154SAPE   O1217065   3.302   4.714   6.335  0.0954 -0.2445  0.2040
  154SAPE   O1117066   3.523   4.727   6.444 -0.1828  0.3748  0.0798
  154SAPE    C117067   3.660   4.704   6.465  0.0020  0.3402  0.2672
  154SAPE    HA17068   3.702   4.626   6.398  0.5443 -1.1772  2.2650
  154SAPE    HB17069   3.730   4.786   6.439  2.1142 -0.6854  2.3453
  154SAPE    C217070   3.700   4.662   6.609  0.8113  0.0127  0.1404
  154SAPE    HS17071   3.810   4.643   6.609  0.4035 -2.7702 -0.4873
  154SAPE   O2117072   3.631   4.547   6.656 -0.8489  0.1262 -0.4635
  154SAPE   C2117073   3.662   4.433   6.595  0.6436 -1.0016 -0.2713
  154SAPE   O2217074   3.754   4.418   6.520 -0.5770 -0.0383  0.0059
  154SAPE   C2217075   3.579   4.327   6.657 -0.8134 -0.6030 -0.5293
  154SAPE   H2R17076   3.486   4.381   6.683  1.0349  2.0420  1.0450
  154SAPE   H2S17077   3.558   4.257   6.573 -0.6150 -0.5949 -0.5889
  154SAPE    C317078   3.662   4.780   6.699  0.1805 -0.2227  0.2508
  154SAPE    HX17079   3.553   4.800   6.692 -0.3165 -2.7635 -0.1653
  154SAPE    HY17080   3.720   4.868   6.664  1.0069 -0.5977  0.6601
  154SAPE   O3117081   3.695   4.760   6.834 -0.0854 -0.0801  0.3198
  154SAPE   C3117082   3.609   4.690   6.910  0.2353 -0.4960  0.7520
  154SAPE   O3217083   3.493   4.663   6.885  0.0827  0.2481  0.4349
  154SAPE   C3217084   3.684   4.643   7.035  0.1910  0.1439  0.3656
  154SAPE   H2X17085   3.786   4.687   7.034  0.7516 -1.1138  0.5525
  154SAPE   H2Y17086   3.705   4.535   7.029  0.7095  0.1707  1.4514
  154SAPE   C2317087   3.650   4.255   6.776  0.7137 -0.0899  0.2962
  154SAPE   H3R17088   3.704   4.316   6.851 -0.8188 -0.2327  1.5509
  154SAPE   H3S17089   3.737   4.196   6.738 -0.3129 -0.2068 -2.0284
  154SAPE   C2417090   3.553   4.164   6.851 -0.0568 -0.7879  0.5255
  154SAPE   H4R17091   3.612   4.096   6.917 -0.3985 -0.1107  1.5366
  154SAPE   H4S17092   3.513   4.083   6.786  1.3684 -0.5700 -0.7042
  154SAPE   C2517093   3.454   4.255   6.925  0.2747  0.5167 -0.0076
  154SAPE   H5R17094   3.380   4.309   6.864  0.0897 -2.0775 -2.2636
  154SAPE   C2617095   3.459   4.285   7.055 -0.4086  0.1784 -0.8012
  154SAPE   H6R17096   3.383   4.353   7.097  2.8191  3.3432  0.4420
  154SAPE   C2717097   3.554   4.230   7.160 -0.6136  0.5607  0.0277
  154SAPE   H7R17098   3.562   4.314   7.233 -2.9289  1.5109 -0.7199
  154SAPE   H7S17099   3.656   4.206   7.122 -1.2444  0.3381 -1.5877
  154SAPE   C2817100   3.508   4.099   7.224 -0.1740  0.3151  0.1932
  154SAPE   H8R17101   3.491   4.009   7.163 -1.8817  0.6124  0.1614
  154SAPE   C2917102   3.496   4.085   7.354 -0.8558 -0.1415 -0.1248
  154SAPE   H9R17103   3.468   3.989   7.402  0.0210 -0.0145  0.6696
  154SAPE  C21017104   3.516   4.188   7.459  0.1028 -0.1445  0.7885
  154SAPE  H10R17105   3.422   4.194   7.518 -0.8934 -1.9175 -0.5317
  154SAPE  H10S17106   3.535   4.291   7.421 -3.3154 -0.4106 -2.1901
  154SAPE  C21117107   3.628   4.143   7.549 -0.0307 -0.4324 -0.0079
  154SAPE  H11R17108   3.719   4.177   7.497 -2.4275  0.9814 -3.7013
  154SAPE  C21217109   3.643   4.084   7.678  0.3548  0.4105  0.9896
  154SAPE  H12R17110   3.741   4.062   7.724  0.5639  0.6622  0.6743
  154SAPE  C21317111   3.531   4.036   7.769 -0.9431  0.8870 -0.3222
  154SAPE  H13R17112   3.569   3.941   7.813  0.0644  0.2747 -2.3915
  154SAPE  H13S17113   3.444   4.010   7.705 -0.7939 -0.4281 -0.0233
  154SAPE  C21417114   3.483   4.135   7.868  0.0214 -0.3719 -0.5463
  154SAPE  H14R17115   3.416   4.211   7.825 -0.1316 -1.7062 -2.7953
  154SAPE  C21517116   3.526   4.149   7.996  0.1997  0.2117  0.2924
  154SAPE  H15R17117   3.477   4.224   8.059 -2.9943 -1.1082 -0.4374
  154SAPE  C21617118   3.618   4.052   8.070 -0.0608 -0.4019  0.0508
  154SAPE  H16R17119   3.722   4.078   8.040 -0.2306 -0.4888 -0.6433
  154SAPE  H16S17120   3.611   3.943   8.048  3.6510 -1.0303  1.2412
  154SAPE  C21717121   3.611   4.082   8.221 -0.9676  0.1292 -0.2283
  154SAPE  H17R17122   3.512   4.063   8.267 -0.8004 -2.2889 -0.7440
  154SAPE  H17S17123   3.622   4.192   8.234  2.1890  0.0547 -1.3278
  154SAPE  C21817124   3.716   4.003   8.310 -0.2031  0.2695  0.0216
  154SAPE  H18R17125   3.711   4.027   8.418  0.9191 -1.5843  0.5301
  154SAPE  H18S17126   3.820   4.039   8.293 -0.3633 -0.3656 -2.9679
  154SAPE  C21917127   3.698   3.849   8.302  0.2178  0.1221  0.4272
  154SAPE  H19R17128   3.704   3.821   8.195 -0.7515 -0.5152  0.5323
  154SAPE  H19S17129   3.600   3.808   8.333 -0.4592  0.7698 -0.7923
  154SAPE  C22017130   3.798   3.767   8.383 -0.1593 -0.3097  0.0430
  154SAPE  H20R17131   3.778   3.806   8.485 -2.7313 -0.2668 -0.4103
  154SAPE  H20S17132   3.906   3.788   8.368 -0.0561 -0.1535  0.9085
  154SAPE  H20T17133   3.773   3.659   8.374 -1.0175 -0.3649  2.3634
  154SAPE   C3317134   3.596   4.683   7.153  0.3603  0.1700 -0.2676
  154SAPE   H3X17135   3.495   4.636   7.147  0.5493 -0.2041 -0.5870
  154SAPE   H3Y17136   3.592   4.793   7.163 -0.7499  0.1380 -0.2226
  154SAPE   C3417137   3.655   4.625   7.283  0.3754 -0.0903  0.4357
  154SAPE   H4X17138   3.763   4.651   7.288  0.7493 -1.6967  1.3616
  154SAPE   H4Y17139   3.647   4.514   7.281  1.7663 -0.2086  0.0541
  154SAPE   C3517140   3.602   4.693   7.412 -0.4036 -0.1434 -0.0470
  154SAPE   H5X17141   3.491   4.681   7.418 -0.6352  1.7339  0.2321
  154SAPE   H5Y17142   3.624   4.802   7.413  0.9861 -0.4089  1.0023
  154SAPE   C3617143   3.677   4.648   7.537 -0.2654  0.0453 -0.4793
  154SAPE   H6X17144   3.786   4.659   7.519 -0.3574  2.7879  0.2150
  154SAPE   H6Y17145   3.654   4.541   7.554 -1.7156  0.5275  0.7586
  154SAPE   C3717146   3.649   4.712   7.673  0.3838  0.1811  0.0391
  154SAPE   H7X17147   3.551   4.763   7.676 -0.3796 -1.2130 -0.2777
  154SAPE   H7Y17148   3.726   4.789   7.694  1.6423 -1.0196 -0.0049
  154SAPE   C3817149   3.666   4.612   7.789 -0.2816  0.2807 -0.3392
  154SAPE   H8X17150   3.755   4.545   7.776  0.3148  1.1045 -0.5962
  154SAPE   H8Y17151   3.586   4.536   7.774  0.4459 -0.7963  0.9280
  154SAPE   C3917152   3.673   4.678   7.932  0.2756  0.0050 -0.2742
  154SAPE   H9X17153   3.594   4.755   7.947  0.6830  1.3744 -4.0866
  154SAPE   H9Y17154   3.772   4.728   7.930 -0.6957  2.0540 -0.2265
  154SAPE  C31017155   3.681   4.568   8.050  0.6034 -0.1273  0.1294
  154SAPE  H10X17156   3.775   4.510   8.040  1.4490  1.3460 -0.9934
  154SAPE  H10Y17157   3.591   4.507   8.028  0.1061  1.2160 -1.8579
  154SAPE  C31117158   3.677   4.634   8.191 -0.2654  0.2163  0.5762
  154SAPE  H11X17159   3.580   4.683   8.212 -0.8691 -0.6780 -0.0540
  154SAPE  H11Y17160   3.738   4.727   8.201 -2.4461  2.0319 -1.7032
  154SAPE  C31217161   3.721   4.540   8.301 -0.3491 -0.6251  0.3527
  154SAPE  H12X17162   3.826   4.509   8.280 -0.4290 -2.4476  2.3113
  154SAPE  H12Y17163   3.657   4.450   8.300 -1.9210  0.4559 -0.0084
  154SAPE  C31317164   3.705   4.599   8.442 -0.1776  0.4400  0.1644
  154SAPE  H13X17165   3.595   4.617   8.447 -0.1422  0.4260  1.3038
  154SAPE  H13Y17166   3.754   4.699   8.444 -0.7156  0.7074  0.7107
  154SAPE  C31417167   3.765   4.511   8.559  0.4493  0.2639 -0.3249
  154SAPE  H14X17168   3.875   4.495   8.553  0.5026  1.2117 -2.8604
  154SAPE  H14Y17169   3.723   4.411   8.537 -0.9103  1.0570 -1.4296
  154SAPE  C31517170   3.713   4.558   8.699 -0.0057 -0.7012 -0.0663
  154SAPE  H15X17171   3.736   4.476   8.770 -0.4739 -2.3792 -1.7792
  154SAPE  H15Y17172   3.604   4.577   8.701  0.1385  0.3173  2.5529
  154SAPE  C31617173   3.792   4.681   8.749 -0.0276  0.1130 -0.2826
  154SAPE  H16X17174   3.781   4.771   8.684  1.6590  0.0860 -0.6346
  154SAPE  H16Y17175   3.900   4.659   8.757  0.0479 -0.5129 -2.4358
  154SAPE  C31717176   3.752   4.723   8.892 -0.2579  0.9829 -0.0988
  154SAPE  H17X17177   3.834   4.779   8.941  0.3266 -1.6309  2.1943
  154SAPE  H17Y17178   3.728   4.635   8.956  3.2599  0.6281  0.9433
  154SAPE  C31817179   3.628   4.812   8.885  0.2041 -0.2776 -0.5967
  154SAPE  H18X17180   3.658   4.909   8.840 -1.3784  1.6106  2.0964
  154SAPE  H18Y17181   3.589   4.828   8.987  1.7801 -0.4976  0.0631
  154SAPE  H18Z17182   3.551   4.756   8.826 -0.4794  1.0917 -1.0474
  155SAPE     N17183   5.442   6.447   6.545  0.0397 -0.1281 -0.3944
  155SAPE   HN117184   5.425   6.539   6.499  0.3529  0.8010  1.2667
  155SAPE   HN217185   5.353   6.403   6.576 -0.0152 -2.3226 -3.1994
  155SAPE   HN317186   5.503   6.467   6.626 -2.8867  1.2387  1.6407
  155SAPE   C1217187   5.500   6.342   6.453  0.4123  0.3789 -0.6827
  155SAPE  H12A17188   5.545   6.266   6.520  0.3502  0.5614 -0.4329
  155SAPE  H12B17189   5.584   6.385   6.393 -0.5456 -0.2959 -2.5856
  155SAPE   C1117190   5.405   6.274   6.358  1.1824 -0.0418  0.0309
  155SAPE  H11A17191   5.318   6.240   6.419  0.9564 -0.4843 -0.5390
  155SAPE  H11B17192   5.453   6.183   6.318  0.2512 -0.5348  0.0095
  155SAPE     P17193   5.225   6.442   6.251 -0.4383  0.0420 -0.1470
  155SAPE   O1317194   5.242   6.585   6.222  0.2152  0.5068 -0.6946
  155SAPE   O1417195   5.130   6.365   6.163 -0.2124  0.1672 -0.0660
  155SAPE   O1217196   5.366   6.369   6.255  0.2718 -0.2923 -0.3481
  155SAPE   O1117197   5.174   6.434   6.404  0.3515  0.0880  0.4113
  155SAPE    C117198   5.057   6.500   6.443  0.1539 -0.4034 -0.7770
  155SAPE    HA17199   5.069   6.605   6.408  1.7408  0.4409  2.0530
  155SAPE    HB17200   4.970   6.456   6.388  0.4649 -1.5544 -0.3853
  155SAPE    C217201   5.020   6.485   6.593 -0.2024  0.2690 -0.4076
  155SAPE    HS17202   5.091   6.544   6.655  1.5868 -2.7340  0.6589
  155SAPE   O2117203   5.007   6.346   6.637  0.0052 -0.3060  0.5534
  155SAPE   C2117204   5.127   6.301   6.670  0.3424 -0.2808  0.5360
  155SAPE   O2217205   5.230   6.370   6.683  0.2889  0.5317  0.3911
  155SAPE   C2217206   5.121   6.147   6.681  0.1680  0.3512 -0.3949
  155SAPE   H2R17207   5.050   6.105   6.607 -0.6351 -0.6872  0.9238
  155SAPE   H2S17208   5.215   6.097   6.652  0.0131 -1.0716  1.3967
  155SAPE    C317209   4.891   6.567   6.615  0.5936  0.2194 -0.5166
  155SAPE    HX17210   4.804   6.532   6.557 -0.5463 -1.7886  2.2140
  155SAPE    HY17211   4.910   6.666   6.566 -0.8020  0.8810  0.2245
  155SAPE   O3117212   4.868   6.590   6.758  0.4220 -0.2811  0.5912
  155SAPE   C3117213   4.732   6.586   6.791 -0.0715  0.0545 -0.6629
  155SAPE   O3217214   4.638   6.572   6.715 -0.7369 -0.0653  0.6582
  155SAPE   C3217215   4.713   6.583   6.942  0.5511 -0.8188  0.4450
  155SAPE   H2X17216   4.615   6.539   6.972 -1.2739  2.9583  0.5783
  155SAPE   H2Y17217   4.708   6.691   6.966 -0.7096 -0.3219 -1.8214
  155SAPE   C2317218   5.057   6.103   6.814 -0.9488  0.8214 -0.6629
  155SAPE   H3R17219   4.974   6.173   6.835 -0.5866  1.6868 -1.9631
  155SAPE   H3S17220   5.131   6.125   6.894  1.7735  1.0929 -3.0592
  155SAPE   C2417221   5.003   5.962   6.816 -0.4462 -0.7387 -0.0855
  155SAPE   H4R17222   5.081   5.883   6.801  0.5967  0.4033 -0.8427
  155SAPE   H4S17223   4.923   5.949   6.740 -1.2329  1.4966  0.2884
  155SAPE   C2517224   4.934   5.949   6.943 -0.1027  0.0961  0.6668
  155SAPE   H5R17225   4.825   5.945   6.924  0.0744  1.7890 -1.0360
  155SAPE   C2617226   4.980   5.931   7.071  0.0591 -0.5696  0.3164
  155SAPE   H6R17227   4.905   5.910   7.148 -3.0219 -0.9296 -2.5456
  155SAPE   C2717228   5.124   5.932   7.116 -0.0729  0.3819  0.2277
  155SAPE   H7R17229   5.195   5.970   7.039 -0.9227 -1.4379 -1.5620
  155SAPE   H7S17230   5.147   5.824   7.117 -2.7766 -0.2791  0.0286
  155SAPE   C2817231   5.146   6.007   7.244  0.8698  0.9636 -0.0144
  155SAPE   H8R17232   5.153   6.117   7.244 -0.3390  1.0673 -1.1373
  155SAPE   C2917233   5.144   5.950   7.367 -0.9681 -0.3968  0.1909
  155SAPE   H9R17234   5.165   6.023   7.447  1.2955  1.2648 -1.7552
  155SAPE  C21017235   5.136   5.802   7.410  0.4027 -0.3853  0.1657
  155SAPE  H10R17236   5.206   5.788   7.494  0.7468 -1.6589 -0.3159
  155SAPE  H10S17237   5.160   5.730   7.328  0.9918 -0.7077  0.6230
  155SAPE  C21117238   4.995   5.762   7.444  0.0508  0.1016 -0.2188
  155SAPE  H11R17239   4.930   5.758   7.355  0.6414  0.9447 -0.7116
  155SAPE  C21217240   4.947   5.729   7.563 -0.0165 -0.6434  0.5672
  155SAPE  H12R17241   4.844   5.689   7.564  0.2298 -1.3331 -0.5681
  155SAPE  C21317242   5.016   5.737   7.699  0.1137 -0.3634  0.0928
  155SAPE  H13R17243   4.938   5.738   7.778 -2.9518  0.1286 -2.7264
  155SAPE  H13S17244   5.078   5.829   7.691  2.5447 -2.0810 -2.9668
  155SAPE  C21417245   5.115   5.624   7.733 -0.2747 -0.1566 -0.1506
  155SAPE  H14R17246   5.191   5.604   7.655 -1.3067 -0.0029 -1.2315
  155SAPE  C21517247   5.137   5.567   7.855  0.3634  0.3033  0.4923
  155SAPE  H15R17248   5.227   5.504   7.862 -0.3024 -0.8467 -0.8386
  155SAPE  C21617249   5.082   5.600   7.983  0.7835 -0.0792 -0.3898
  155SAPE  H16R17250   5.110   5.512   8.045  1.6003  0.2972 -0.2097
  155SAPE  H16S17251   4.971   5.598   7.978  0.7840  0.4826 -0.6848
  155SAPE  C21717252   5.136   5.731   8.050 -0.9572 -0.2638 -0.3305
  155SAPE  H17R17253   5.096   5.739   8.153 -0.3629 -1.5405  0.0223
  155SAPE  H17S17254   5.097   5.822   7.999 -0.6531 -0.5796 -1.1535
  155SAPE  C21817255   5.294   5.745   8.054  0.2357 -0.4002 -0.0127
  155SAPE  H18R17256   5.333   5.775   7.955  1.1298  0.0942  0.4700
  155SAPE  H18S17257   5.331   5.642   8.066  0.6850 -0.2506 -0.1081
  155SAPE  C21917258   5.345   5.831   8.166  0.1725  0.1530 -0.3128
  155SAPE  H19R17259   5.277   5.899   8.221  0.3581 -0.7821  1.1179
  155SAPE  H19S17260   5.430   5.886   8.119  0.5441 -0.2402 -0.1117
  155SAPE  C22017261   5.406   5.734   8.273 -0.4128 -0.0502  0.3049
  155SAPE  H20R17262   5.477   5.661   8.229  0.0903  0.8324 -0.3796
  155SAPE  H20S17263   5.330   5.676   8.331 -0.3955  0.5034  0.8915
  155SAPE  H20T17264   5.458   5.797   8.348  2.9449 -2.5291  0.2579
  155SAPE   C3317265   4.826   6.515   7.015 -0.5129 -0.3018 -0.1789
  155SAPE   H3X17266   4.811   6.534   7.123 -0.2350 -4.1896  0.7129
  155SAPE   H3Y17267   4.925   6.554   6.982 -0.6376 -0.9753 -1.4041
  155SAPE   C3417268   4.823   6.363   7.005  0.2193  0.2989 -0.2821
  155SAPE   H4X17269   4.873   6.335   6.909 -0.0871  1.3116 -0.7473
  155SAPE   H4Y17270   4.717   6.333   6.994  0.1484  0.7313 -0.8280
  155SAPE   C3517271   4.883   6.301   7.131 -0.7000 -0.3729 -0.4752
  155SAPE   H5X17272   4.964   6.369   7.164 -0.6548 -1.0496  0.8849
  155SAPE   H5Y17273   4.919   6.197   7.118 -2.0542 -1.0066  0.6136
  155SAPE   C3617274   4.774   6.302   7.241 -0.3932  0.5543 -0.5690
  155SAPE   H6X17275   4.692   6.251   7.186  0.4425  1.3247 -2.6522
  155SAPE   H6Y17276   4.745   6.403   7.276 -0.7320 -0.2673  1.6850
  155SAPE   C3717277   4.828   6.230   7.357 -0.0492  0.7312 -0.4560
  155SAPE   H7X17278   4.929   6.260   7.393  1.6149 -3.7568 -0.6681
  155SAPE   H7Y17279   4.854   6.127   7.326  0.4596 -0.3436  3.0378
  155SAPE   C3817280   4.733   6.233   7.478  0.1316  0.2302 -0.8451
  155SAPE   H8X17281   4.642   6.181   7.439 -0.3335  0.4435 -0.0497
  155SAPE   H8Y17282   4.717   6.339   7.506 -1.6785 -0.2017 -0.1303
  155SAPE   C3917283   4.798   6.166   7.590 -0.6143  1.1790 -0.1741
  155SAPE   H9X17284   4.892   6.222   7.611 -0.4805  1.1747 -0.7583
  155SAPE   H9Y17285   4.812   6.056   7.579 -2.1326  0.8684  0.7082
  155SAPE  C31017286   4.707   6.167   7.710  0.9494 -0.4289  0.1577
  155SAPE  H10X17287   4.615   6.119   7.671  0.0154  0.8279  0.7381
  155SAPE  H10Y17288   4.681   6.272   7.736  0.3897 -0.5116 -0.0544
  155SAPE  C31117289   4.759   6.089   7.839 -0.3354 -0.0010  0.0824
  155SAPE  H11X17290   4.844   6.151   7.875 -1.0892  0.7028  0.7032
  155SAPE  H11Y17291   4.801   5.992   7.807  1.7624  1.2439 -1.2082
  155SAPE  C31217292   4.659   6.062   7.956  0.1204 -0.3743  0.1740
  155SAPE  H12X17293   4.594   5.976   7.929 -1.0888  0.8674 -1.0772
  155SAPE  H12Y17294   4.590   6.150   7.957  2.0077  1.2516 -1.6528
  155SAPE  C31317295   4.715   6.044   8.097  0.9848  0.5673  0.8631
  155SAPE  H13X17296   4.800   6.115   8.108  1.8974 -0.4092  0.3675
  155SAPE  H13Y17297   4.751   5.939   8.105  0.3660  0.4299  2.1041
  155SAPE  C31417298   4.611   6.072   8.209  0.2776  0.3449  0.2881
  155SAPE  H14X17299   4.542   5.984   8.209  1.6241 -0.8664  3.1679
  155SAPE  H14Y17300   4.545   6.156   8.177 -0.8903 -0.4682  0.4709
  155SAPE  C31517301   4.656   6.096   8.345 -0.3604  0.7831 -0.8626
  155SAPE  H15X17302   4.571   6.135   8.406 -0.2758  1.4339 -1.1551
  155SAPE  H15Y17303   4.748   6.159   8.338 -0.1863  0.3918 -2.2512
  155SAPE  C31617304   4.707   5.966   8.417  0.1248 -0.3697 -0.9759
  155SAPE  H16X17305   4.802   5.943   8.364  1.1607 -3.2060  1.8249
  155SAPE  H16Y17306   4.629   5.887   8.409  0.2840 -0.4918 -1.3318
  155SAPE  C31717307   4.743   5.986   8.565 -0.0443  0.2329 -0.3226
  155SAPE  H17X17308   4.767   5.884   8.601 -0.1725  0.3874  0.2265
  155SAPE  H17Y17309   4.647   6.019   8.612  0.2466 -1.2072  1.4056
  155SAPE  C31817310   4.850   6.088   8.604  0.3321 -0.0698 -0.3439
  155SAPE  H18X17311   4.949   6.052   8.568  1.2695  2.7395 -0.8865
  155SAPE  H18Y17312   4.848   6.095   8.715 -1.8735 -0.7143 -0.2999
  155SAPE  H18Z17313   4.835   6.187   8.555 -1.8873 -0.8774 -1.4350
  156SAPE     N17314   3.709   6.751   6.859 -0.6739  0.7638  0.7629
  156SAPE   HN117315   3.804   6.772   6.822 -0.3372 -0.1555  1.0577
  156SAPE   HN217316   3.645   6.813   6.807 -0.5621  0.9530  0.8514
  156SAPE   HN317317   3.709   6.786   6.957 -1.3390  0.4557  0.8820
  156SAPE   C1217318   3.660   6.599   6.856  0.1395 -0.1504 -0.1722
  156SAPE  H12A17319   3.680   6.552   6.955 -0.7972 -1.4350 -0.5646
  156SAPE  H12B17320   3.723   6.556   6.776 -1.5727 -0.4696 -1.3913
  156SAPE   C1117321   3.507   6.595   6.827  0.0234  0.6282 -0.0462
  156SAPE  H11A17322   3.441   6.633   6.908 -2.3698 -2.1425 -0.5537
  156SAPE  H11B17323   3.490   6.488   6.802 -0.6413  0.9750 -1.1273
  156SAPE     P17324   3.343   6.673   6.651  0.0883  0.2543  0.7058
  156SAPE   O1317325   3.249   6.709   6.758  0.2312 -0.2265 -0.1629
  156SAPE   O1417326   3.337   6.758   6.527 -0.0641  0.7579  0.3905
  156SAPE   O1217327   3.490   6.670   6.705  0.7997 -0.2888  0.0116
  156SAPE   O1117328   3.316   6.524   6.606  0.2454 -0.2683 -0.6680
  156SAPE    C117329   3.417   6.428   6.565  0.1390  0.4508 -0.6860
  156SAPE    HA17330   3.417   6.415   6.455 -0.8514 -3.8147 -0.3516
  156SAPE    HB17331   3.516   6.456   6.608 -0.8529  1.2869  1.1926
  156SAPE    C217332   3.402   6.284   6.644 -0.0704 -1.0458  0.6975
  156SAPE    HS17333   3.332   6.227   6.579 -1.1170 -0.1346  1.0077
  156SAPE   O2117334   3.361   6.315   6.779 -0.2035  0.0430  0.1155
  156SAPE   C2117335   3.270   6.243   6.836  0.1363 -0.0719  0.5352
  156SAPE   O2217336   3.220   6.141   6.794 -0.3991  0.1171 -0.1321
  156SAPE   C2217337   3.241   6.297   6.977  0.4064 -0.2406  0.0374
  156SAPE   H2R17338   3.228   6.407   6.985  0.7465 -0.0628 -1.5531
  156SAPE   H2S17339   3.150   6.245   7.014  0.4203 -0.0354  0.3643
  156SAPE    C317340   3.534   6.199   6.647  0.2757 -0.0190  0.2657
  156SAPE    HX17341   3.621   6.266   6.662 -0.1074  0.4326  0.5040
  156SAPE    HY17342   3.558   6.172   6.542  2.6013  2.3519  0.0766
  156SAPE   O3117343   3.536   6.096   6.741 -0.2143  0.3014 -0.3119
  156SAPE   C3117344   3.509   5.978   6.697  0.7035  0.6150  0.3905
  156SAPE   O3217345   3.467   5.946   6.585 -0.5996 -0.3606 -0.0716
  156SAPE   C3217346   3.508   5.871   6.807  0.9422  0.6291  0.5512
  156SAPE   H2X17347   3.473   5.776   6.761  1.3573  0.6652  0.1491
  156SAPE   H2Y17348   3.443   5.905   6.891  2.2767  0.3187  1.7601
  156SAPE   C2317349   3.353   6.268   7.078  0.3477  0.3507 -0.0568
  156SAPE   H3R17350   3.439   6.312   7.022  0.6269 -0.3762 -0.2064
  156SAPE   H3S17351   3.377   6.162   7.100 -1.0209 -0.0835 -0.5404
  156SAPE   C2417352   3.325   6.339   7.222  0.0693 -0.3209 -0.5778
  156SAPE   H4R17353   3.328   6.449   7.205 -0.9556  0.0465  1.3577
  156SAPE   H4S17354   3.406   6.316   7.295  0.3782 -0.2700 -0.9015
  156SAPE   C2517355   3.196   6.307   7.295  0.3543 -0.0686 -0.0049
  156SAPE   H5R17356   3.179   6.200   7.316  2.2701 -0.0904  1.6900
  156SAPE   C2617357   3.114   6.409   7.339  0.0456  0.0085  0.1552
  156SAPE   H6R17358   3.012   6.385   7.373  0.6975 -2.0568  0.8055
  156SAPE   C2717359   3.143   6.558   7.327 -0.7609 -0.0133  0.1516
  156SAPE   H7R17360   3.251   6.580   7.338 -0.4074 -1.7989  0.4170
  156SAPE   H7S17361   3.087   6.601   7.413  2.9141  0.1285  2.7018
  156SAPE   C2817362   3.106   6.634   7.198 -0.1902  0.2013  0.1829
  156SAPE   H8R17363   3.148   6.592   7.105  0.2700  0.6809  0.1673
  156SAPE   C2917364   3.036   6.750   7.190  0.8838 -0.1157 -0.0006
  156SAPE   H9R17365   3.003   6.787   7.092 -0.2044 -1.8051 -0.3293
  156SAPE  C21017366   2.974   6.833   7.307 -0.3822  0.4588 -0.3399
  156SAPE  H10R17367   2.958   6.938   7.277 -1.9157  0.6687  1.0933
  156SAPE  H10S17368   3.038   6.847   7.397 -2.3810 -1.2884  1.4962
  156SAPE  C21117369   2.842   6.771   7.351  1.0260 -0.0781  0.8815
  156SAPE  H11R17370   2.779   6.738   7.268  1.0431  0.7691  0.5192
  156SAPE  C21217371   2.784   6.759   7.476  0.1091 -0.0076  0.2014
  156SAPE  H12R17372   2.687   6.707   7.484  0.4802 -0.4567  2.7843
  156SAPE  C21317373   2.842   6.795   7.615 -0.0465  0.0849  0.5484
  156SAPE  H13R17374   2.767   6.862   7.660 -1.4066 -0.4318 -0.8529
  156SAPE  H13S17375   2.924   6.868   7.600 -0.0378  0.3271  1.6703
  156SAPE  C21417376   2.885   6.682   7.702  0.5048 -0.2235 -0.2984
  156SAPE  H14R17377   2.909   6.585   7.656  0.4465 -0.6855  0.6280
  156SAPE  C21517378   2.878   6.674   7.840  0.6885  0.8764  0.1979
  156SAPE  H15R17379   2.913   6.584   7.891  1.6709 -0.1352 -2.1011
  156SAPE  C21617380   2.819   6.778   7.933 -0.0468 -0.2424  0.2907
  156SAPE  H16R17381   2.732   6.830   7.889  1.0680  1.8547  0.4567
  156SAPE  H16S17382   2.895   6.855   7.958  0.7545 -0.9508  0.1118
  156SAPE  C21717383   2.765   6.717   8.065  0.1996  0.3024 -0.1742
  156SAPE  H17R17384   2.844   6.657   8.114  0.5395 -0.0534 -1.1515
  156SAPE  H17S17385   2.681   6.647   8.044 -0.1656  0.0904  1.7621
  156SAPE  C21817386   2.704   6.820   8.155  0.6386  0.1260  0.0044
  156SAPE  H18R17387   2.779   6.895   8.188 -0.6471  0.7308  1.7913
  156SAPE  H18S17388   2.669   6.783   8.254 -0.8358  0.1889 -0.4585
  156SAPE  C21917389   2.585   6.907   8.109  0.5002  0.1961  0.9600
  156SAPE  H19R17390   2.635   6.968   8.031  1.3656 -2.6657 -0.9090
  156SAPE  H19S17391   2.543   6.973   8.187 -1.0216  1.0495 -0.5109
  156SAPE  C22017392   2.475   6.826   8.035 -0.0325 -0.7284 -0.2202
  156SAPE  H20R17393   2.519   6.776   7.947 -0.7709  0.4585 -1.2989
  156SAPE  H20S17394   2.402   6.905   8.009  1.5114 -0.2647 -3.6156
  156SAPE  H20T17395   2.435   6.749   8.105 -2.0069  0.2029 -0.2425
  156SAPE   C3317396   3.652   5.831   6.848  0.0962  0.0528  0.0168
  156SAPE   H3X17397   3.704   5.906   6.912  0.4773 -0.3163  0.1471
  156SAPE   H3Y17398   3.710   5.808   6.756 -0.1771  0.0802 -0.1641
  156SAPE   C3417399   3.650   5.704   6.931  0.5651 -0.9011  0.6228
  156SAPE   H4X17400   3.754   5.666   6.936  0.4433 -1.3488 -0.1470
  156SAPE   H4Y17401   3.595   5.619   6.885 -0.6997  0.1368  0.1511
  156SAPE   C3517402   3.603   5.734   7.079  0.3062 -0.5170  0.3630
  156SAPE   H5X17403   3.492   5.744   7.082  0.2591 -1.1628  1.8520
  156SAPE   H5Y17404   3.649   5.830   7.109  2.1671 -1.1913 -0.2044
  156SAPE   C3617405   3.643   5.623   7.179  0.3809  0.9077  0.1546
  156SAPE   H6X17406   3.745   5.585   7.158 -0.6164 -0.2381 -3.2905
  156SAPE   H6Y17407   3.575   5.540   7.148 -0.7174  1.9867 -0.4155
  156SAPE   C3717408   3.620   5.658   7.327  0.5074  0.2452 -0.4438
  156SAPE   H7X17409   3.650   5.764   7.341  2.1019 -0.1004 -0.9869
  156SAPE   H7Y17410   3.682   5.597   7.395  2.2396  0.4103 -1.8061
  156SAPE   C3817411   3.477   5.650   7.375 -0.0124 -0.0944 -0.1209
  156SAPE   H8X17412   3.434   5.548   7.360  0.0004 -0.0445 -0.5162
  156SAPE   H8Y17413   3.419   5.708   7.299 -1.0544 -0.4058  0.4232
  156SAPE   C3917414   3.465   5.688   7.526  0.2931 -0.2189  0.0687
  156SAPE   H9X17415   3.482   5.797   7.541  1.4164 -0.4007  0.2186
  156SAPE   H9Y17416   3.546   5.647   7.590  1.0796  1.0262 -0.0887
  156SAPE  C31017417   3.331   5.637   7.588 -0.3320  0.5660  0.5185
  156SAPE  H10X17418   3.341   5.527   7.602 -0.0654  0.3812 -0.9671
  156SAPE  H10Y17419   3.254   5.652   7.510  0.5814  2.7841 -0.0386
  156SAPE  C31117420   3.296   5.704   7.725  0.4252  0.3916  1.1309
  156SAPE  H11X17421   3.195   5.666   7.750  0.2800 -0.7896 -0.9378
  156SAPE  H11Y17422   3.294   5.814   7.714  0.7574  0.3062  0.0653
  156SAPE  C31217423   3.383   5.675   7.844  0.3146 -0.1897 -0.0665
  156SAPE  H12X17424   3.485   5.713   7.824  0.4821  0.3909  1.7151
  156SAPE  H12Y17425   3.396   5.566   7.860 -1.0122 -0.6200 -1.5996
  156SAPE  C31317426   3.333   5.754   7.969 -0.4629  0.3748  0.0668
  156SAPE  H13X17427   3.360   5.861   7.958 -2.0117  0.5705 -3.1128
  156SAPE  H13Y17428   3.388   5.721   8.060  1.5205  0.7708 -0.9425
  156SAPE  C31417429   3.183   5.746   8.004 -0.5692  0.1691  0.0303
  156SAPE  H14X17430   3.167   5.636   8.012 -1.5691  0.3394  0.6092
  156SAPE  H14Y17431   3.120   5.785   7.922 -0.9790 -1.0120 -0.2446
  156SAPE  C31517432   3.146   5.800   8.139  0.3453 -0.2878  0.1596
  156SAPE  H15X17433   3.172   5.722   8.214  0.2933 -0.1512  0.3235
  156SAPE  H15Y17434   3.036   5.808   8.150  0.1368 -1.4536 -0.8983
  156SAPE  C31617435   3.216   5.933   8.184 -0.7051  0.4184  0.3194
  156SAPE  H16X17436   3.202   6.005   8.100 -0.3479  0.8489  0.6276
  156SAPE  H16Y17437   3.326   5.934   8.192 -0.3794  1.6452 -2.9473
  156SAPE  C31717438   3.154   5.999   8.311  0.2277  0.1051 -0.3592
  156SAPE  H17X17439   3.127   5.919   8.383  1.0310 -1.1094 -1.3419
  156SAPE  H17Y17440   3.066   6.055   8.274  1.5224  1.2173 -1.9168
  156SAPE  C31817441   3.249   6.102   8.383  0.0341 -0.0703 -0.5129
  156SAPE  H18X17442   3.192   6.153   8.463  0.3630 -2.0460  1.0459
  156SAPE  H18Y17443   3.284   6.174   8.306 -0.2532 -0.5673 -1.1169
  156SAPE  H18Z17444   3.334   6.049   8.432 -1.2072 -2.3477 -0.7263
  157SAPE     N17445   5.679   4.440   6.348 -0.0330 -0.2835  0.0665
  157SAPE   HN117446   5.695   4.432   6.451  0.6815 -2.6784 -0.1734
  157SAPE   HN217447   5.591   4.494   6.333 -0.3064 -0.3169  1.3888
  157SAPE   HN317448   5.670   4.343   6.312 -1.5154 -1.2802  2.8192
  157SAPE   C1217449   5.785   4.518   6.271  0.3014  0.0376  0.0566
  157SAPE  H12A17450   5.886   4.488   6.305  0.2715 -1.0473 -0.7720
  157SAPE  H12B17451   5.777   4.623   6.306 -0.9947 -0.0815  0.1751
  157SAPE   C1117452   5.770   4.493   6.122 -0.2428 -0.3215  0.1207
  157SAPE  H11A17453   5.668   4.514   6.083 -0.2174 -1.7875 -0.7872
  157SAPE  H11B17454   5.788   4.385   6.103  0.5361 -0.0153 -0.9609
  157SAPE     P17455   5.862   4.725   6.029 -0.0484  0.4167  0.1078
  157SAPE   O1317456   5.945   4.757   5.907  0.3058  0.4558  0.1699
  157SAPE   O1417457   5.726   4.776   6.034 -0.2715  0.0231 -0.0090
  157SAPE   O1217458   5.868   4.569   6.053 -0.3598 -0.3428  0.6694
  157SAPE   O1117459   5.938   4.769   6.150 -0.0097 -0.3882  0.5494
  157SAPE    C117460   6.032   4.877   6.148 -0.5903  0.9140 -0.2009
  157SAPE    HA17461   6.120   4.846   6.089 -0.2388 -0.3866  0.9617
  157SAPE    HB17462   5.986   4.970   6.108  0.1292  0.3064 -2.6137
  157SAPE    C217463   6.085   4.918   6.291 -0.3693 -0.2135  0.1754
  157SAPE    HS17464   6.152   4.839   6.332 -3.5070 -2.1545  1.9736
  157SAPE   O2117465   5.966   4.940   6.371  0.5811 -0.5255  0.3223
  157SAPE   C2117466   5.922   4.828   6.425  0.5271 -0.5937 -0.8860
  157SAPE   O2217467   5.982   4.720   6.429 -0.2277 -0.2256 -0.0281
  157SAPE   C2217468   5.783   4.850   6.484  0.3105 -0.4432 -0.0374
  157SAPE   H2R17469   5.724   4.898   6.404  0.1907 -2.2284 -1.0832
  157SAPE   H2S17470   5.745   4.748   6.506 -0.9637 -0.1395 -0.7361
  157SAPE    C317471   6.162   5.050   6.290 -0.2718 -0.4761 -1.0958
  157SAPE    HX17472   6.098   5.137   6.263 -0.8295  0.7656  3.4693
  157SAPE    HY17473   6.247   5.045   6.219 -0.5113 -2.2341 -1.3038
  157SAPE   O3117474   6.227   5.058   6.413 -0.4140 -0.3255 -0.0410
  157SAPE   C3117475   6.180   5.150   6.497 -0.6511 -0.4721 -0.0596
  157SAPE   O3217476   6.088   5.225   6.481 -0.4386  0.0650 -0.4229
  157SAPE   C3217477   6.279   5.165   6.610 -0.3307  0.0311 -0.4062
  157SAPE   H2X17478   6.326   5.265   6.620 -1.7979  0.8265 -1.1459
  157SAPE   H2Y17479   6.356   5.085   6.604 -0.2568  0.0186  0.5270
  157SAPE   C2317480   5.775   4.947   6.605 -0.5474  0.7628  0.5585
  157SAPE   H3R17481   5.672   4.942   6.647 -1.0016  3.9746  0.0994
  157SAPE   H3S17482   5.795   5.050   6.567 -0.8947  0.7779  0.4193
  157SAPE   C2417483   5.869   4.917   6.719 -0.1246 -0.3232 -0.4005
  157SAPE   H4R17484   5.845   5.004   6.783 -1.7556 -1.9096  1.2583
  157SAPE   H4S17485   5.973   4.919   6.679  0.8222 -2.7168  1.6102
  157SAPE   C2517486   5.831   4.767   6.768  0.0961  0.2754 -0.9851
  157SAPE   H5R17487   5.840   4.689   6.691  0.5630  0.9789 -1.6691
  157SAPE   C2617488   5.783   4.737   6.888 -0.4933 -0.3648  0.4748
  157SAPE   H6R17489   5.762   4.634   6.923 -2.5280 -0.0408  0.3789
  157SAPE   C2717490   5.762   4.836   7.002  1.0269  0.7831  0.6717
  157SAPE   H7R17491   5.673   4.791   7.052  1.1405 -2.8485 -1.9512
  157SAPE   H7S17492   5.727   4.936   6.968  0.3729  0.8910  1.6279
  157SAPE   C2817493   5.888   4.831   7.081  0.7027  0.2597 -0.4608
  157SAPE   H8R17494   5.979   4.863   7.029  0.1125 -0.1245 -1.7751
  157SAPE   C2917495   5.910   4.779   7.206 -0.7228 -0.1794  0.3308
  157SAPE   H9R17496   6.009   4.790   7.251  0.4540 -0.9773 -1.9152
  157SAPE  C21017497   5.804   4.710   7.291 -0.3999  0.8727 -0.3870
  157SAPE  H10R17498   5.719   4.681   7.226  1.5274 -2.7074 -1.6147
  157SAPE  H10S17499   5.768   4.781   7.368 -0.5238  1.0584 -0.6145
  157SAPE  C21117500   5.871   4.591   7.356 -0.2522  0.2657  0.0989
  157SAPE  H11R17501   5.906   4.511   7.289  1.6797 -0.4019  1.8214
  157SAPE  C21217502   5.896   4.566   7.484  0.5801  0.1299  0.4836
  157SAPE  H12R17503   5.939   4.467   7.502 -1.2314 -0.7804  0.1043
  157SAPE  C21317504   5.853   4.641   7.607 -0.2875 -0.4832 -0.0495
  157SAPE  H13R17505   5.885   4.576   7.692  3.6783 -1.9236 -2.3974
  157SAPE  H13S17506   5.742   4.637   7.604 -0.3253  0.2608  0.2564
  157SAPE  C21417507   5.906   4.779   7.626 -0.0105 -1.1348  0.4217
  157SAPE  H14R17508   5.933   4.826   7.530  2.0344  2.8798  2.7254
  157SAPE  C21517509   5.926   4.855   7.737 -0.9022  0.4906  0.5810
  157SAPE  H15R17510   5.958   4.960   7.738 -1.1090  0.5510  0.7350
  157SAPE  C21617511   5.899   4.809   7.875 -1.0425 -0.2301 -0.6196
  157SAPE  H16R17512   5.863   4.704   7.873 -2.0487  0.1146 -1.0358
  157SAPE  H16S17513   5.820   4.870   7.923  0.9562  1.5144  0.6509
  157SAPE  C21717514   6.028   4.830   7.975 -0.1428  0.0483 -0.4853
  157SAPE  H17R17515   5.989   4.810   8.077  1.2298 -0.1316  0.0161
  157SAPE  H17S17516   6.051   4.938   7.976 -0.3935  0.1014 -0.3023
  157SAPE  C21817517   6.150   4.742   7.936 -0.0425 -0.6361  0.1491
  157SAPE  H18R17518   6.200   4.783   7.846 -2.1366 -0.1092 -0.8216
  157SAPE  H18S17519   6.114   4.644   7.899  0.9084 -0.3488 -1.6504
  157SAPE  C21917520   6.255   4.735   8.043  0.1464  0.6925  0.4601
  157SAPE  H19R17521   6.210   4.691   8.134  0.5798  0.4322  0.5469
  157SAPE  H19S17522   6.300   4.831   8.074  3.0109 -0.3992 -0.0572
  157SAPE  C22017523   6.381   4.646   8.000 -0.3859 -0.2417 -0.2339
  157SAPE  H20R17524   6.339   4.545   7.978  1.0890 -0.6409 -1.4214
  157SAPE  H20S17525   6.458   4.646   8.080 -2.3850 -0.2474  1.8038
  157SAPE  H20T17526   6.426   4.691   7.909 -2.0493  1.1956 -0.3952
  157SAPE   C3317527   6.211   5.132   6.746  0.3424 -0.1612  0.2051
  157SAPE   H3X17528   6.145   5.043   6.744  0.9521 -0.8113  3.3326
  157SAPE   H3Y17529   6.143   5.219   6.764  0.0537 -0.2144 -0.5789
  157SAPE   C3417530   6.294   5.130   6.869 -0.1689  0.2699  0.1632
  157SAPE   H4X17531   6.335   5.234   6.874 -0.1592  0.3357 -1.0282
  157SAPE   H4Y17532   6.375   5.055   6.861  0.8361  1.2332  0.9634
  157SAPE   C3517533   6.204   5.101   6.994  0.2446  0.4837 -0.2435
  157SAPE   H5X17534   6.181   4.994   6.975 -2.0451  0.9247 -0.1948
  157SAPE   H5Y17535   6.103   5.145   6.977  0.2759  1.1813  1.1736
  157SAPE   C3617536   6.281   5.125   7.125  0.5526 -0.8797 -0.2790
  157SAPE   H6X17537   6.333   5.223   7.126  0.1415 -0.6637  0.7154
  157SAPE   H6Y17538   6.357   5.046   7.141  1.0764 -0.6026 -1.3397
  157SAPE   C3717539   6.188   5.128   7.243 -0.6452 -0.3793 -0.0330
  157SAPE   H7X17540   6.131   5.033   7.229 -1.9710  0.1017  1.7656
  157SAPE   H7Y17541   6.115   5.212   7.241  0.7219  0.8342  0.0563
  157SAPE   C3817542   6.267   5.107   7.373  0.7440 -0.1695 -0.5520
  157SAPE   H8X17543   6.344   5.188   7.378  1.8861 -1.2711  0.5660
  157SAPE   H8Y17544   6.325   5.012   7.378  0.6002 -0.4123 -2.6507
  157SAPE   C3917545   6.168   5.123   7.487  0.3580 -0.2943 -0.2089
  157SAPE   H9X17546   6.119   5.024   7.497  2.0099 -0.9391  3.1606
  157SAPE   H9Y17547   6.088   5.196   7.465 -0.5419 -1.0150  0.5363
  157SAPE  C31017548   6.247   5.152   7.613 -0.3035  0.1985  0.1734
  157SAPE  H10X17549   6.188   5.213   7.684 -0.3132 -1.4636  1.6742
  157SAPE  H10Y17550   6.334   5.216   7.590  0.2336 -0.4574  0.3467
  157SAPE  C31117551   6.291   5.021   7.691  0.7595 -0.0423 -0.2874
  157SAPE  H11X17552   6.372   4.963   7.641  1.1209 -2.1162  2.4959
  157SAPE  H11Y17553   6.206   4.951   7.693  1.5146 -1.0193 -1.3022
  157SAPE  C31217554   6.343   5.056   7.833 -0.3054 -0.2917  0.2450
  157SAPE  H12X17555   6.335   4.975   7.908 -2.3219 -0.1614  0.2231
  157SAPE  H12Y17556   6.282   5.141   7.870  3.1901  3.0401 -1.0356
  157SAPE  C31317557   6.494   5.097   7.842  0.0112 -0.2220  0.0712
  157SAPE  H13X17558   6.511   5.199   7.802 -0.7004  0.0899  0.5454
  157SAPE  H13Y17559   6.552   5.028   7.777  0.6826 -0.0672  0.4987
  157SAPE  C31417560   6.553   5.090   7.984 -0.5485  0.6273  0.2218
  157SAPE  H14X17561   6.653   5.136   7.994  0.0560 -0.4707 -0.5739
  157SAPE  H14Y17562   6.571   4.981   7.995 -0.8468  0.6752  1.2121
  157SAPE  C31517563   6.472   5.147   8.101  0.3956  0.1337  0.5683
  157SAPE  H15X17564   6.383   5.081   8.107 -0.7009  1.3604 -1.0383
  157SAPE  H15Y17565   6.434   5.249   8.078  0.8958  0.4153  0.9720
  157SAPE  C31617566   6.552   5.152   8.237  0.0555 -0.3268 -0.6077
  157SAPE  H16X17567   6.490   5.205   8.312  0.7522  0.0969 -0.3276
  157SAPE  H16Y17568   6.653   5.196   8.233  0.0910 -0.3315  0.2171
  157SAPE  C31717569   6.585   5.018   8.306  0.1667  0.0694 -0.1012
  157SAPE  H17X17570   6.646   4.962   8.232 -1.3188  0.6435 -1.8314
  157SAPE  H17Y17571   6.496   4.953   8.322 -1.6833  2.5499  0.3558
  157SAPE  C31817572   6.654   5.043   8.444 -0.2930 -0.1451  0.1373
  157SAPE  H18X17573   6.757   5.080   8.430 -0.0572 -0.7757  0.1682
  157SAPE  H18Y17574   6.667   4.945   8.495  2.0751 -0.0047 -0.1016
  157SAPE  H18Z17575   6.591   5.112   8.504 -0.6294 -0.2043 -0.1393
  158SAPE     N17576   2.880   6.519   5.924 -0.4132  0.0752 -0.6337
  158SAPE   HN117577   2.896   6.447   5.851  0.5798  1.4035 -1.7942
  158SAPE   HN217578   2.799   6.492   5.983  1.8859  2.1065  3.9586
  158SAPE   HN317579   2.871   6.592   5.850  0.0911  0.2004 -0.5782
  158SAPE   C1217580   3.003   6.514   6.004 -0.6740  0.1701  0.1041
  158SAPE  H12A17581   3.089   6.465   5.954 -0.2891  0.0996  0.8198
  158SAPE  H12B17582   2.993   6.441   6.087  0.3506 -1.7942 -1.4068
  158SAPE   C1117583   3.043   6.653   6.055  0.1225  0.6261 -0.4997
  158SAPE  H11A17584   3.087   6.721   5.979 -0.4564  1.0347 -0.4705
  158SAPE  H11B17585   3.127   6.644   6.127  2.0388  1.7315 -2.4781
  158SAPE     P17586   2.954   6.856   6.194  0.1449 -0.1579  0.6138
  158SAPE   O1317587   3.072   6.842   6.283  0.6583 -0.7951 -0.0983
  158SAPE   O1417588   2.973   6.962   6.094 -0.1161  0.6413  0.6743
  158SAPE   O1217589   2.934   6.724   6.113 -0.0059  0.0503 -0.7519
  158SAPE   O1117590   2.824   6.873   6.274 -0.1183  0.7237  0.3334
  158SAPE    C117591   2.759   6.762   6.346  0.1537 -0.1983  0.4771
  158SAPE    HA17592   2.652   6.769   6.319  0.5512 -0.7336 -1.3237
  158SAPE    HB17593   2.801   6.666   6.311  1.5994  0.2011  1.0017
  158SAPE    C217594   2.768   6.765   6.499 -0.2391 -0.8596 -0.1955
  158SAPE    HS17595   2.704   6.681   6.532 -1.8068  0.1632 -0.4874
  158SAPE   O2117596   2.725   6.892   6.557 -0.5334  0.6517  0.4228
  158SAPE   C2117597   2.592   6.909   6.554 -0.5836 -0.1907 -0.3148
  158SAPE   O2217598   2.512   6.845   6.495 -0.0248  0.0320  0.3090
  158SAPE   C2217599   2.552   7.025   6.649  0.5329  0.4697  0.6204
  158SAPE   H2R17600   2.634   7.100   6.648 -1.4507  2.7512  0.2377
  158SAPE   H2S17601   2.467   7.069   6.592  0.6015 -1.1721 -0.8629
  158SAPE    C317602   2.903   6.726   6.554 -0.4223  0.0183  0.0698
  158SAPE    HX17603   2.976   6.806   6.528  1.7921 -1.8583  0.2401
  158SAPE    HY17604   2.928   6.641   6.487  0.5193  0.6041 -0.3503
  158SAPE   O3117605   2.899   6.689   6.694  0.1831 -0.1093  0.0734
  158SAPE   C3117606   2.909   6.555   6.723  0.6324  0.1543 -0.2183
  158SAPE   O3217607   2.925   6.470   6.641  0.0549 -0.0692  0.1454
  158SAPE   C3217608   2.870   6.533   6.867  0.0489 -0.4585 -0.1893
  158SAPE   H2X17609   2.774   6.580   6.895 -0.0726  0.4266 -1.9738
  158SAPE   H2Y17610   2.943   6.572   6.942 -1.0292  0.0269  0.6350
  158SAPE   C2317611   2.503   6.978   6.795 -0.2725  0.4740 -0.1677
  158SAPE   H3R17612   2.408   6.922   6.778  0.0370 -0.0131 -0.2891
  158SAPE   H3S17613   2.475   7.060   6.864 -0.0370  0.1366  0.3350
  158SAPE   C2417614   2.606   6.897   6.872 -0.9569 -0.3668  0.5304
  158SAPE   H4R17615   2.626   6.808   6.808 -1.1343  1.6108 -2.5078
  158SAPE   H4S17616   2.562   6.867   6.970 -0.0289 -1.7488  0.5597
  158SAPE   C2517617   2.742   6.963   6.888  0.1337  0.5895 -0.4819
  158SAPE   H5R17618   2.812   6.959   6.803 -0.2727 -0.8243 -0.7702
  158SAPE   C2617619   2.774   7.027   7.000  0.2120 -0.4155  0.3280
  158SAPE   H6R17620   2.876   7.067   7.010  0.0033  0.4155 -0.7091
  158SAPE   C2717621   2.678   7.053   7.110 -0.4705 -0.5985  0.4323
  158SAPE   H7R17622   2.663   6.963   7.174  0.1283  0.0118  1.4510
  158SAPE   H7S17623   2.576   7.078   7.075 -0.7229  0.9705  2.1376
  158SAPE   C2817624   2.734   7.158   7.200 -0.1183  0.7534  0.3007
  158SAPE   H8R17625   2.813   7.217   7.152 -2.4311  1.2886 -3.1936
  158SAPE   C2917626   2.697   7.194   7.323 -0.1512 -0.3218  0.6170
  158SAPE   H9R17627   2.749   7.279   7.370 -2.9226  2.7558 -1.4021
  158SAPE  C21017628   2.586   7.127   7.414 -0.3404  0.7990  0.3553
  158SAPE  H10R17629   2.622   7.032   7.457  0.5121  0.5584 -0.8444
  158SAPE  H10S17630   2.486   7.106   7.370 -0.5414 -0.6622  1.4448
  158SAPE  C21117631   2.563   7.211   7.542  0.3366 -0.2522 -0.5104
  158SAPE  H11R17632   2.459   7.229   7.572  1.3374  1.1874  2.5737
  158SAPE  C21217633   2.654   7.242   7.639  0.0035  0.3104 -0.3636
  158SAPE  H12R17634   2.628   7.301   7.728  0.8509  0.6995 -0.3585
  158SAPE  C21317635   2.796   7.203   7.643 -0.6871 -0.4318 -0.1266
  158SAPE  H13R17636   2.854   7.290   7.605  0.3020 -0.7006  0.7244
  158SAPE  H13S17637   2.816   7.111   7.583  0.2350 -1.3050  1.4765
  158SAPE  C21417638   2.839   7.185   7.784 -0.3902 -0.2570  0.3553
  158SAPE  H14R17639   2.777   7.121   7.849  2.4051 -2.8222  0.7327
  158SAPE  C21517640   2.947   7.228   7.847 -0.8025 -0.4398 -0.1452
  158SAPE  H15R17641   2.961   7.207   7.954 -1.1769 -0.1950 -0.0454
  158SAPE  C21617642   3.055   7.324   7.789 -0.2072 -0.3039 -0.1782
  158SAPE  H16R17643   3.018   7.364   7.692  0.2309 -1.9756 -1.0721
  158SAPE  H16S17644   3.157   7.286   7.767  1.3504  3.5986 -0.4752
  158SAPE  C21717645   3.069   7.441   7.885  0.0098 -0.2422 -0.6272
  158SAPE  H17R17646   3.107   7.408   7.984  0.9082  1.7165 -0.2697
  158SAPE  H17S17647   2.964   7.474   7.904  1.0727  2.4228  1.1401
  158SAPE  C21817648   3.148   7.561   7.833  0.0347  0.3808 -0.6678
  158SAPE  H18R17649   3.136   7.660   7.881  0.8273 -0.6163  1.7473
  158SAPE  H18S17650   3.098   7.583   7.736 -1.4165 -1.5099 -0.4271
  158SAPE  C21917651   3.300   7.550   7.829  0.7132  0.2721  0.0065
  158SAPE  H19R17652   3.349   7.645   7.799  1.3479 -0.0251  0.0913
  158SAPE  H19S17653   3.325   7.470   7.757 -0.6228  0.5031 -0.7589
  158SAPE  C22017654   3.352   7.509   7.972  0.8267 -0.6487  0.6283
  158SAPE  H20R17655   3.291   7.560   8.049 -0.3147  1.5040 -1.5424
  158SAPE  H20S17656   3.458   7.540   7.984  1.2019 -1.2126 -0.9717
  158SAPE  H20T17657   3.334   7.401   7.994 -0.0390 -0.9350 -1.2652
  158SAPE   C3317658   2.845   6.383   6.904  0.6125  0.1672  0.1293
  158SAPE   H3X17659   2.919   6.311   6.863  2.8472  2.8572 -0.9040
  158SAPE   H3Y17660   2.747   6.361   6.857 -0.6090 -1.2567  3.0878
  158SAPE   C3417661   2.837   6.355   7.058  0.4948  1.0868 -0.7526
  158SAPE   H4X17662   2.769   6.433   7.099 -0.8890  0.0067 -0.9068
  158SAPE   H4Y17663   2.937   6.353   7.106  1.0897 -1.6788 -1.9442
  158SAPE   C3517664   2.762   6.222   7.086  0.1250 -0.4447  0.3393
  158SAPE   H5X17665   2.835   6.139   7.074  1.5868  0.1568  3.8006
  158SAPE   H5Y17666   2.678   6.216   7.014  0.3627  3.2514 -0.4638
  158SAPE   C3617667   2.692   6.215   7.225 -0.0618 -0.3020 -0.2707
  158SAPE   H6X17668   2.615   6.295   7.226  0.6228  0.3876  1.8794
  158SAPE   H6Y17669   2.761   6.239   7.308 -0.0033 -2.7599  0.4719
  158SAPE   C3717670   2.645   6.079   7.271  0.5269 -0.2494  0.2768
  158SAPE   H7X17671   2.563   6.038   7.208 -0.0868 -1.6444  1.8967
  158SAPE   H7Y17672   2.731   6.008   7.266  3.2290  2.8457 -0.2251
  158SAPE   C3817673   2.597   6.073   7.418  0.1824 -0.3037  0.0614
  158SAPE   H8X17674   2.518   6.148   7.439  1.0311 -0.0907  3.0150
  158SAPE   H8Y17675   2.690   6.078   7.478 -0.1013  1.3090  0.4157
  158SAPE   C3917676   2.538   5.934   7.453 -0.7036  0.2451 -0.2140
  158SAPE   H9X17677   2.584   5.843   7.409  0.6412  0.6137  0.3437
  158SAPE   H9Y17678   2.439   5.932   7.405  0.4376 -0.3312 -2.7041
  158SAPE  C31017679   2.518   5.921   7.608  0.1752 -0.0768  0.4448
  158SAPE  H10X17680   2.456   6.007   7.641  0.8895 -0.2135  2.2236
  158SAPE  H10Y17681   2.616   5.910   7.658  0.8086 -0.9967 -0.9204
  158SAPE  C31117682   2.451   5.787   7.643  0.0859  0.8579  0.4644
  158SAPE  H11X17683   2.488   5.703   7.580 -4.1360 -0.8254 -0.0842
  158SAPE  H11Y17684   2.342   5.798   7.622 -0.0993 -0.4962  0.6786
  158SAPE  C31217685   2.468   5.755   7.793  0.0161 -0.0268  0.1892
  158SAPE  H12X17686   2.571   5.736   7.829 -0.0447  0.6473  0.7599
  158SAPE  H12Y17687   2.426   5.652   7.798  0.3125 -0.2191 -1.1032
  158SAPE  C31317688   2.403   5.867   7.871  0.3177  0.5087 -0.6832
  158SAPE  H13X17689   2.325   5.917   7.809  1.6725 -0.0242 -2.9178
  158SAPE  H13Y17690   2.487   5.934   7.899  1.0744 -0.5325 -0.3995
  158SAPE  C31417691   2.336   5.805   7.994 -0.2371 -0.0156  0.0602
  158SAPE  H14X17692   2.255   5.739   7.956  0.2699  0.4092 -1.8884
  158SAPE  H14Y17693   2.312   5.897   8.050 -1.5145 -0.1558 -0.2422
  158SAPE  C31517694   2.436   5.726   8.073 -0.1425  0.2782 -0.6071
  158SAPE  H15X17695   2.541   5.762   8.071  0.3408 -0.8350  1.6351
  158SAPE  H15Y17696   2.430   5.618   8.047 -0.4419 -1.0108  3.9097
  158SAPE  C31617697   2.399   5.713   8.224  0.1485 -0.0737  0.4852
  158SAPE  H16X17698   2.412   5.810   8.277 -2.0468  0.3500  0.3131
  158SAPE  H16Y17699   2.472   5.639   8.262 -1.5956 -2.5310 -0.7018
  158SAPE  C31717700   2.254   5.655   8.255 -0.3691  0.4962  0.1559
  158SAPE  H17X17701   2.184   5.735   8.223 -0.2889  0.8594  0.8738
  158SAPE  H17Y17702   2.249   5.640   8.365 -3.4833 -0.5369 -0.0327
  158SAPE  C31817703   2.229   5.524   8.179 -0.0771  0.7126  0.0134
  158SAPE  H18X17704   2.299   5.445   8.214  1.7374  1.5508 -1.5276
  158SAPE  H18Y17705   2.230   5.535   8.069 -0.3291 -0.5872 -0.1286
  158SAPE  H18Z17706   2.127   5.487   8.200 -0.8602  2.0254 -1.3112
  159SAPE     N17707   0.250   0.620   5.939  0.4621  0.4574  0.6732
  159SAPE   HN117708   0.293   0.530   5.970 -0.2961 -0.4386 -0.7514
  159SAPE   HN217709   0.242   0.614   5.835 -1.7985 -0.2325  0.8429
  159SAPE   HN317710   0.318   0.697   5.957  0.1217  1.4123 -1.7929
  159SAPE   C1217711   0.120   0.638   6.010  0.0567 -0.6812 -0.1546
  159SAPE  H12A17712   0.047   0.561   5.977 -2.2613  1.4000 -0.1533
  159SAPE  H12B17713   0.084   0.743   6.006 -0.8928 -0.7342  3.6024
  159SAPE   C1117714   0.130   0.603   6.160 -0.1947  0.3976 -0.1227
  159SAPE  H11A17715   0.038   0.623   6.219  0.2319  0.6793  0.4681
  159SAPE  H11B17716   0.210   0.668   6.202 -0.4607  0.4524  0.3096
  159SAPE     P17717   0.270   0.401   6.257 -0.0595 -0.0677 -0.2331
  159SAPE   O1317718   0.238   0.271   6.311 -0.0386  0.8810  0.2969
  159SAPE   O1417719   0.392   0.419   6.172 -0.1808  0.6168  0.3160
  159SAPE   O1217720   0.144   0.459   6.182 -0.3038 -0.1563  0.3845
  159SAPE   O1117721   0.284   0.503   6.385 -0.6596 -0.1311  0.2371
  159SAPE    C117722   0.400   0.580   6.405  0.4819  0.6566  0.0412
  159SAPE    HA17723   0.490   0.524   6.372 -0.9576  0.0880 -3.3161
  159SAPE    HB17724   0.410   0.676   6.350 -2.3805  1.8792  1.4324
  159SAPE    C217725   0.411   0.618   6.558  0.2638  0.1328 -0.3172
  159SAPE    HS17726   0.508   0.669   6.576 -0.1904  0.8427  0.1629
  159SAPE   O2117727   0.406   0.501   6.638  0.3475 -0.4728 -0.3424
  159SAPE   C2117728   0.518   0.432   6.658  0.5583 -0.2465 -0.8131
  159SAPE   O2217729   0.627   0.455   6.615 -0.0807  0.4296 -0.0322
  159SAPE   C2217730   0.487   0.315   6.755 -0.4162 -0.0893  0.0513
  159SAPE   H2R17731   0.394   0.268   6.716 -0.5199  1.0510 -1.1727
  159SAPE   H2S17732   0.572   0.254   6.718  0.7271  0.4557  1.6652
  159SAPE    C317733   0.297   0.713   6.613  0.7348  0.2383 -0.0352
  159SAPE    HX17734   0.207   0.648   6.606  0.3041  0.9276 -1.1725
  159SAPE    HY17735   0.287   0.803   6.548  0.0706 -0.6535 -1.2155
  159SAPE   O3117736   0.318   0.756   6.751  0.3128  0.5355  0.1954
  159SAPE   C3117737   0.214   0.796   6.812 -0.5828  0.0844 -0.5627
  159SAPE   O3217738   0.099   0.803   6.769  0.2003 -0.2933  0.0034
  159SAPE   C3217739   0.252   0.855   6.951  0.6013 -0.2444  0.7137
  159SAPE   H2X17740   0.159   0.912   6.970 -0.4595 -1.7260  0.1451
  159SAPE   H2Y17741   0.340   0.923   6.947 -0.5585  1.4237  2.1060
  159SAPE   C2317742   0.475   0.338   6.908  0.8166 -0.0218  0.8016
  159SAPE   H3R17743   0.573   0.382   6.938  0.8348  2.6520 -2.4713
  159SAPE   H3S17744   0.446   0.247   6.964  0.3639 -0.1766  0.3227
  159SAPE   C2417745   0.369   0.442   6.938  0.1601 -0.6392 -0.4347
  159SAPE   H4R17746   0.386   0.540   6.889  1.1467  0.1586  1.3962
  159SAPE   H4S17747   0.372   0.458   7.048 -0.6167 -2.6958 -0.0686
  159SAPE   C2517748   0.231   0.391   6.897 -0.0741  0.1507  0.2824
  159SAPE   H5R17749   0.170   0.437   6.819 -2.0992  1.3914  2.4675
  159SAPE   C2617750   0.162   0.312   6.984 -0.0682 -0.1658  0.8436
  159SAPE   H6R17751   0.067   0.274   6.945  1.0715 -0.5157 -1.7670
  159SAPE   C2717752   0.203   0.248   7.112  0.6917  0.3594  0.1984
  159SAPE   H7R17753   0.293   0.308   7.139  0.6346  1.3141 -1.5708
  159SAPE   H7S17754   0.244   0.150   7.079 -0.7056 -0.2503  0.1796
  159SAPE   C2817755   0.097   0.225   7.221 -0.1961  0.2976 -0.2524
  159SAPE   H8R17756  -0.008   0.209   7.189 -0.3147 -2.3852  1.1886
  159SAPE   C2917757   0.117   0.204   7.355  0.1793 -0.1268  0.5064
  159SAPE   H9R17758   0.031   0.179   7.419  1.1309  0.4219  2.0601
  159SAPE  C21017759   0.246   0.204   7.428 -0.4385  0.4170  0.8979
  159SAPE  H10R17760   0.264   0.312   7.451 -0.8443  0.6954 -0.0548
  159SAPE  H10S17761   0.325   0.185   7.352 -1.3578 -0.5500  0.1673
  159SAPE  C21117762   0.257   0.099   7.536 -0.1171  0.4844 -0.1763
  159SAPE  H11R17763   0.316   0.012   7.505 -0.3908  0.4826 -0.6987
  159SAPE  C21217764   0.209   0.112   7.660  0.1716  0.0160  0.2359
  159SAPE  H12R17765   0.215   0.023   7.723  0.7429  0.2213  0.4769
  159SAPE  C21317766   0.137   0.232   7.718  0.1226 -0.4727  0.5833
  159SAPE  H13R17767   0.049   0.201   7.777  0.0344 -1.0029  0.1851
  159SAPE  H13S17768   0.080   0.292   7.643  2.0009 -1.0799 -1.4512
  159SAPE  C21417769   0.237   0.315   7.793  0.3809 -0.0378  0.0508
  159SAPE  H14R17770   0.298   0.376   7.726 -0.8681 -1.8706 -2.9402
  159SAPE  C21517771   0.252   0.321   7.925  0.5390 -0.4785  0.2222
  159SAPE  H15R17772   0.326   0.390   7.967 -0.6300  0.1599  1.3164
  159SAPE  C21617773   0.166   0.236   8.019  0.2125 -0.2082 -0.1979
  159SAPE  H16R17774   0.139   0.135   7.982 -0.4847 -0.1736  0.2024
  159SAPE  H16S17775   0.072   0.292   8.035 -0.5988 -1.3509 -0.8222
  159SAPE  C21717776   0.234   0.197   8.152 -0.4166  0.0921 -0.9337
  159SAPE  H17R17777   0.317   0.126   8.136 -1.1497 -0.6841 -1.3773
  159SAPE  H17S17778   0.163   0.141   8.216  0.3995 -1.3280 -1.2263
  159SAPE  C21817779   0.279   0.305   8.246 -0.1412  0.0211  0.9671
  159SAPE  H18R17780   0.191   0.368   8.274 -0.4104  0.5488 -0.9202
  159SAPE  H18S17781   0.343   0.376   8.190  0.1519 -0.3242  0.8674
  159SAPE  C21917782   0.366   0.259   8.365 -0.2022 -0.4749 -0.5322
  159SAPE  H19R17783   0.417   0.353   8.394 -2.8685  1.1746 -0.7946
  159SAPE  H19S17784   0.434   0.176   8.337 -2.7958 -2.9645  0.0486
  159SAPE  C22017785   0.287   0.206   8.488 -1.0953  0.4604  0.6038
  159SAPE  H20R17786   0.186   0.254   8.488 -2.1631 -1.6619  1.4689
  159SAPE  H20S17787   0.331   0.234   8.586 -0.8317 -1.3184  1.0214
  159SAPE  H20T17788   0.271   0.097   8.477 -0.6772  0.6469 -2.9257
  159SAPE   C3317789   0.279   0.755   7.061  0.2935 -0.2876  0.6159
  159SAPE   H3X17790   0.385   0.723   7.051  1.0624  2.3959 -0.7812
  159SAPE   H3Y17791   0.220   0.663   7.039  1.3868 -1.4080  2.1922
  159SAPE   C3417792   0.231   0.812   7.200  0.3511 -0.3530  0.1720
  159SAPE   H4X17793   0.132   0.861   7.194  0.0170 -1.1535 -2.4641
  159SAPE   H4Y17794   0.307   0.887   7.232 -0.6995  0.0519  1.8429
  159SAPE   C3517795   0.216   0.711   7.311 -0.1253 -0.3226 -0.1730
  159SAPE   H5X17796   0.318   0.673   7.330 -0.0720 -0.0689  0.0633
  159SAPE   H5Y17797   0.151   0.627   7.278 -0.0511 -0.4354 -0.0284
  159SAPE   C3617798   0.175   0.772   7.438  0.8374 -0.3393 -0.0327
  159SAPE   H6X17799   0.071   0.809   7.436  0.3086 -1.3874  2.9295
  159SAPE   H6Y17800   0.229   0.866   7.462 -0.9676  0.2410  1.9873
  159SAPE   C3717801   0.187   0.679   7.560 -0.1605  0.5341 -0.9128
  159SAPE   H7X17802   0.285   0.627   7.558  0.1979  1.0366  1.3106
  159SAPE   H7Y17803   0.116   0.594   7.550  1.2830 -0.5383 -2.5119
  159SAPE   C3817804   0.180   0.756   7.689 -0.5769  0.0817 -0.5209
  159SAPE   H8X17805   0.085   0.813   7.683  0.3464  1.7195 -0.0291
  159SAPE   H8Y17806   0.264   0.826   7.705  0.7732 -1.1980 -1.7389
  159SAPE   C3917807   0.167   0.666   7.821 -0.8454  0.2750  0.8575
  159SAPE   H9X17808   0.267   0.623   7.847 -0.8420 -0.5091 -0.3448
  159SAPE   H9Y17809   0.103   0.576   7.811 -0.2318 -0.3702  2.4570
  159SAPE  C31017810   0.128   0.750   7.941 -0.4457 -0.1242  0.3290
  159SAPE  H10X17811   0.030   0.802   7.928 -0.2994  1.4866  4.2036
  159SAPE  H10Y17812   0.211   0.822   7.955 -1.8566  1.4557  1.0233
  159SAPE  C31117813   0.111   0.670   8.074 -0.2393 -0.2986 -0.5355
  159SAPE  H11X17814   0.203   0.657   8.135  1.0077  2.1190 -1.7201
  159SAPE  H11Y17815   0.072   0.570   8.046 -1.3615  0.0883 -0.4041
  159SAPE  C31217816  -0.001   0.750   8.159 -0.6734  0.0122 -0.7522
  159SAPE  H12X17817  -0.088   0.750   8.090  0.7870 -2.4445 -2.8022
  159SAPE  H12Y17818   0.041   0.852   8.166 -1.4873  0.3314 -0.3851
  159SAPE  C31317819  -0.043   0.692   8.295 -0.3888 -0.0192  0.1005
  159SAPE  H13X17820  -0.084   0.593   8.266 -0.4817  0.0006  0.1629
  159SAPE  H13Y17821  -0.128   0.748   8.339 -0.3686 -0.4737  0.7341
  159SAPE  C31417822   0.073   0.672   8.389 -0.1398  0.4195 -0.1115
  159SAPE  H14X17823   0.151   0.609   8.341  0.3473  0.4902  0.5852
  159SAPE  H14Y17824   0.031   0.607   8.469  0.4522 -1.2813 -1.1290
  159SAPE  C31517825   0.123   0.803   8.439  0.0382  0.2735 -0.5221
  159SAPE  H15X17826   0.158   0.861   8.351  2.3701 -1.7658 -1.0584
  159SAPE  H15Y17827   0.217   0.794   8.499 -1.0910 -0.0670  1.2832
  159SAPE  C31617828   0.023   0.872   8.527 -0.0362 -0.5343 -0.0292
  159SAPE  H16X17829   0.006   0.809   8.617 -1.3038 -0.4890 -0.2291
  159SAPE  H16Y17830  -0.076   0.893   8.482  1.3924  2.3610 -2.1715
  159SAPE  C31717831   0.073   1.006   8.568 -0.5209  0.0596 -0.2894
  159SAPE  H17X17832   0.097   1.070   8.481 -1.0814 -0.0392 -0.5206
  159SAPE  H17Y17833   0.166   0.998   8.628 -0.8867  0.6207  0.3743
  159SAPE  C31817834  -0.028   1.071   8.658  0.0919 -0.0992  0.3407
  159SAPE  H18X17835   0.024   1.149   8.718 -0.3580 -0.5013  1.2729
  159SAPE  H18Y17836  -0.079   1.001   8.727 -0.1871 -0.7549 -0.5068
  159SAPE  H18Z17837  -0.095   1.125   8.587  0.8513 -1.0449 -1.1434
  160SAPE     N17838   3.029   0.646   6.456  0.6977  0.3836  0.0664
  160SAPE   HN117839   2.995   0.697   6.372 -0.7672 -2.5490 -1.2903
  160SAPE   HN217840   3.107   0.694   6.505  2.8134 -1.6708 -1.0721
  160SAPE   HN317841   3.056   0.550   6.427 -1.5788  0.1033 -1.3801
  160SAPE   C1217842   2.918   0.654   6.555 -0.0283  0.4994  0.1402
  160SAPE  H12A17843   2.933   0.756   6.598 -0.0264  0.6568 -0.2283
  160SAPE  H12B17844   2.933   0.578   6.635 -0.9981  1.0377  0.8646
  160SAPE   C1117845   2.782   0.627   6.490 -0.0308 -0.7084 -0.0675
  160SAPE  H11A17846   2.700   0.638   6.564 -0.3572  0.5584 -0.6035
  160SAPE  H11B17847   2.780   0.520   6.458 -1.2470 -0.6197 -0.3366
  160SAPE     P17848   2.724   0.866   6.383 -0.7570 -0.3649  0.2495
  160SAPE   O1317849   2.846   0.925   6.438 -0.4916 -0.0510  0.1979
  160SAPE   O1417850   2.676   0.911   6.247  0.2034  0.0077  0.4562
  160SAPE   O1217851   2.751   0.706   6.376  0.0424 -0.1203  0.5079
  160SAPE   O1117852   2.615   0.877   6.491 -0.2446  0.1977 -0.1716
  160SAPE    C117853   2.473   0.847   6.466 -0.4260 -0.2617  0.6025
  160SAPE    HA17854   2.458   0.767   6.390 -0.8985  1.3292 -1.0341
  160SAPE    HB17855   2.430   0.809   6.561 -2.3172 -1.2316 -0.5779
  160SAPE    C217856   2.400   0.979   6.430 -0.3158 -0.0267  0.0860
  160SAPE    HS17857   2.456   1.029   6.347 -0.4595 -0.5336 -0.3150
  160SAPE   O2117858   2.390   1.071   6.541  0.8310  0.8570  0.3374
  160SAPE   C2117859   2.493   1.149   6.565 -0.5220 -0.3169  0.7587
  160SAPE   O2217860   2.590   1.161   6.486  0.4000 -0.0994  0.0452
  160SAPE   C2217861   2.475   1.190   6.712  0.1426  0.2369  0.7229
  160SAPE   H2R17862   2.374   1.236   6.721  0.8442  2.3114 -0.9718
  160SAPE   H2S17863   2.472   1.101   6.778 -0.0576  1.0557  1.8512
  160SAPE    C317864   2.252   0.967   6.379 -0.0902  0.1490  0.2616
  160SAPE    HX17865   2.264   0.909   6.285  0.3001 -0.4041  0.6516
  160SAPE    HY17866   2.212   1.063   6.340  2.2889  0.6806 -1.0290
  160SAPE   O3117867   2.164   0.904   6.473  0.0079  0.4636 -0.0070
  160SAPE   C3117868   2.058   0.967   6.520  0.2166 -0.0695 -0.2801
  160SAPE   O3217869   2.019   1.076   6.484  0.2216 -0.3730  0.3862
  160SAPE   C3217870   1.990   0.870   6.620  0.3258  0.5294 -0.5319
  160SAPE   H2X17871   2.053   0.779   6.621  0.2605  0.4675  1.4058
  160SAPE   H2Y17872   1.897   0.851   6.562  0.3597  1.5025 -0.9242
  160SAPE   C2317873   2.573   1.296   6.762  1.0873 -0.1009 -0.0941
  160SAPE   H3R17874   2.551   1.391   6.707 -1.8450 -1.8643 -2.2624
  160SAPE   H3S17875   2.674   1.261   6.732  0.7800 -0.4526 -0.7358
  160SAPE   C2417876   2.557   1.320   6.912 -0.0040  0.0472  0.7334
  160SAPE   H4R17877   2.454   1.355   6.932 -0.3906 -1.0764  0.7734
  160SAPE   H4S17878   2.636   1.391   6.945  1.1823 -0.9984  0.2398
  160SAPE   C2517879   2.582   1.198   6.991 -0.0768 -0.2803  0.2398
  160SAPE   H5R17880   2.676   1.146   6.968 -1.0543 -1.1129 -2.2084
  160SAPE   C2617881   2.496   1.148   7.086 -0.6674 -0.0873  0.0660
  160SAPE   H6R17882   2.536   1.053   7.123  1.9030  0.5389 -0.8809
  160SAPE   C2717883   2.360   1.202   7.131 -0.8247 -0.0431 -0.0100
  160SAPE   H7R17884   2.371   1.312   7.143  2.5879 -0.2638 -0.1910
  160SAPE   H7S17885   2.341   1.171   7.236 -2.4561 -0.0237 -0.2677
  160SAPE   C2817886   2.239   1.167   7.051 -0.5307  0.1515 -0.7304
  160SAPE   H8R17887   2.260   1.133   6.948  2.3572  0.9463 -0.4828
  160SAPE   C2917888   2.113   1.169   7.096  0.0118  0.6897 -1.2302
  160SAPE   H9R17889   2.028   1.163   7.026 -0.3428 -1.0879 -0.6934
  160SAPE  C21017890   2.087   1.207   7.233 -0.5473 -0.1461 -0.5497
  160SAPE  H10R17891   2.171   1.265   7.278  0.7798 -2.0818 -0.3920
  160SAPE  H10S17892   2.074   1.116   7.296  0.9837 -0.3870 -0.5270
  160SAPE  C21117893   1.958   1.286   7.242  0.2065  0.0871 -0.4018
  160SAPE  H11R17894   1.866   1.229   7.220  0.4860 -0.3551 -0.4242
  160SAPE  C21217895   1.935   1.417   7.268  0.4099 -0.3788  0.2512
  160SAPE  H12R17896   1.834   1.457   7.282 -0.0928 -1.2226 -0.8400
  160SAPE  C21317897   2.047   1.519   7.294  0.0100  0.2591 -0.2316
  160SAPE  H13R17898   2.111   1.474   7.373 -1.4813  0.4403  1.1355
  160SAPE  H13S17899   2.023   1.613   7.348  3.2377  1.7835 -1.2059
  160SAPE  C21417900   2.130   1.557   7.175  0.4725 -0.1435 -0.8006
  160SAPE  H14R17901   2.130   1.493   7.086 -0.6333  0.3308 -1.1598
  160SAPE  C21517902   2.229   1.647   7.191  0.2289  0.8099  0.6866
  160SAPE  H15R17903   2.298   1.673   7.109 -0.6319  1.0316  0.0230
  160SAPE  C21617904   2.264   1.708   7.320 -0.7456  0.4597 -0.0319
  160SAPE  H16R17905   2.370   1.736   7.304  0.1266 -2.5778 -0.1013
  160SAPE  H16S17906   2.267   1.633   7.402 -1.4249 -2.2712 -2.3494
  160SAPE  C21717907   2.178   1.828   7.366  0.3060 -0.0612  0.4678
  160SAPE  H17R17908   2.072   1.793   7.361  0.3201  0.0163 -0.5454
  160SAPE  H17S17909   2.191   1.911   7.293 -0.0297 -0.7621 -0.4168
  160SAPE  C21817910   2.209   1.883   7.509 -0.2011  0.2307  0.5748
  160SAPE  H18R17911   2.131   1.955   7.542 -1.5635  0.0376 -1.9712
  160SAPE  H18S17912   2.306   1.938   7.515 -0.9426  1.5247  1.3580
  160SAPE  C21917913   2.205   1.775   7.620  0.1320 -0.0396 -0.1524
  160SAPE  H19R17914   2.285   1.700   7.602  2.3499  2.4166 -1.3522
  160SAPE  H19S17915   2.107   1.725   7.606  0.3019  0.2483 -2.8660
  160SAPE  C22017916   2.207   1.819   7.768  0.6769 -0.2650  0.1319
  160SAPE  H20R17917   2.310   1.842   7.803 -0.0984  2.2626  0.9690
  160SAPE  H20S17918   2.160   1.740   7.830  1.3579 -1.5844 -0.9700
  160SAPE  H20T17919   2.157   1.917   7.780  1.7163  0.3576 -0.4783
  160SAPE   C3317920   1.982   0.913   6.769 -0.0208  0.4515 -0.4551
  160SAPE   H3X17921   2.030   1.012   6.780 -2.6134  2.0006 -1.9809
  160SAPE   H3Y17922   2.032   0.832   6.826  0.0725  1.1129  0.4118
  160SAPE   C3417923   1.838   0.925   6.812  0.8328  0.5137 -0.2037
  160SAPE   H4X17924   1.780   0.832   6.796  2.2585 -0.5330  0.4839
  160SAPE   H4Y17925   1.800   1.013   6.757 -0.3238  0.6571  0.7753
  160SAPE   C3517926   1.815   0.938   6.964 -0.1683 -0.0239  0.2076
  160SAPE   H5X17927   1.875   1.022   7.005 -0.6502 -0.5474  2.0546
  160SAPE   H5Y17928   1.860   0.852   7.016  0.3632  0.2950  0.2764
  160SAPE   C3617929   1.670   0.955   7.012 -0.2708 -0.6758  1.0897
  160SAPE   H6X17930   1.601   0.885   6.959  1.4721  0.2336 -2.7310
  160SAPE   H6Y17931   1.629   1.048   6.968  0.7978 -1.6781 -2.3552
  160SAPE   C3717932   1.661   0.968   7.161 -0.6246  0.8354 -0.2401
  160SAPE   H7X17933   1.574   1.026   7.199 -0.2576  1.2511 -0.0288
  160SAPE   H7Y17934   1.747   1.028   7.196 -1.9883  1.3871  2.4414
  160SAPE   C3817935   1.665   0.829   7.231  0.7823 -0.6363  0.0656
  160SAPE   H8X17936   1.735   0.755   7.186 -2.1060 -2.4084 -1.8364
  160SAPE   H8Y17937   1.565   0.784   7.213 -0.1440  1.2765  0.1982
  160SAPE   C3917938   1.676   0.841   7.388 -0.2948  0.0664  0.1829
  160SAPE   H9X17939   1.599   0.907   7.432  0.3128 -0.3113  1.8593
  160SAPE   H9Y17940   1.777   0.876   7.419 -0.9480 -0.4848  3.1870
  160SAPE  C31017941   1.648   0.698   7.444  0.1727 -0.8067  0.0577
  160SAPE  H10X17942   1.743   0.643   7.425  1.2488  0.5263  1.2903
  160SAPE  H10Y17943   1.565   0.654   7.386 -1.5946  0.2757  1.6601
  160SAPE  C31117944   1.599   0.704   7.588  0.1296 -0.8691  0.2688
  160SAPE  H11X17945   1.594   0.595   7.610  2.6631 -0.7005  2.1402
  160SAPE  H11Y17946   1.496   0.746   7.589  1.1759  1.9146  0.5888
  160SAPE  C31217947   1.693   0.760   7.694  0.1899 -0.2038 -0.3395
  160SAPE  H12X17948   1.682   0.870   7.694 -0.5418 -0.2717 -0.0787
  160SAPE  H12Y17949   1.799   0.735   7.669  0.5467  2.6526 -2.1344
  160SAPE  C31317950   1.659   0.715   7.837  0.0925 -0.7149  0.1628
  160SAPE  H13X17951   1.609   0.617   7.821 -0.0052 -0.4294 -1.5530
  160SAPE  H13Y17952   1.595   0.784   7.894  0.2568  0.1676 -0.6882
  160SAPE  C31417953   1.786   0.689   7.931  0.1227  0.0345  0.0930
  160SAPE  H14X17954   1.868   0.764   7.922  0.6058 -0.5002 -0.0111
  160SAPE  H14Y17955   1.837   0.601   7.886 -0.4446 -0.6513  0.7647
  160SAPE  C31517956   1.743   0.660   8.080 -0.5755  0.4871 -0.1201
  160SAPE  H15X17957   1.843   0.632   8.117 -0.0119 -2.2883 -3.2943
  160SAPE  H15Y17958   1.679   0.571   8.099  0.6558  0.0839  2.4942
  160SAPE  C31617959   1.699   0.787   8.158  0.1913  0.3605 -0.1830
  160SAPE  H16X17960   1.588   0.796   8.153 -0.1408 -1.3477  2.3269
  160SAPE  H16Y17961   1.750   0.872   8.108  1.5708 -0.6754 -0.6145
  160SAPE  C31717962   1.726   0.793   8.309 -0.2994 -0.7943 -0.2054
  160SAPE  H17X17963   1.836   0.776   8.313  0.2215  2.1153 -0.4071
  160SAPE  H17Y17964   1.671   0.714   8.365 -2.1059 -0.5065 -1.4530
  160SAPE  C31817965   1.697   0.927   8.372 -0.3512  0.0459 -0.1042
  160SAPE  H18X17966   1.745   1.010   8.316 -0.3781  1.1650  1.4340
  160SAPE  H18Y17967   1.735   0.930   8.476  0.1442 -1.5545 -0.2250
  160SAPE  H18Z17968   1.587   0.943   8.376 -0.7932 -1.6006 -3.0307
  161SOPE     N17969   0.650   1.782  11.026 -0.0516  0.8174  0.1170
  161SOPE   HN117970   0.634   1.794  11.128  0.3892 -0.1682  0.3157
  161SOPE   HN217971   0.567   1.747  10.973 -0.3182  4.6398 -2.4224
  161SOPE   HN317972   0.726   1.711  11.023  0.8682  1.8032 -1.3539
  161SOPE   C1217973   0.707   1.912  10.970  0.0837  0.2794  0.1183
  161SOPE  H12A17974   0.795   1.951  11.025 -1.3047  2.3740  0.9750
  161SOPE  H12B17975   0.629   1.990  10.986  0.5509  0.3511  2.3804
  161SOPE   C1117976   0.744   1.910  10.819 -0.1114  0.0247  0.1458
  161SOPE  H11A17977   0.807   2.002  10.815  0.3205 -0.2282  0.9316
  161SOPE  H11B17978   0.653   1.935  10.760  0.0285 -1.4984 -0.7676
  161SOPE     P17979   0.965   1.767  10.779  0.2684 -0.2088  0.0649
  161SOPE   O1317980   0.985   1.626  10.734  0.2105  1.0080 -0.0064
  161SOPE   O1417981   1.011   1.803  10.919  0.2744  0.3013 -0.1459
  161SOPE   O1217982   0.806   1.790  10.773  0.2155  0.5338  0.2544
  161SOPE   O1117983   1.015   1.865  10.667 -0.2444  0.1321  0.1196
  161SOPE    C117984   0.941   1.867  10.543  0.4321  1.1187 -0.2136
  161SOPE    HA17985   0.854   1.937  10.550 -1.3453 -0.9386 -0.4819
  161SOPE    HB17986   0.897   1.768  10.521  0.9628  0.9882 -0.7118
  161SOPE    C217987   1.033   1.897  10.427 -0.1555  0.2013  0.2034
  161SOPE    HS17988   0.984   1.915  10.329 -2.2507  0.2687  1.1911
  161SOPE   O2117989   1.133   1.787  10.415  0.5757  0.3302 -0.1865
  161SOPE   C2117990   1.095   1.680  10.347  0.2554  0.6053 -0.0965
  161SOPE   O2217991   0.978   1.663  10.312 -0.0596 -0.2105  0.2368
  161SOPE   C2217992   1.227   1.597  10.313 -0.8265  0.1675 -0.3418
  161SOPE   H2R17993   1.205   1.494  10.348  0.6082  0.3951  1.3990
  161SOPE   H2S17994   1.317   1.639  10.362 -0.3099 -0.9707 -0.2761
  161SOPE    C317995   1.094   2.039  10.460  0.2258  0.2675 -0.2799
  161SOPE    HX17996   1.142   2.034  10.560 -1.8115  1.0155  0.7838
  161SOPE    HY17997   1.014   2.112  10.486  1.0080  0.9933  0.1457
  161SOPE   O3117998   1.173   2.085  10.347 -0.4146  0.0319 -0.7994
  161SOPE   C3117999   1.295   2.080  10.367 -0.2758  0.2887  0.5150
  161SOPE   O3218000   1.348   2.044  10.472 -0.5940  0.7642 -0.8320
  161SOPE   C3218001   1.374   2.118  10.238 -0.4587 -0.1434 -0.1074
  161SOPE   H2X18002   1.456   2.042  10.239 -1.0248 -0.7661  1.4051
  161SOPE   H2Y18003   1.412   2.221  10.257  1.7149 -0.8075 -0.5240
  161SOPE   C2318004   1.256   1.608  10.163  0.1862  0.0633  0.5940
  161SOPE   H3R18005   1.362   1.578  10.148  0.4279  0.3839  1.6327
  161SOPE   H3S18006   1.241   1.707  10.115 -2.0333 -0.2913  0.4388
  161SOPE   C2418007   1.175   1.498  10.076  0.0757  0.8043 -0.3407
  161SOPE   H4R18008   1.187   1.398  10.124 -2.4900  1.4590  1.8923
  161SOPE   H4S18009   1.067   1.523  10.070 -0.6407 -2.2214 -2.3376
  161SOPE   C2518010   1.230   1.497   9.934  0.2805  0.2496  0.1580
  161SOPE   H5R18011   1.232   1.596   9.885  0.9907 -0.7984 -2.0780
  161SOPE   H5S18012   1.337   1.468   9.947 -0.7755 -3.0890  2.8273
  161SOPE   C2618013   1.158   1.397   9.835  0.3924 -0.6298  0.2241
  161SOPE   H6R18014   1.151   1.298   9.884  1.1921 -0.4403  0.7423
  161SOPE   H6S18015   1.052   1.429   9.826  0.3001 -1.2024 -1.0423
  161SOPE   C2718016   1.228   1.378   9.695  0.6789  0.4072 -0.5842
  161SOPE   H7R18017   1.262   1.474   9.652 -1.0304  1.6782  0.7317
  161SOPE   H7S18018   1.314   1.309   9.710 -1.0771 -2.3422 -2.2298
  161SOPE   C2818019   1.139   1.316   9.586  0.6734  0.0100  0.2705
  161SOPE   H8R18020   1.108   1.217   9.625  0.7570  0.5271  1.7194
  161SOPE   H8S18021   1.045   1.373   9.573  0.2993 -1.1202 -2.7095
  161SOPE   C2918022   1.212   1.310   9.458  0.3043 -0.9695  0.6397
  161SOPE   H9118023   1.309   1.261   9.475  0.8063  0.5999  2.6934
  161SOPE  C21018024   1.194   1.369   9.337  0.2485 -0.3049  0.4137
  161SOPE  H10118025   1.258   1.347   9.250 -0.4257  1.3167 -0.5358
  161SOPE  C21118026   1.080   1.460   9.301  0.2678  0.4929 -0.2072
  161SOPE  H11R18027   1.108   1.559   9.260  1.9336  0.0263 -0.2897
  161SOPE  H11S18028   1.012   1.478   9.388 -0.9770 -0.8028 -0.8773
  161SOPE  C21218029   0.975   1.406   9.193  0.5422 -0.1551  0.5019
  161SOPE  H12R18030   0.937   1.493   9.136  1.4812  0.8277  1.3274
  161SOPE  H12S18031   0.889   1.354   9.240  0.7705 -0.5364  0.5034
  161SOPE  C21318032   1.039   1.297   9.093  0.0642  0.1291 -0.2412
  161SOPE  H13R18033   1.053   1.215   9.167 -0.8720 -0.8116 -1.0806
  161SOPE  H13S18034   1.137   1.337   9.059 -0.4367 -0.6209 -2.7590
  161SOPE  C21418035   0.949   1.252   8.978 -1.1309 -0.9666 -0.2223
  161SOPE  H14R18036   0.846   1.241   9.019 -0.3139 -2.2249  1.5973
  161SOPE  H14S18037   0.976   1.156   8.929 -2.1460 -0.5813 -1.6109
  161SOPE  C21518038   0.943   1.367   8.867 -0.3421 -0.4620 -0.0641
  161SOPE  H15R18039   1.046   1.387   8.831 -0.4426 -0.9880 -0.6605
  161SOPE  H15S18040   0.900   1.464   8.900  0.4992  0.1008 -0.5922
  161SOPE  C21618041   0.860   1.334   8.749 -0.2168 -0.3429 -0.0819
  161SOPE  H16R18042   0.758   1.298   8.775  0.1051 -2.1891 -1.1349
  161SOPE  H16S18043   0.902   1.251   8.687 -0.3445  0.5008 -1.3325
  161SOPE  C21718044   0.847   1.447   8.654  0.4212 -0.2370  0.4621
  161SOPE  H17R18045   0.817   1.406   8.555 -1.2018  1.2099  0.3025
  161SOPE  H17S18046   0.946   1.496   8.648  0.1226  0.2649 -0.6688
  161SOPE  C21818047   0.739   1.549   8.701 -0.1867  0.6656 -0.3377
  161SOPE  H18R18048   0.640   1.498   8.700 -0.0434  0.3750  0.0462
  161SOPE  H18S18049   0.724   1.643   8.645 -0.0957  1.7040  1.3091
  161SOPE  H18T18050   0.758   1.582   8.805  0.0990  0.2362 -0.2500
  161SOPE   C3318051   1.298   2.115  10.103 -0.0844  0.3360 -0.3570
  161SOPE   H3X18052   1.208   2.181  10.103 -0.2238  0.1957  1.3620
  161SOPE   H3Y18053   1.252   2.014  10.108 -0.4182  0.3963 -1.7337
  161SOPE   C3418054   1.387   2.122   9.976 -0.1803  0.6071 -0.6908
  161SOPE   H4X18055   1.461   2.040   9.990 -1.0010 -0.1275 -0.5540
  161SOPE   H4Y18056   1.449   2.214   9.978  0.8864 -0.0677  1.7026
  161SOPE   C3518057   1.303   2.095   9.852 -0.3692 -0.3608 -0.5471
  161SOPE   H5X18058   1.246   2.187   9.827 -0.8393 -0.9367 -1.6936
  161SOPE   H5Y18059   1.223   2.018   9.856  0.1229 -1.1137 -3.3328
  161SOPE   C3618060   1.397   2.079   9.729 -0.4222  0.7734  0.8776
  161SOPE   H6X18061   1.475   2.001   9.745 -0.2715  0.7351 -0.0156
  161SOPE   H6Y18062   1.455   2.173   9.725  1.6730 -0.4831 -0.4471
  161SOPE   C3718063   1.330   2.050   9.591  0.1505  0.0742  1.0819
  161SOPE   H7X18064   1.242   2.118   9.589 -0.2699 -0.3390 -2.8407
  161SOPE   H7Y18065   1.291   1.948   9.571 -3.6046  1.8475 -2.1736
  161SOPE   C3818066   1.420   2.094   9.478 -0.4010 -0.3512  0.3601
  161SOPE   H8X18067   1.511   2.030   9.475 -0.0831  0.1131 -1.1421
  161SOPE   H8Y18068   1.455   2.197   9.500  0.0327 -1.0794  3.5518
  161SOPE   C3918069   1.340   2.104   9.352 -0.4218  0.6379 -0.1805
  161SOPE   H9X18070   1.268   2.189   9.346 -1.0007  0.3246  1.8152
  161SOPE   H9Y18071   1.285   2.009   9.335  2.1151 -0.8396 -0.6157
  161SOPE  C31018072   1.415   2.114   9.215 -0.3717  1.0027 -0.0617
  161SOPE  H10X18073   1.479   2.026   9.190  0.0475  1.4220 -0.4814
  161SOPE  H10Y18074   1.475   2.206   9.204 -0.3858  1.1584  1.0403
  161SOPE  C31118075   1.314   2.124   9.108  0.5153  0.7819 -0.0595
  161SOPE  H11X18076   1.368   2.143   9.012  2.0065  1.5706  0.9050
  161SOPE  H11Y18077   1.239   2.206   9.120 -1.6722 -1.5114  4.0377
  161SOPE  C31218078   1.234   2.002   9.073  0.0660 -0.3912  0.4011
  161SOPE  H12X18079   1.160   2.022   8.993 -0.1004 -2.0728  0.1025
  161SOPE  H12Y18080   1.176   1.970   9.162  2.3572 -0.3366  1.9944
  161SOPE  C31318081   1.312   1.886   9.025 -0.4547  0.4232 -0.5014
  161SOPE  H13X18082   1.369   1.846   9.111 -1.8740 -1.1589 -0.2461
  161SOPE  H13Y18083   1.378   1.901   8.937 -1.3304  2.2102 -0.9067
  161SOPE  C31418084   1.217   1.767   8.983  0.7412  0.3229 -0.0944
  161SOPE  H14X18085   1.138   1.760   9.060 -0.0401 -0.9021 -0.9704
  161SOPE  H14Y18086   1.279   1.675   8.987 -0.9520 -0.8075  1.2955
  161SOPE  C31518087   1.160   1.780   8.839 -0.9541 -0.0858  0.6257
  161SOPE  H15X18088   1.128   1.886   8.824 -1.2873 -0.1391  0.9214
  161SOPE  H15Y18089   1.066   1.721   8.841 -2.4891  2.2068  0.5322
  161SOPE  C31618090   1.260   1.736   8.734  0.4615  0.1785  0.5505
  161SOPE  H16X18091   1.279   1.630   8.759  0.9763  0.1233 -0.0597
  161SOPE  H16Y18092   1.351   1.800   8.733  0.9910 -0.5466 -0.7480
  161SOPE  C31718093   1.203   1.753   8.591 -0.5764 -0.2485  1.1470
  161SOPE  H17X18094   1.127   1.673   8.574 -1.4253  0.1939  2.6617
  161SOPE  H17Y18095   1.288   1.739   8.521 -0.0812  0.9242  1.4997
  161SOPE  C31818096   1.129   1.887   8.558 -0.2954 -0.5487  0.0379
  161SOPE  H18X18097   1.157   1.964   8.633 -1.3159 -0.3695  0.2574
  161SOPE  H18Y18098   1.018   1.880   8.563 -0.4441  1.7355  3.4651
  161SOPE  H18Z18099   1.161   1.913   8.455  2.5607  2.2188  1.4541
  162SOPE     N18100   5.753   1.654  10.865 -0.3195  0.3466  0.2800
  162SOPE   HN118101   5.820   1.730  10.888 -1.9442  2.0864 -0.4380
  162SOPE   HN218102   5.666   1.683  10.815 -0.4368 -0.0500  0.2490
  162SOPE   HN318103   5.716   1.597  10.943 -0.0763 -2.4585 -1.4919
  162SOPE   C1218104   5.820   1.549  10.768 -0.3519 -0.2563 -1.1594
  162SOPE  H12A18105   5.894   1.607  10.709 -0.6852  1.8039  0.3261
  162SOPE  H12B18106   5.742   1.487  10.719 -1.6985  0.5847 -0.1597
  162SOPE   C1118107   5.913   1.452  10.846  0.4889  0.1782 -0.1209
  162SOPE  H11A18108   5.946   1.370  10.779  0.1987  0.0885 -0.1555
  162SOPE  H11B18109   5.854   1.415  10.933  1.2622  0.4826  0.5559
  162SOPE     P18110   6.125   1.459  10.988  0.4877 -0.6074  0.0034
  162SOPE   O1318111   6.053   1.378  11.086 -0.8936 -0.1789  0.1211
  162SOPE   O1418112   6.209   1.566  11.040  0.7359 -0.3898  0.2363
  162SOPE   O1218113   6.023   1.532  10.896 -0.1859 -0.2807  0.1219
  162SOPE   O1118114   6.204   1.361  10.891  0.2335 -0.5122 -0.4586
  162SOPE    C118115   6.285   1.422  10.792 -0.1903  0.0532  0.2147
  162SOPE    HA18116   6.367   1.479  10.838 -0.7953  2.3219 -1.3497
  162SOPE    HB18117   6.227   1.486  10.721  1.2942  1.4470  0.2217
  162SOPE    C218118   6.359   1.311  10.706  0.8886  0.0808  0.2145
  162SOPE    HS18119   6.438   1.268  10.771  0.1185  0.6168  1.5400
  162SOPE   O2118120   6.409   1.375  10.584 -0.1383  0.5162 -0.4494
  162SOPE   C2118121   6.511   1.316  10.531 -0.0311  0.0711 -0.3130
  162SOPE   O2218122   6.582   1.230  10.586  0.3320  0.2540 -0.0587
  162SOPE   C2218123   6.538   1.385  10.398 -0.4280  0.0355  0.2137
  162SOPE   H2R18124   6.642   1.423  10.408 -0.6639  0.7218  0.1602
  162SOPE   H2S18125   6.466   1.469  10.380  2.0962  2.2424 -0.2115
  162SOPE    C318126   6.256   1.200  10.674 -0.2121 -0.4666  0.6452
  162SOPE    HX18127   6.167   1.241  10.622  1.0950 -0.9777 -2.2196
  162SOPE    HY18128   6.216   1.157  10.768 -2.6895 -0.4593 -0.3323
  162SOPE   O3118129   6.316   1.097  10.595 -0.2302 -0.3063  0.0073
  162SOPE   C3118130   6.376   0.997  10.664  0.2456  0.5031  0.6106
  162SOPE   O3218131   6.376   0.985  10.788  0.8683 -0.3908 -0.0723
  162SOPE   C3218132   6.440   0.900  10.562 -0.9223 -0.0802  0.6497
  162SOPE   H2X18133   6.536   0.865  10.607 -1.8218 -2.4278  0.8665
  162SOPE   H2Y18134   6.471   0.960  10.474  2.3699 -0.3701  1.4670
  162SOPE   C2318135   6.553   1.289  10.284  0.1380  0.4280  0.7314
  162SOPE   H3R18136   6.617   1.204  10.316 -0.6639 -0.5775 -0.2714
  162SOPE   H3S18137   6.593   1.348  10.198 -2.6597 -0.1457 -1.0927
  162SOPE   C2418138   6.419   1.226  10.236  0.4934  0.4085  1.0766
  162SOPE   H4R18139   6.369   1.158  10.308  1.6689 -2.0625 -0.2935
  162SOPE   H4S18140   6.350   1.310  10.214  0.6979  0.4239  0.4685
  162SOPE   C2518141   6.453   1.136  10.107  0.0487  0.1860  0.3505
  162SOPE   H5R18142   6.552   1.087  10.103 -0.6970 -1.3352 -0.1589
  162SOPE   H5S18143   6.376   1.057  10.119 -0.7214  0.4362 -2.3890
  162SOPE   C2618144   6.418   1.182   9.967 -0.3715 -0.3937 -0.3533
  162SOPE   H6R18145   6.312   1.217   9.962 -0.3188 -0.3989 -1.9095
  162SOPE   H6S18146   6.480   1.271   9.947 -2.0160  1.1458  1.0275
  162SOPE   C2718147   6.449   1.068   9.871 -0.3104 -0.5026  0.1754
  162SOPE   H7R18148   6.559   1.051   9.875 -0.4417 -1.2358  3.4300
  162SOPE   H7S18149   6.416   0.971   9.913 -0.2206 -0.5780  0.0732
  162SOPE   C2818150   6.387   1.089   9.724  0.1040  0.3493 -0.0915
  162SOPE   H8R18151   6.278   1.103   9.741 -0.0243  0.5163 -1.0402
  162SOPE   H8S18152   6.434   1.176   9.674  0.8086 -1.1145 -2.0938
  162SOPE   C2918153   6.400   0.966   9.641 -0.2448 -0.3143 -0.3170
  162SOPE   H9118154   6.470   0.890   9.680 -1.3348 -0.1513  2.1301
  162SOPE  C21018155   6.344   0.949   9.519  0.2256 -0.0918  0.0732
  162SOPE  H10118156   6.373   0.861   9.458  1.3889  0.7002 -0.5616
  162SOPE  C21118157   6.254   1.051   9.449 -0.7210  0.1562  0.0618
  162SOPE  H11R18158   6.220   1.133   9.516  0.8640  0.5570  0.4310
  162SOPE  H11S18159   6.165   0.990   9.424 -0.1426 -0.6766 -0.0089
  162SOPE  C21218160   6.286   1.105   9.305  0.3098  0.1567  0.4540
  162SOPE  H12R18161   6.392   1.131   9.324 -0.0410  0.2951  2.4003
  162SOPE  H12S18162   6.234   1.200   9.281  1.1460  0.1661 -1.5547
  162SOPE  C21318163   6.284   1.006   9.190 -0.3271 -0.0249  0.0360
  162SOPE  H13R18164   6.180   0.975   9.166 -0.9853  2.5513 -0.8196
  162SOPE  H13S18165   6.345   0.919   9.221 -1.8982 -1.6407 -1.2373
  162SOPE  C21418166   6.347   1.068   9.064  0.1729  0.1533 -0.4841
  162SOPE  H14R18167   6.455   1.085   9.084 -0.1243  2.0891 -0.4196
  162SOPE  H14S18168   6.302   1.167   9.043 -0.2536  0.7743  2.8286
  162SOPE  C21518169   6.335   0.973   8.944 -0.6615  0.6723 -0.2160
  162SOPE  H15R18170   6.229   0.951   8.920  0.1973 -0.5942 -3.2877
  162SOPE  H15S18171   6.380   0.875   8.970 -4.1505 -1.5283 -1.7131
  162SOPE  C21618172   6.403   1.017   8.818 -0.0949  0.0624  0.5733
  162SOPE  H16R18173   6.502   1.063   8.841  0.4213 -0.7999  0.1263
  162SOPE  H16S18174   6.351   1.105   8.774  0.0753  0.3314  0.9001
  162SOPE  C21718175   6.410   0.906   8.707  0.0087 -0.3936  0.0525
  162SOPE  H17R18176   6.451   0.952   8.614  0.3865  0.4121  0.6120
  162SOPE  H17S18177   6.312   0.857   8.686  0.1928 -1.3307  1.2835
  162SOPE  C21818178   6.514   0.794   8.734  0.7568 -0.8135  0.0391
  162SOPE  H18R18179   6.487   0.735   8.825  0.6638 -1.1531 -0.2047
  162SOPE  H18S18180   6.610   0.846   8.751  0.6672 -0.3176 -0.9456
  162SOPE  H18T18181   6.520   0.730   8.644  1.5494 -0.4769 -0.1574
  162SOPE   C3318182   6.368   0.763  10.533  0.6457 -0.7105 -0.4464
  162SOPE   H3X18183   6.365   0.693  10.620 -1.4808  0.6687  0.6801
  162SOPE   H3Y18184   6.430   0.718  10.453  1.3680 -0.9736  0.2521
  162SOPE   C3418185   6.224   0.785  10.489 -0.7967  0.4326 -0.0513
  162SOPE   H4X18186   6.176   0.834  10.577  1.1433 -1.6594  2.3132
  162SOPE   H4Y18187   6.179   0.685  10.473  0.1389  0.1479 -0.9123
  162SOPE   C3518188   6.202   0.872  10.359 -0.6935 -0.2694 -0.4429
  162SOPE   H5X18189   6.246   0.974  10.373 -2.2679  0.3698  0.0923
  162SOPE   H5Y18190   6.093   0.894  10.358 -0.3310  2.1889  1.6925
  162SOPE   C3618191   6.254   0.822  10.230 -0.2861 -1.1983 -0.6361
  162SOPE   H6X18192   6.362   0.843  10.243 -0.6080  0.2401 -0.1195
  162SOPE   H6Y18193   6.211   0.881  10.146  0.4665 -0.1160 -0.2852
  162SOPE   C3718194   6.239   0.676  10.202  1.1683 -0.0209  0.0781
  162SOPE   H7X18195   6.129   0.657  10.204  1.0004  0.8135 -0.6403
  162SOPE   H7Y18196   6.293   0.612  10.275  2.9375  0.2934 -0.8857
  162SOPE   C3818197   6.299   0.643  10.061 -0.0428 -0.2732 -0.6126
  162SOPE   H8X18198   6.409   0.656  10.065 -0.0494 -0.2771  2.9369
  162SOPE   H8Y18199   6.258   0.715   9.988  0.1857  1.7690  1.1823
  162SOPE   C3918200   6.281   0.497  10.014  0.7938 -0.5153 -0.0258
  162SOPE   H9X18201   6.187   0.495   9.954  0.6256  3.0893 -0.1017
  162SOPE   H9Y18202   6.258   0.431  10.101  0.6627 -0.0839  0.2688
  162SOPE  C31018203   6.410   0.454   9.938  0.8120 -0.6393  0.0623
  162SOPE  H10X18204   6.418   0.343   9.935  3.3050 -0.5107 -1.0099
  162SOPE  H10Y18205   6.494   0.477  10.007 -0.3409 -3.2041  2.5335
  162SOPE  C31118206   6.446   0.521   9.802 -0.9952 -0.3455 -0.1172
  162SOPE  H11X18207   6.553   0.542   9.785 -1.1088  2.0238  1.6418
  162SOPE  H11Y18208   6.397   0.620   9.797 -0.6622 -0.0996  1.1528
  162SOPE  C31218209   6.391   0.452   9.670 -0.0792 -0.3272  0.1209
  162SOPE  H12X18210   6.280   0.452   9.679 -0.1480 -1.6422 -0.3956
  162SOPE  H12Y18211   6.422   0.345   9.660  1.4969 -0.3565  3.8083
  162SOPE  C31318212   6.437   0.534   9.552  0.5952 -0.0837 -0.4371
  162SOPE  H13X18213   6.547   0.546   9.552  0.9222 -2.3893 -2.1496
  162SOPE  H13Y18214   6.392   0.635   9.564  1.9542  0.8254 -2.5273
  162SOPE  C31418215   6.378   0.460   9.423  0.1764 -0.5378 -0.4047
  162SOPE  H14X18216   6.272   0.431   9.434  0.0835  0.2130  1.0182
  162SOPE  H14Y18217   6.416   0.356   9.424  1.4275 -0.1042  0.6851
  162SOPE  C31518218   6.413   0.539   9.298  0.0016  0.5106 -0.0983
  162SOPE  H15X18219   6.520   0.569   9.293  0.8017 -2.0901  0.0681
  162SOPE  H15Y18220   6.344   0.626   9.301 -0.0968  0.5516 -1.9892
  162SOPE  C31618221   6.394   0.453   9.173 -0.1900  0.9579  0.5094
  162SOPE  H16X18222   6.288   0.420   9.180 -0.4024  1.5151  0.0737
  162SOPE  H16Y18223   6.458   0.363   9.172 -0.0386  1.0625  0.7052
  162SOPE  C31718224   6.435   0.526   9.049  0.1110  0.0993  0.4622
  162SOPE  H17X18225   6.543   0.549   9.064  0.5909 -1.2738 -0.6454
  162SOPE  H17Y18226   6.377   0.618   9.026 -0.1076  0.2207  1.4848
  162SOPE  C31818227   6.418   0.427   8.934 -0.1068  0.2856  0.1628
  162SOPE  H18X18228   6.443   0.322   8.961 -0.0377  0.7719  2.1119
  162SOPE  H18Y18229   6.479   0.452   8.845 -1.3935  1.0447 -0.5456
  162SOPE  H18Z18230   6.312   0.435   8.901  0.1278  2.3912 -0.2484
  163SOPE     N18231   2.121   5.433  10.814  0.1577  0.1375 -0.2786
  163SOPE   HN118232   2.205   5.376  10.791 -1.1433 -3.2263  2.4000
  163SOPE   HN218233   2.156   5.510  10.875 -1.0452  0.1936  0.3707
  163SOPE   HN318234   2.057   5.373  10.870  0.5472 -0.9957 -0.9989
  163SOPE   C1218235   2.049   5.487  10.697 -0.0825 -0.0076  0.3549
  163SOPE  H12A18236   1.971   5.558  10.730 -2.3356 -1.6077 -1.2466
  163SOPE  H12B18237   1.993   5.411  10.637 -1.8010  1.9374 -0.6115
  163SOPE   C1118238   2.134   5.558  10.590 -0.4978  0.2745 -0.3023
  163SOPE  H11A18239   2.067   5.594  10.509 -0.1084 -1.4948 -1.4593
  163SOPE  H11B18240   2.197   5.479  10.546 -1.4709  0.0916 -1.4141
  163SOPE     P18241   2.153   5.809  10.657  0.2439 -0.1111 -0.4404
  163SOPE   O1318242   2.255   5.904  10.705 -0.4453  0.2814 -0.1818
  163SOPE   O1418243   2.020   5.807  10.728  0.4220 -0.5370  0.3084
  163SOPE   O1218244   2.210   5.663  10.643  0.5078  0.2543 -0.3142
  163SOPE   O1118245   2.115   5.843  10.508  0.2332 -0.5594 -0.2572
  163SOPE    C118246   2.218   5.845  10.406  0.3900  1.0216 -0.4512
  163SOPE    HA18247   2.208   5.744  10.362 -0.7803  0.6293  0.6523
  163SOPE    HB18248   2.317   5.864  10.454 -0.2770  2.0993  0.5692
  163SOPE    C218249   2.192   5.950  10.293 -0.0985  0.4833  0.0714
  163SOPE    HS18250   2.216   6.052  10.331  0.9198  0.3552 -0.2138
  163SOPE   O2118251   2.069   5.926  10.229 -1.0551 -0.4168 -0.1481
  163SOPE   C2118252   2.013   6.037  10.185 -0.4693 -0.1926 -0.0660
  163SOPE   O2218253   2.050   6.154  10.201 -0.0285 -0.0116 -0.6503
  163SOPE   C2218254   1.885   6.010  10.101  0.1458  0.5762 -0.3631
  163SOPE   H2R18255   1.804   6.055  10.162 -1.4088 -0.9364 -1.2303
  163SOPE   H2S18256   1.873   5.900  10.099  0.0015  0.5976 -1.1937
  163SOPE    C318257   2.297   5.918  10.183  0.0782  0.0603 -0.0898
  163SOPE    HX18258   2.293   5.810  10.159 -1.9524  0.4450 -1.8902
  163SOPE    HY18259   2.398   5.936  10.225 -0.3584 -0.6865  1.3195
  163SOPE   O3118260   2.287   5.993  10.055  0.0565 -0.3897  0.1331
  163SOPE   C3118261   2.352   6.109  10.050  0.7154  0.6618  0.5868
  163SOPE   O3218262   2.421   6.155  10.138  0.0270 -0.0174  0.1391
  163SOPE   C3218263   2.327   6.165   9.905  0.2227  0.7730 -0.1581
  163SOPE   H2X18264   2.227   6.211   9.914  0.2537  0.9387 -0.6464
  163SOPE   H2Y18265   2.338   6.076   9.839 -0.8836  1.2210 -0.9618
  163SOPE   C2318266   1.895   6.070   9.957  0.6645 -0.1386 -0.3046
  163SOPE   H3R18267   1.919   6.178   9.960 -0.5278  0.1096  1.1943
  163SOPE   H3S18268   1.797   6.073   9.904 -0.1757  1.7226  1.2459
  163SOPE   C2418269   1.999   6.013   9.869  1.0407 -0.3102 -0.0329
  163SOPE   H4R18270   2.093   5.999   9.927  1.8031  0.7877 -0.9617
  163SOPE   H4S18271   1.962   5.909   9.856  0.9949 -0.7028  2.6553
  163SOPE   C2518272   2.016   6.092   9.738 -0.6665  0.2063  0.1459
  163SOPE   H5R18273   2.045   6.198   9.757 -3.1836  1.4635 -2.3633
  163SOPE   H5S18274   2.099   6.043   9.682 -0.6113  1.8470 -1.3007
  163SOPE   C2618275   1.897   6.081   9.638 -0.3682  0.3328 -1.0980
  163SOPE   H6R18276   1.888   5.977   9.598 -1.4356 -0.7323  1.6620
  163SOPE   H6S18277   1.802   6.097   9.693 -0.4963 -0.5655 -1.0423
  163SOPE   C2718278   1.890   6.170   9.523 -1.0598 -0.6564 -0.7577
  163SOPE   H7R18279   1.787   6.153   9.483 -0.7728 -0.2807 -1.6811
  163SOPE   H7S18280   1.897   6.269   9.572 -0.2844 -1.8616  1.8000
  163SOPE   C2818281   1.995   6.153   9.416  0.3757  0.2637  0.1736
  163SOPE   H8R18282   1.965   6.234   9.346 -1.0576  0.1496  0.6145
  163SOPE   H8S18283   2.096   6.181   9.454  0.2852  1.4761 -0.4248
  163SOPE   C2918284   1.981   6.022   9.352  0.2301  0.5189  0.6155
  163SOPE   H9118285   2.007   5.935   9.414  1.0946 -0.0876 -0.5433
  163SOPE  C21018286   1.927   6.002   9.231  0.7457  0.3843 -0.2321
  163SOPE  H10118287   1.920   5.904   9.181 -1.1066  0.6579 -0.5719
  163SOPE  C21118288   1.865   6.103   9.132  0.4530  0.3417  0.3418
  163SOPE  H11R18289   1.885   6.210   9.153  3.7589  0.1190 -1.0659
  163SOPE  H11S18290   1.755   6.099   9.148  0.2129  2.9373 -0.1952
  163SOPE  C21218291   1.890   6.075   8.984  0.1976  0.1859  0.7578
  163SOPE  H12R18292   2.000   6.072   8.964 -0.0067  3.2266 -1.6582
  163SOPE  H12S18293   1.860   6.167   8.929 -0.1482 -0.7971 -0.7392
  163SOPE  C21318294   1.815   5.949   8.930 -0.0927  0.7205 -0.2729
  163SOPE  H13R18295   1.704   5.953   8.924 -0.1722 -0.9340 -0.1963
  163SOPE  H13S18296   1.839   5.878   9.012  0.2800  1.2758  0.1073
  163SOPE  C21418297   1.874   5.894   8.795 -0.2546  0.4572 -0.3478
  163SOPE  H14R18298   1.984   5.904   8.797 -0.1962 -0.2758  0.7457
  163SOPE  H14S18299   1.840   5.970   8.721  1.9321  0.7677 -1.1091
  163SOPE  C21518300   1.820   5.755   8.757  0.1942  0.8085  0.6550
  163SOPE  H15R18301   1.715   5.761   8.719  0.9627 -0.5557 -1.9322
  163SOPE  H15S18302   1.826   5.693   8.849  1.3063 -0.1959 -0.0588
  163SOPE  C21618303   1.897   5.702   8.635 -0.5493  0.2812  0.4532
  163SOPE  H16R18304   2.002   5.678   8.663 -0.6762 -5.5505 -2.5587
  163SOPE  H16S18305   1.900   5.782   8.557  1.2048  0.5739  0.7833
  163SOPE  C21718306   1.827   5.576   8.571 -0.1690 -0.0193 -0.6251
  163SOPE  H17R18307   1.880   5.546   8.478 -0.6428  2.3588 -1.7297
  163SOPE  H17S18308   1.722   5.594   8.541  0.0854  0.2745 -1.3796
  163SOPE  C21818309   1.832   5.465   8.673 -0.5676 -0.4132 -0.1191
  163SOPE  H18R18310   1.738   5.444   8.728 -0.4925 -1.5258 -0.3787
  163SOPE  H18S18311   1.909   5.485   8.751 -0.0181  1.6561 -1.1237
  163SOPE  H18T18312   1.851   5.371   8.617  0.2912  1.2663 -2.8748
  163SOPE   C3318313   2.422   6.279   9.860  0.2931  0.1772 -0.7966
  163SOPE   H3X18314   2.524   6.241   9.838  0.6307  0.2276  0.6034
  163SOPE   H3Y18315   2.431   6.351   9.944  0.2614 -1.2597  0.4714
  163SOPE   C3418316   2.385   6.345   9.726 -0.5237  0.4351 -0.2742
  163SOPE   H4X18317   2.432   6.445   9.713  1.7569 -0.5876 -0.4085
  163SOPE   H4Y18318   2.280   6.380   9.739 -0.6877 -0.7522  2.0003
  163SOPE   C3518319   2.395   6.254   9.604  0.1259 -0.3345  0.2579
  163SOPE   H5X18320   2.316   6.177   9.616 -0.6645  0.4491  0.1808
  163SOPE   H5Y18321   2.501   6.223   9.593  0.4567  0.9185 -0.2858
  163SOPE   C3618322   2.365   6.319   9.462  0.1364 -0.3191  0.2388
  163SOPE   H6X18323   2.440   6.394   9.428 -1.6638  1.1632 -0.6445
  163SOPE   H6Y18324   2.264   6.365   9.463  0.4268  0.5653 -2.6019
  163SOPE   C3718325   2.345   6.216   9.346  0.1270  0.9861  0.3973
  163SOPE   H7X18326   2.276   6.139   9.386 -1.7165  1.2235 -2.0641
  163SOPE   H7Y18327   2.442   6.164   9.334 -0.9638 -1.3045  0.8573
  163SOPE   C3818328   2.304   6.268   9.210  0.2535  0.6141 -0.2777
  163SOPE   H8X18329   2.367   6.359   9.197 -0.4998  1.6796  2.7100
  163SOPE   H8Y18330   2.198   6.301   9.218 -0.0927 -0.1834 -1.3219
  163SOPE   C3918331   2.314   6.170   9.091  0.1004  0.9971 -0.8202
  163SOPE   H9X18332   2.249   6.082   9.107  1.8201  0.0233  1.5817
  163SOPE   H9Y18333   2.420   6.135   9.090  0.1022  1.0205 -1.5185
  163SOPE  C31018334   2.275   6.238   8.959 -0.5157  0.3815  0.2389
  163SOPE  H10X18335   2.340   6.325   8.935  0.8858 -0.1779  1.7342
  163SOPE  H10Y18336   2.174   6.279   8.977 -0.9539  0.6823 -2.5863
  163SOPE  C31118337   2.281   6.142   8.843 -0.2542 -0.1684 -0.2833
  163SOPE  H11X18338   2.213   6.055   8.855  0.0704 -0.8183 -2.5350
  163SOPE  H11Y18339   2.386   6.108   8.827  0.5397  1.8639  0.2535
  163SOPE  C31218340   2.224   6.213   8.721 -0.6965  0.2963 -0.4508
  163SOPE  H12X18341   2.302   6.281   8.681  1.6473 -1.4102  0.8714
  163SOPE  H12Y18342   2.136   6.275   8.748 -0.8931 -0.3201  0.3853
  163SOPE  C31318343   2.191   6.102   8.616 -0.0102 -0.0265 -0.0463
  163SOPE  H13X18344   2.096   6.054   8.648  1.4864 -1.2741  2.8289
  163SOPE  H13Y18345   2.252   6.010   8.601 -1.1737 -0.6155 -1.3657
  163SOPE  C31418346   2.182   6.169   8.481 -0.4215  0.4350  0.0039
  163SOPE  H14X18347   2.146   6.274   8.482 -0.1235  0.5985 -2.0425
  163SOPE  H14Y18348   2.115   6.115   8.411  2.2401 -1.4390 -1.3023
  163SOPE  C31518349   2.313   6.146   8.408  0.0000  0.3781  0.5853
  163SOPE  H15X18350   2.344   6.039   8.404  1.3464  0.7566 -2.5563
  163SOPE  H15Y18351   2.397   6.199   8.458  0.0090  0.0932  0.8758
  163SOPE  C31618352   2.305   6.190   8.254 -0.4962 -0.6046 -0.5760
  163SOPE  H16X18353   2.222   6.138   8.202 -0.0262 -1.7812 -0.1841
  163SOPE  H16Y18354   2.401   6.156   8.209  0.7891 -1.4493  2.5120
  163SOPE  C31718355   2.294   6.334   8.235  0.7565 -0.8941  0.8691
  163SOPE  H17X18356   2.365   6.379   8.308 -0.9848 -0.6727  2.4796
  163SOPE  H17Y18357   2.197   6.376   8.267  1.2668  1.1823 -0.1638
  163SOPE  C31818358   2.329   6.369   8.093  0.2840 -0.0988  0.5935
  163SOPE  H18X18359   2.317   6.476   8.066  1.1663  0.0498  0.7475
  163SOPE  H18Y18360   2.272   6.316   8.014 -0.4390  2.4375 -0.6633
  163SOPE  H18Z18361   2.439   6.363   8.077  0.6115  0.0106  2.5317
  164SOPE     N18362   4.949   4.626  10.910  0.6648 -0.4608 -0.4793
  164SOPE   HN118363   4.992   4.703  10.854  1.1597  1.0815  1.8852
  164SOPE   HN218364   5.020   4.564  10.953  1.2179 -0.3739 -1.2359
  164SOPE   HN318365   4.900   4.556  10.851  1.1841 -2.1563  1.0336
  164SOPE   C1218366   4.841   4.671  11.008 -0.3734  0.0992 -0.1172
  164SOPE  H12A18367   4.884   4.685  11.110 -2.2069 -0.5989  0.8010
  164SOPE  H12B18368   4.779   4.580  11.021 -0.2654 -0.0958 -0.9660
  164SOPE   C1118369   4.755   4.788  10.967  0.0016 -0.5013 -0.3870
  164SOPE  H11A18370   4.809   4.861  10.904  0.7360 -1.3889 -0.8056
  164SOPE  H11B18371   4.738   4.827  11.070  0.2520 -0.5207 -0.3381
  164SOPE     P18372   4.526   4.837  10.851 -0.1076 -0.0000  0.0586
  164SOPE   O1318373   4.562   4.978  10.888  0.1531 -0.6177  0.4309
  164SOPE   O1418374   4.392   4.790  10.890 -0.5395  0.5978  0.2963
  164SOPE   O1218375   4.635   4.740  10.912  0.1531  0.2844 -0.3385
  164SOPE   O1118376   4.560   4.807  10.695 -0.4090 -0.0491 -0.1941
  164SOPE    C118377   4.682   4.860  10.637 -0.0838  0.0469 -0.2889
  164SOPE    HA18378   4.770   4.813  10.686  0.0623 -0.3260 -0.8924
  164SOPE    HB18379   4.691   4.969  10.654 -0.9399  0.1133 -0.2213
  164SOPE    C218380   4.694   4.819  10.487 -0.1065  0.1038  0.0364
  164SOPE    HS18381   4.790   4.843  10.438 -0.2859  0.1255 -0.3096
  164SOPE   O2118382   4.595   4.884  10.403  0.0359  0.3678 -0.1150
  164SOPE   C2118383   4.605   5.016  10.402 -0.0766  0.0154  0.4499
  164SOPE   O2218384   4.703   5.078  10.439  0.8354  0.2078  0.2628
  164SOPE   C2218385   4.462   5.075  10.367 -0.6102  0.4297  0.2566
  164SOPE   H2R18386   4.404   5.082  10.462 -0.8769  1.5941  0.0261
  164SOPE   H2S18387   4.408   5.005  10.300  0.4436  0.8002 -1.0198
  164SOPE    C318388   4.675   4.666  10.466 -0.0009 -0.6867  0.1190
  164SOPE    HX18389   4.589   4.630  10.526 -1.5446  0.3785 -1.3785
  164SOPE    HY18390   4.774   4.627  10.501  0.7220 -0.6511 -1.7518
  164SOPE   O3118391   4.667   4.624  10.329 -0.0480 -0.9464 -0.1783
  164SOPE   C3118392   4.540   4.613  10.279 -0.3529  0.1336  0.3140
  164SOPE   O3218393   4.440   4.623  10.344 -0.2204 -0.1135 -0.9246
  164SOPE   C3218394   4.546   4.553  10.140 -0.2183  0.5056 -0.6724
  164SOPE   H2X18395   4.541   4.444  10.159  0.2955  0.3701 -1.2890
  164SOPE   H2Y18396   4.646   4.579  10.097  0.3483 -0.6217 -0.0697
  164SOPE   C2318397   4.465   5.208  10.284 -0.0124 -0.0417  0.2322
  164SOPE   H3R18398   4.505   5.297  10.338  1.0851 -0.3414 -0.0550
  164SOPE   H3S18399   4.362   5.241  10.262  0.0901 -1.5519 -3.2167
  164SOPE   C2418400   4.518   5.204  10.148 -0.3092 -0.3885 -0.0720
  164SOPE   H4R18401   4.623   5.239  10.155 -0.1569 -0.9779  0.7375
  164SOPE   H4S18402   4.518   5.100  10.109 -0.1869  0.5876 -2.9416
  164SOPE   C2518403   4.434   5.290  10.056  0.2128 -0.1723 -0.0804
  164SOPE   H5R18404   4.325   5.272  10.069  0.4882 -1.9383 -0.0429
  164SOPE   H5S18405   4.451   5.399  10.069  0.2245  0.1793 -2.5572
  164SOPE   C2618406   4.450   5.258   9.904  0.0710  0.5534 -0.4938
  164SOPE   H6R18407   4.558   5.232   9.900  0.2287  0.6000  2.1929
  164SOPE   H6S18408   4.383   5.177   9.866 -0.8165 -0.1958  2.4171
  164SOPE   C2718409   4.427   5.380   9.814  0.4456 -0.4144 -0.1719
  164SOPE   H7R18410   4.328   5.429   9.824 -0.0425 -1.3402 -0.3699
  164SOPE   H7S18411   4.484   5.468   9.850 -1.6066  0.7182  0.4738
  164SOPE   C2818412   4.449   5.351   9.667  0.1286 -0.6059  0.2329
  164SOPE   H8R18413   4.385   5.264   9.641 -0.7074  0.8272 -2.9698
  164SOPE   H8S18414   4.407   5.434   9.607 -2.6502 -2.1011 -0.0523
  164SOPE   C2918415   4.597   5.340   9.633 -0.1870 -0.0350 -1.0660
  164SOPE   H9118416   4.652   5.339   9.729 -3.1052 -2.1603  0.7502
  164SOPE  C21018417   4.647   5.307   9.515  0.3914 -0.3313 -0.3339
  164SOPE  H10118418   4.754   5.293   9.498  0.8580 -0.5766  2.3112
  164SOPE  C21118419   4.556   5.302   9.393 -0.9233 -0.1716 -0.1071
  164SOPE  H11R18420   4.455   5.270   9.424 -1.6277  0.2980 -1.8322
  164SOPE  H11S18421   4.599   5.230   9.320  1.2482 -2.0999  2.8228
  164SOPE  C21218422   4.534   5.448   9.339  0.1894  0.6635  0.0367
  164SOPE  H12R18423   4.534   5.526   9.418  0.8823  1.3722 -0.6388
  164SOPE  H12S18424   4.434   5.452   9.292  1.8094 -0.3731 -3.9706
  164SOPE  C21318425   4.652   5.488   9.247 -0.2084  0.1745  0.1712
  164SOPE  H13R18426   4.750   5.484   9.298  0.0816  1.7655 -0.2272
  164SOPE  H13S18427   4.644   5.595   9.220  2.8241 -0.0749 -2.3513
  164SOPE  C21418428   4.645   5.404   9.120 -0.6427  0.5848  0.0147
  164SOPE  H14R18429   4.550   5.428   9.066 -0.3919  1.4271 -0.0754
  164SOPE  H14S18430   4.651   5.295   9.138  1.9814  0.7344  0.4265
  164SOPE  C21518431   4.764   5.427   9.027 -0.1327 -0.4251  0.0971
  164SOPE  H15R18432   4.854   5.405   9.087 -0.9059 -0.4284  1.2859
  164SOPE  H15S18433   4.773   5.535   9.000  1.3088 -0.7275 -0.7095
  164SOPE  C21618434   4.759   5.342   8.903 -0.2638 -0.0539 -0.0314
  164SOPE  H16R18435   4.657   5.334   8.860 -0.4613 -0.3299  0.4817
  164SOPE  H16S18436   4.795   5.239   8.924 -0.9935 -0.0135  1.5064
  164SOPE  C21718437   4.841   5.407   8.791 -0.2122 -0.1476  0.1479
  164SOPE  H17R18438   4.810   5.514   8.793 -0.1907 -0.1455  0.3937
  164SOPE  H17S18439   4.811   5.351   8.699 -0.0692  0.0531 -0.0236
  164SOPE  C21818440   4.992   5.402   8.788  0.4316  0.4137 -0.2681
  164SOPE  H18R18441   5.014   5.294   8.803 -0.3103 -0.0654 -2.2622
  164SOPE  H18S18442   5.043   5.476   8.853  1.0649 -0.6100  0.4324
  164SOPE  H18T18443   5.030   5.422   8.685 -0.4410  0.3125 -0.6204
  164SOPE   C3318444   4.436   4.598  10.050 -0.1587  0.4085 -0.1339
  164SOPE   H3X18445   4.336   4.601  10.100  0.1889  1.1372  0.5366
  164SOPE   H3Y18446   4.427   4.529   9.963  0.1033  1.8057 -1.2989
  164SOPE   C3418447   4.476   4.730   9.982  0.0527 -0.6475  0.1492
  164SOPE   H4X18448   4.579   4.742   9.942 -0.9437 -3.4139 -3.8571
  164SOPE   H4Y18449   4.458   4.815  10.051  0.1759 -2.6943  2.8224
  164SOPE   C3518450   4.393   4.740   9.856 -0.6644  0.1499 -0.2069
  164SOPE   H5X18451   4.284   4.752   9.874 -0.8548 -0.1326 -1.1119
  164SOPE   H5Y18452   4.398   4.646   9.797  0.3786  0.2262 -0.2553
  164SOPE   C3618453   4.430   4.861   9.761 -0.4360  0.0963 -0.3382
  164SOPE   H6X18454   4.537   4.893   9.766 -0.7845  1.1860  0.6765
  164SOPE   H6Y18455   4.383   4.954   9.800  0.5837  0.5306 -0.1205
  164SOPE   C3718456   4.389   4.829   9.621  0.2129  0.1031  0.4063
  164SOPE   H7X18457   4.279   4.831   9.638  0.2619 -0.5836  0.8456
  164SOPE   H7Y18458   4.413   4.723   9.595  1.2460 -0.5280  3.5268
  164SOPE   C3818459   4.427   4.927   9.514 -0.1846 -0.3971 -0.0897
  164SOPE   H8X18460   4.397   5.028   9.550 -2.0575 -0.5325 -1.1560
  164SOPE   H8Y18461   4.353   4.895   9.437 -1.5791 -2.8342  2.0597
  164SOPE   C3918462   4.569   4.920   9.455  0.4120  0.0547  0.0130
  164SOPE   H9X18463   4.612   4.819   9.469  0.8180  0.3305  0.8411
  164SOPE   H9Y18464   4.636   4.985   9.516  2.0798 -1.1650 -0.4558
  164SOPE  C31018465   4.591   4.940   9.302  0.5652  0.1068 -0.1964
  164SOPE  H10X18466   4.534   5.030   9.270  0.3716  1.1721  2.8204
  164SOPE  H10Y18467   4.528   4.863   9.254  0.1445 -0.8934  1.8620
  164SOPE  C31118468   4.732   4.940   9.248  0.4848 -1.0041 -0.0025
  164SOPE  H11X18469   4.779   4.841   9.266  1.0112 -0.8240 -0.3667
  164SOPE  H11Y18470   4.784   5.014   9.313 -0.4415  0.5199 -0.9337
  164SOPE  C31218471   4.734   4.971   9.100  0.0727  0.0299  0.9204
  164SOPE  H12X18472   4.840   4.996   9.078 -0.8852  1.4697 -3.0358
  164SOPE  H12Y18473   4.667   5.058   9.082 -0.9954 -1.0684 -0.7328
  164SOPE  C31318474   4.685   4.859   9.012  0.6234  0.2600 -0.8983
  164SOPE  H13X18475   4.574   4.853   9.008  0.5737 -0.6653  0.7693
  164SOPE  H13Y18476   4.724   4.769   9.065 -0.2326 -0.3222 -1.2400
  164SOPE  C31418477   4.742   4.873   8.875 -0.2166 -0.2562 -0.6351
  164SOPE  H14X18478   4.852   4.872   8.888 -0.3790  0.0118  0.9770
  164SOPE  H14Y18479   4.719   4.979   8.851  0.1463  0.5363  2.1689
  164SOPE  C31518480   4.691   4.766   8.783  0.4056  0.0362  0.1679
  164SOPE  H15X18481   4.580   4.766   8.784  0.3153 -2.1529 -1.7581
  164SOPE  H15Y18482   4.716   4.662   8.813 -2.1419 -0.3184  1.3879
  164SOPE  C31618483   4.736   4.781   8.636  0.2482 -0.1738 -0.6162
  164SOPE  H16X18484   4.693   4.877   8.601 -1.9021 -0.2775  1.4281
  164SOPE  H16Y18485   4.704   4.690   8.582  2.6640 -0.8491 -1.0199
  164SOPE  C31718486   4.888   4.793   8.606  0.3888  0.2210 -0.5903
  164SOPE  H17X18487   4.927   4.699   8.651 -0.6316 -1.3084 -2.7347
  164SOPE  H17Y18488   4.932   4.883   8.653 -1.2088  0.6266  0.2192
  164SOPE  C31818489   4.908   4.783   8.460 -0.4113 -0.4363  0.4919
  164SOPE  H18X18490   4.890   4.878   8.405 -0.5036  2.1039  4.4842
  164SOPE  H18Y18491   4.849   4.700   8.414 -0.0276 -0.6352  0.3529
  164SOPE  H18Z18492   5.014   4.755   8.442 -0.2282  0.4167  0.1939
  165SOPE     N18493   3.381   5.978  10.922 -0.1708 -0.3179 -0.3053
  165SOPE   HN118494   3.328   6.018  10.842  1.3929  2.7179  0.0428
  165SOPE   HN218495   3.481   5.959  10.898  0.0747  0.5086  0.0537
  165SOPE   HN318496   3.340   5.890  10.959 -0.1821 -0.0831  0.2350
  165SOPE   C1218497   3.399   6.075  11.034 -0.5345  0.1372 -0.5419
  165SOPE  H12A18498   3.477   6.032  11.100 -0.1493  2.9512  1.0002
  165SOPE  H12B18499   3.298   6.071  11.080 -0.4497  1.6613 -0.1565
  165SOPE   C1118500   3.458   6.210  10.983  0.1945 -0.8865  0.2997
  165SOPE  H11A18501   3.464   6.283  11.066 -3.7182  0.5056 -0.4378
  165SOPE  H11B18502   3.388   6.258  10.912  3.1104  1.2448 -1.3575
  165SOPE     P18503   3.696   6.300  10.912 -0.3575 -0.2207 -0.6540
  165SOPE   O1318504   3.818   6.238  10.849  0.3615  0.0124 -0.2322
  165SOPE   O1418505   3.719   6.377  11.040 -0.5927  0.1770  0.2130
  165SOPE   O1218506   3.585   6.191  10.923 -0.1212  0.9567  0.0506
  165SOPE   O1118507   3.644   6.402  10.806 -0.1716  0.0980  0.8912
  165SOPE    C118508   3.556   6.376  10.700  0.3793  0.2932  0.2904
  165SOPE    HA18509   3.521   6.475  10.663 -1.5233 -0.9070 -1.3234
  165SOPE    HB18510   3.467   6.315  10.725 -0.7441 -0.2498 -4.2062
  165SOPE    C218511   3.637   6.327  10.580 -0.6872 -0.3010  0.0099
  165SOPE    HS18512   3.743   6.350  10.602 -0.6277  0.6571 -1.1360
  165SOPE   O2118513   3.595   6.398  10.468  0.8462  0.2483  0.0076
  165SOPE   C2118514   3.694   6.421  10.389 -0.2633  0.1657 -0.2538
  165SOPE   O2218515   3.813   6.400  10.408  0.9162 -0.2867 -0.4373
  165SOPE   C2218516   3.633   6.467  10.255  0.9106  0.2120  0.9935
  165SOPE   H2R18517   3.576   6.560  10.276 -0.5672 -0.8322  1.7723
  165SOPE   H2S18518   3.549   6.400  10.226  1.1170  0.5875 -0.5642
  165SOPE    C318519   3.613   6.178  10.549 -0.3870 -0.7631  0.3448
  165SOPE    HX18520   3.508   6.176  10.513 -0.0254  2.1065 -1.2145
  165SOPE    HY18521   3.620   6.123  10.645 -0.4458  2.8902  2.6619
  165SOPE   O3118522   3.699   6.125  10.448  0.0252  0.0443  0.1869
  165SOPE   C3118523   3.664   6.004  10.393  0.0259 -0.1874  0.1961
  165SOPE   O3218524   3.572   5.936  10.434  0.0646 -0.2687 -0.0952
  165SOPE   C3218525   3.762   5.962  10.279 -0.0436  0.4264  0.3253
  165SOPE   H2X18526   3.791   5.856  10.294 -1.9481 -0.4903 -1.9701
  165SOPE   H2Y18527   3.852   6.025  10.297  0.9149 -1.3638  2.2924
  165SOPE   C2318528   3.727   6.492  10.132  0.5109 -0.2306  0.1876
  165SOPE   H3R18529   3.808   6.564  10.158 -0.9680  1.3454  0.6578
  165SOPE   H3S18530   3.677   6.550  10.052  0.5755  0.3482  0.5569
  165SOPE   C2418531   3.772   6.356  10.071  0.6919 -0.0890 -0.1599
  165SOPE   H4R18532   3.828   6.301  10.149  0.5653 -1.6854 -1.1461
  165SOPE   H4S18533   3.674   6.307  10.050  0.7844 -0.1935 -0.3479
  165SOPE   C2518534   3.858   6.387   9.947  0.2220 -0.2614 -0.4741
  165SOPE   H5R18535   3.921   6.475   9.969 -2.1424  1.4947 -0.4039
  165SOPE   H5S18536   3.930   6.303   9.936  1.7014  0.9879 -0.5970
  165SOPE   C2618537   3.785   6.404   9.823 -0.3523 -0.4561 -0.1601
  165SOPE   H6R18538   3.716   6.318   9.810 -2.6573  1.2486  0.0963
  165SOPE   H6S18539   3.722   6.495   9.833  0.4069  0.1113 -0.5188
  165SOPE   C2718540   3.887   6.429   9.713 -0.8040  0.0322  0.1543
  165SOPE   H7R18541   3.918   6.536   9.717  0.4147 -0.2951 -0.1559
  165SOPE   H7S18542   3.972   6.359   9.731 -0.2937  1.0871  2.2473
  165SOPE   C2818543   3.829   6.404   9.576  0.1239 -0.1658  0.0368
  165SOPE   H8R18544   3.788   6.301   9.564 -0.2852  0.2540 -2.7316
  165SOPE   H8S18545   3.748   6.471   9.540 -0.7409 -1.5099 -0.6105
  165SOPE   C2918546   3.944   6.432   9.477  0.9079 -0.1969 -0.0965
  165SOPE   H9118547   3.971   6.537   9.460  3.0932 -0.2213  2.4575
  165SOPE  C21018548   4.019   6.343   9.415 -0.2722  0.0726  0.1634
  165SOPE  H10118549   4.105   6.385   9.359 -0.0963 -0.1310  0.2799
  165SOPE  C21118550   4.010   6.191   9.417 -0.0229  0.8041  0.0881
  165SOPE  H11R18551   3.902   6.165   9.423 -0.4302  1.8733 -1.6959
  165SOPE  H11S18552   4.074   6.162   9.503  1.7056  1.5854 -0.8826
  165SOPE  C21218553   4.049   6.117   9.287 -0.1629  0.3043  0.3143
  165SOPE  H12R18554   4.044   6.008   9.308  1.2039  0.5008  1.8768
  165SOPE  H12S18555   4.147   6.156   9.253 -0.6656  0.1431 -1.4090
  165SOPE  C21318556   3.955   6.148   9.171  0.2251  0.6324  0.2335
  165SOPE  H13R18557   3.953   6.256   9.144 -0.6952  0.9130  1.3520
  165SOPE  H13S18558   3.855   6.111   9.203  0.4773  1.7979  2.5681
  165SOPE  C21418559   3.991   6.083   9.038 -0.9459  0.1483  0.1565
  165SOPE  H14R18560   3.893   6.077   8.986 -1.6383 -1.5630  1.5485
  165SOPE  H14S18561   4.036   5.983   9.057  0.3762 -0.1563 -3.6840
  165SOPE  C21518562   4.095   6.160   8.952 -0.4531 -0.0809 -0.3129
  165SOPE  H15R18563   4.182   6.179   9.019  0.0701 -0.0863 -0.9775
  165SOPE  H15S18564   4.042   6.251   8.916 -0.2213 -0.2686 -1.1514
  165SOPE  C21618565   4.144   6.075   8.832 -0.1159 -0.0312 -0.2837
  165SOPE  H16R18566   4.065   6.070   8.754 -1.4781  2.4498  0.8222
  165SOPE  H16S18567   4.178   5.974   8.863  2.4237  0.6036 -0.7504
  165SOPE  C21718568   4.263   6.141   8.753  0.0378  0.1578 -0.7587
  165SOPE  H17R18569   4.348   6.118   8.821 -0.1835 -3.6065 -1.5094
  165SOPE  H17S18570   4.242   6.250   8.750  1.0969  0.3793 -0.5668
  165SOPE  C21818571   4.303   6.090   8.613  0.3951 -0.4262  0.2091
  165SOPE  H18R18572   4.400   6.128   8.573  0.5999 -2.2296 -1.1338
  165SOPE  H18S18573   4.225   6.112   8.537  1.7421  0.4171 -0.9939
  165SOPE  H18T18574   4.319   5.980   8.615  2.3377 -0.2071 -0.5534
  165SOPE   C3318575   3.712   5.983  10.132 -0.2310  0.2381 -0.1211
  165SOPE   H3X18576   3.662   6.081  10.124  1.1667  0.9204 -1.1034
  165SOPE   H3Y18577   3.634   5.904  10.129 -0.4454  0.4284  0.3798
  165SOPE   C3418578   3.822   5.959  10.033  0.5913 -0.4396  1.0812
  165SOPE   H4X18579   3.861   5.856  10.041  1.5818 -0.1831 -0.1345
  165SOPE   H4Y18580   3.902   6.033  10.057  0.5317  0.2400 -0.6679
  165SOPE   C3518581   3.789   5.986   9.885  0.1085 -0.9023  0.1580
  165SOPE   H5X18582   3.882   5.958   9.831  0.4445  1.2029 -0.4340
  165SOPE   H5Y18583   3.773   6.095   9.876 -0.5285 -1.0588 -0.7761
  165SOPE   C3618584   3.662   5.925   9.844 -0.3969  0.1300  0.0615
  165SOPE   H6X18585   3.578   5.980   9.890 -2.0977 -1.6120 -0.8088
  165SOPE   H6Y18586   3.661   5.814   9.858  0.0463  0.3122  1.7564
  165SOPE   C3718587   3.656   5.943   9.688  0.0693  0.3241  0.4681
  165SOPE   H7X18588   3.649   6.051   9.664  3.8341  0.6709  0.3480
  165SOPE   H7Y18589   3.558   5.894   9.664 -0.8402  2.2814  0.0055
  165SOPE   C3818590   3.755   5.860   9.604  0.1165  0.0374  0.4860
  165SOPE   H8X18591   3.744   5.752   9.627  0.7250  0.2128  1.6976
  165SOPE   H8Y18592   3.858   5.892   9.630 -0.0895  1.6640 -0.5384
  165SOPE   C3918593   3.709   5.882   9.457 -0.1872  0.1040 -1.4459
  165SOPE   H9X18594   3.688   5.990   9.441  1.2629  0.7335  0.5656
  165SOPE   H9Y18595   3.610   5.836   9.435  0.1678 -0.8649 -1.0346
  165SOPE  C31018596   3.801   5.833   9.354 -0.5072 -0.4756  0.1590
  165SOPE  H10X18597   3.908   5.859   9.369 -0.1797 -1.3560 -0.5308
  165SOPE  H10Y18598   3.778   5.889   9.261  2.0198 -2.7315 -1.9965
  165SOPE  C31118599   3.796   5.683   9.323 -0.9531  0.4481  0.5715
  165SOPE  H11X18600   3.696   5.670   9.277 -1.9243 -0.1823  2.7015
  165SOPE  H11Y18601   3.789   5.609   9.406 -0.1192 -2.4491 -1.7576
  165SOPE  C31218602   3.901   5.640   9.226  0.4153  0.1455 -0.2913
  165SOPE  H12X18603   3.914   5.530   9.214  1.7205  0.1492  0.8001
  165SOPE  H12Y18604   4.003   5.651   9.269  0.7733 -0.8991 -0.8415
  165SOPE  C31318605   3.892   5.709   9.093 -0.0841  0.2206 -0.0231
  165SOPE  H13X18606   3.883   5.820   9.101 -0.8930  0.2281 -0.7627
  165SOPE  H13Y18607   3.806   5.669   9.035 -1.3215 -0.3392  2.0946
  165SOPE  C31418608   4.016   5.675   9.010 -0.4389 -0.5051 -0.0915
  165SOPE  H14X18609   4.055   5.571   9.005 -0.5373 -0.9488  4.4837
  165SOPE  H14Y18610   4.096   5.740   9.051 -0.6459  1.8146 -2.9990
  165SOPE  C31518611   4.010   5.729   8.864 -0.2462  0.3339 -0.2527
  165SOPE  H15X18612   4.116   5.745   8.836 -0.4711  0.2928 -1.1639
  165SOPE  H15Y18613   3.961   5.828   8.867  0.0805  0.5679 -1.8725
  165SOPE  C31618614   3.943   5.623   8.775  0.4127 -0.1186  0.1652
  165SOPE  H16X18615   3.835   5.601   8.787 -0.0903  0.8143 -2.1270
  165SOPE  H16Y18616   4.011   5.535   8.786  0.9009  0.0212 -1.4126
  165SOPE  C31718617   3.956   5.675   8.635 -0.4666 -0.1285  0.3200
  165SOPE  H17X18618   3.901   5.771   8.631 -1.8472 -0.9007  0.2993
  165SOPE  H17Y18619   3.901   5.612   8.562  1.9547 -1.5518 -0.4106
  165SOPE  C31818620   4.097   5.678   8.587 -0.1480 -0.5311  0.8917
  165SOPE  H18X18621   4.167   5.739   8.647 -0.5312 -0.8407  1.6750
  165SOPE  H18Y18622   4.111   5.704   8.480 -0.6939  1.7437  1.3202
  165SOPE  H18Z18623   4.142   5.576   8.578  2.8306  0.7218  0.3832
  166SOPE     N18624   6.637   6.119  10.928 -0.4232 -0.0700  0.2234
  166SOPE   HN118625   6.700   6.126  11.011  0.3118 -1.8078 -0.1458
  166SOPE   HN218626   6.687   6.153  10.843  0.4614  1.2998  1.2377
  166SOPE   HN318627   6.554   6.182  10.940 -1.9632 -1.5398 -1.9752
  166SOPE   C1218628   6.590   5.968  10.928  0.5113  0.5845  0.2343
  166SOPE  H12A18629   6.565   5.933  11.031  2.3068  0.4421  0.6536
  166SOPE  H12B18630   6.678   5.907  10.900  0.4079  0.4023  0.3017
  166SOPE   C1118631   6.470   5.935  10.831  0.8189  0.3129  0.3967
  166SOPE  H11A18632   6.443   5.828  10.828 -1.8963  0.8714  1.9392
  166SOPE  H11B18633   6.517   5.956  10.733  2.6144 -1.8774  0.6950
  166SOPE     P18634   6.326   6.152  10.804  0.2724 -0.0646 -0.2651
  166SOPE   O1318635   6.389   6.260  10.885 -0.3675  0.2342  0.2721
  166SOPE   O1418636   6.181   6.184  10.780  0.2810 -0.2750  0.1874
  166SOPE   O1218637   6.357   6.014  10.870 -0.2711 -0.3797  0.4028
  166SOPE   O1118638   6.402   6.153  10.664 -0.9365  0.4951  0.5402
  166SOPE    C118639   6.519   6.238  10.634  0.2867  0.8284  0.1571
  166SOPE    HA18640   6.609   6.178  10.659  1.5735  0.2107 -4.8091
  166SOPE    HB18641   6.508   6.336  10.685 -2.8094  0.7541 -0.1435
  166SOPE    C218642   6.538   6.256  10.479  0.1654  0.5370  0.9226
  166SOPE    HS18643   6.624   6.322  10.457 -0.3190  0.6392 -0.7819
  166SOPE   O2118644   6.415   6.304  10.410 -0.2685 -0.3751 -0.3002
  166SOPE   C2118645   6.379   6.426  10.448  0.0048  0.1658  0.2273
  166SOPE   O2218646   6.449   6.510  10.502 -0.2553 -0.2486 -0.3219
  166SOPE   C2218647   6.238   6.457  10.395 -0.3533  0.2375  0.7149
  166SOPE   H2R18648   6.196   6.545  10.447 -0.2221  1.4165 -1.0781
  166SOPE   H2S18649   6.187   6.358  10.399  0.7746 -0.5606 -2.1418
  166SOPE    C318650   6.574   6.117  10.412  0.0380 -0.8419 -0.2125
  166SOPE    HX18651   6.496   6.044  10.443 -2.0852  1.5157  0.3367
  166SOPE    HY18652   6.676   6.093  10.448  0.9560  1.3254 -1.1880
  166SOPE   O3118653   6.570   6.115  10.267 -0.1235  0.1207  0.0224
  166SOPE   C3118654   6.635   6.195  10.193 -0.0100 -0.0814 -0.1271
  166SOPE   O3218655   6.693   6.293  10.230  0.4517 -0.1972 -0.1703
  166SOPE   C3218656   6.620   6.143  10.051  0.1668 -0.1893  0.0829
  166SOPE   H2X18657   6.513   6.146  10.022  0.1706 -1.8720 -0.1955
  166SOPE   H2Y18658   6.657   6.039  10.045 -1.2302 -0.7376  0.5144
  166SOPE   C2318659   6.251   6.508  10.244  0.1020 -0.7838 -0.5683
  166SOPE   H3R18660   6.304   6.605  10.256  0.3631 -1.1784  2.0840
  166SOPE   H3S18661   6.149   6.531  10.208 -0.1188  3.1924  1.9886
  166SOPE   C2418662   6.324   6.421  10.146 -0.1200  0.2651  0.2561
  166SOPE   H4R18663   6.432   6.433  10.168 -0.3208 -0.1422  1.5690
  166SOPE   H4S18664   6.298   6.314  10.163 -0.6679  0.2955 -0.3725
  166SOPE   C2518665   6.299   6.467  10.007 -0.1479 -0.2623 -0.1306
  166SOPE   H5R18666   6.191   6.486   9.989 -0.2666 -1.7817 -1.2058
  166SOPE   H5S18667   6.357   6.559   9.984 -0.7658  0.3763  0.8031
  166SOPE   C2618668   6.350   6.379   9.892  0.5481 -0.2722  0.5241
  166SOPE   H6R18669   6.330   6.455   9.813 -0.8879  0.1669  1.2717
  166SOPE   H6S18670   6.457   6.350   9.899  0.3698 -1.2604 -0.5708
  166SOPE   C2718671   6.258   6.265   9.870  0.2252  0.4028 -0.0430
  166SOPE   H7R18672   6.276   6.186   9.946  0.2816  1.0677  0.6442
  166SOPE   H7S18673   6.150   6.291   9.876  0.1082  0.3051 -1.4417
  166SOPE   C2818674   6.290   6.201   9.729 -0.0919  0.1812 -0.6755
  166SOPE   H8R18675   6.260   6.288   9.667  0.5683  1.3508  0.6053
  166SOPE   H8S18676   6.400   6.185   9.728 -0.1846 -0.9914  1.6716
  166SOPE   C2918677   6.210   6.083   9.680 -0.5793  0.1019  0.5528
  166SOPE   H9118678   6.146   6.040   9.758 -1.1705  1.3254  0.7719
  166SOPE  C21018679   6.229   6.018   9.562 -0.1181  0.3680 -0.3881
  166SOPE  H10118680   6.179   5.924   9.533  1.7101 -0.4408 -1.0821
  166SOPE  C21118681   6.321   6.062   9.447 -0.0572 -0.3025  0.7123
  166SOPE  H11R18682   6.396   6.137   9.480  0.9755 -1.5500  1.3084
  166SOPE  H11S18683   6.255   6.115   9.376  0.2328 -3.2685 -1.9914
  166SOPE  C21218684   6.397   5.943   9.390  0.4509  0.2247  0.0024
  166SOPE  H12R18685   6.319   5.870   9.361  1.1376  1.2616 -5.5329
  166SOPE  H12S18686   6.480   5.910   9.456  1.1167  1.4758 -0.1772
  166SOPE  C21318687   6.488   5.972   9.265  0.3770  0.8900  0.7796
  166SOPE  H13R18688   6.559   5.887   9.250  0.5838  1.0339  0.9353
  166SOPE  H13S18689   6.550   6.063   9.282  0.6794  0.7422  0.5024
  166SOPE  C21418690   6.419   6.011   9.133 -0.4375 -1.0110 -0.1034
  166SOPE  H14R18691   6.492   6.027   9.051 -1.2507  1.5025 -0.4202
  166SOPE  H14S18692   6.369   6.109   9.150 -0.7431 -1.2520  0.4076
  166SOPE  C21518693   6.324   5.909   9.079 -0.1351 -0.3025 -0.6701
  166SOPE  H15R18694   6.240   5.899   9.152 -0.3040  2.2269 -0.4596
  166SOPE  H15S18695   6.380   5.813   9.083  1.6905  0.6934 -1.2893
  166SOPE  C21618696   6.282   5.929   8.938 -0.3241 -0.5712  0.3580
  166SOPE  H16R18697   6.242   6.032   8.925 -0.5447 -0.4152  2.0938
  166SOPE  H16S18698   6.201   5.859   8.907  0.1184 -1.3569  0.9425
  166SOPE  C21718699   6.395   5.905   8.831 -0.1277 -0.5981 -0.2942
  166SOPE  H17R18700   6.460   5.818   8.855 -0.0890 -0.4334  0.2007
  166SOPE  H17S18701   6.456   5.998   8.833 -0.7136 -0.2068  1.4867
  166SOPE  C21818702   6.333   5.877   8.692  0.0438  0.1745 -0.0132
  166SOPE  H18R18703   6.282   5.778   8.692  2.3039 -1.0501 -0.1980
  166SOPE  H18S18704   6.408   5.864   8.611 -1.4371 -5.1469 -0.8807
  166SOPE  H18T18705   6.269   5.962   8.662 -1.4730 -1.1874 -0.7491
  166SOPE   C3318706   6.692   6.240   9.941  0.1950 -0.5442 -0.0121
  166SOPE   H3X18707   6.798   6.256   9.969  0.2200  1.1508 -0.9655
  166SOPE   H3Y18708   6.653   6.344   9.938 -1.2459 -1.0834 -1.1405
  166SOPE   C3418709   6.691   6.176   9.802  0.0285  0.6773  0.7399
  166SOPE   H4X18710   6.743   6.241   9.728  1.3137 -1.5467 -0.4173
  166SOPE   H4Y18711   6.585   6.170   9.768  0.2881 -0.1837  0.0556
  166SOPE   C3518712   6.744   6.033   9.784 -0.5399  0.1331  0.3697
  166SOPE   H5X18713   6.679   5.966   9.844  0.0813 -2.0495 -1.2848
  166SOPE   H5Y18714   6.850   6.028   9.815  0.1584  1.6842 -1.5113
  166SOPE   C3618715   6.746   5.991   9.634 -0.2693  0.5118 -0.9592
  166SOPE   H6X18716   6.800   6.071   9.579  1.9963  0.7153  1.3912
  166SOPE   H6Y18717   6.642   5.977   9.596 -0.6272  1.2474 -0.2736
  166SOPE   C3718718   6.821   5.858   9.620  0.5846  1.1199  0.3762
  166SOPE   H7X18719   6.770   5.780   9.680  1.5861  1.8357  2.2523
  166SOPE   H7Y18720   6.922   5.869   9.664  0.2757  0.8028  1.1910
  166SOPE   C3818721   6.823   5.830   9.467 -0.3614  1.0991 -0.4907
  166SOPE   H8X18722   6.879   5.899   9.400 -1.8534  0.8188 -2.0956
  166SOPE   H8Y18723   6.715   5.835   9.441 -0.5094  1.6205  0.1985
  166SOPE   C3918724   6.872   5.687   9.442  0.3663  0.8082  0.4819
  166SOPE   H9X18725   6.825   5.609   9.506  0.7895  2.4829  2.9814
  166SOPE   H9Y18726   6.980   5.678   9.466  0.4381  1.1140  0.2778
  166SOPE  C31018727   6.849   5.650   9.296  0.0452 -0.2900  0.0995
  166SOPE  H10X18728   6.909   5.723   9.238  1.9014 -1.1771  0.8265
  166SOPE  H10Y18729   6.741   5.658   9.271 -0.8767 -1.6639  3.1724
  166SOPE  C31118730   6.909   5.518   9.251  0.2565 -0.2368 -0.7071
  166SOPE  H11X18731   6.871   5.455   9.334  0.3374  2.8746  1.9110
  166SOPE  H11Y18732   7.019   5.518   9.272  0.5403 -2.1538 -1.9148
  166SOPE  C31218733   6.867   5.486   9.104  0.5418 -0.0745 -0.3194
  166SOPE  H12X18734   6.923   5.555   9.038 -0.2256  0.2966 -0.5957
  166SOPE  H12Y18735   6.757   5.496   9.089  0.5490  3.0407  0.9750
  166SOPE  C31318736   6.892   5.333   9.071  0.0389 -0.2032  0.1650
  166SOPE  H13X18737   6.846   5.282   9.158 -1.2241  0.6071 -0.0009
  166SOPE  H13Y18738   7.001   5.317   9.085  0.0293 -0.0677  0.3790
  166SOPE  C31418739   6.836   5.296   8.937  0.0379  0.4993  0.3543
  166SOPE  H14X18740   6.725   5.292   8.941 -0.0123 -0.2191 -1.0017
  166SOPE  H14Y18741   6.883   5.199   8.911  2.4654  0.8678  2.8748
  166SOPE  C31518742   6.855   5.393   8.824 -0.6328  0.3282 -0.0841
  166SOPE  H15X18743   6.965   5.406   8.820 -0.8141  2.1550 -0.0423
  166SOPE  H15Y18744   6.813   5.492   8.853  0.4581  0.6063  0.5796
  166SOPE  C31618745   6.799   5.354   8.684 -0.2162 -0.4370 -0.7383
  166SOPE  H16X18746   6.689   5.352   8.703 -0.0469 -0.2619  0.3345
  166SOPE  H16Y18747   6.818   5.249   8.655 -0.9994 -1.3689  1.8039
  166SOPE  C31718748   6.824   5.453   8.574 -0.0786  0.1708 -1.5725
  166SOPE  H17X18749   6.808   5.402   8.477 -0.6455 -0.3199 -1.2252
  166SOPE  H17Y18750   6.930   5.486   8.576 -0.0345  0.0350 -1.6877
  166SOPE  C31818751   6.732   5.581   8.579  0.3248  0.5394 -0.4663
  166SOPE  H18X18752   6.751   5.632   8.482  0.5025  2.2131  0.3980
  166SOPE  H18Y18753   6.760   5.659   8.653 -0.3592  1.6010 -1.2918
  166SOPE  H18Z18754   6.624   5.558   8.588  0.0644  1.6994 -0.4789
  167SOPE     N18755   0.726   3.596   6.237  0.3974 -0.0385  0.4712
  167SOPE   HN118756   0.661   3.519   6.262  0.0314 -1.1544 -3.2947
  167SOPE   HN218757   0.668   3.641   6.163 -0.0363 -2.0698 -0.4836
  167SOPE   HN318758   0.811   3.567   6.185  0.9922  1.3537  0.6115
  167SOPE   C1218759   0.744   3.710   6.342 -0.2475 -0.1046  0.7897
  167SOPE  H12A18760   0.797   3.663   6.428  1.4514 -1.1672 -0.7559
  167SOPE  H12B18761   0.644   3.748   6.370  0.4101  0.9803  1.7415
  167SOPE   C1118762   0.830   3.810   6.272  1.2660 -0.2909 -0.1302
  167SOPE  H11A18763   0.919   3.765   6.223  0.1927 -1.6776 -0.8482
  167SOPE  H11B18764   0.868   3.883   6.348  1.7260  1.4733 -1.9669
  167SOPE     P18765   0.723   4.032   6.187  0.2020 -0.2606 -0.1934
  167SOPE   O1318766   0.634   4.085   6.081 -0.2813 -0.1084  0.1214
  167SOPE   O1418767   0.856   4.093   6.217 -0.7678 -0.2942  0.3838
  167SOPE   O1218768   0.749   3.873   6.175  0.2365 -0.4446 -0.2571
  167SOPE   O1118769   0.649   4.063   6.322 -0.3608  0.5694  0.3676
  167SOPE    C118770   0.592   4.191   6.335  0.4232  0.3310 -0.7074
  167SOPE    HA18771   0.523   4.219   6.252 -2.1520 -1.7537  0.5891
  167SOPE    HB18772   0.673   4.266   6.348  1.2445 -1.0403  3.4139
  167SOPE    C218773   0.487   4.203   6.451  0.7778  0.0426  0.2099
  167SOPE    HS18774   0.454   4.309   6.449 -0.5507 -0.3378  1.0804
  167SOPE   O2118775   0.551   4.174   6.575 -0.0169 -0.7507  0.2357
  167SOPE   C2118776   0.621   4.267   6.630  0.4577  0.2482 -0.6328
  167SOPE   O2218777   0.634   4.387   6.596 -0.1732  0.6931 -0.2911
  167SOPE   C2218778   0.656   4.208   6.770  0.4004  0.0479 -0.4716
  167SOPE   H2R18779   0.747   4.255   6.814  0.8533 -1.4047  0.2061
  167SOPE   H2S18780   0.689   4.102   6.764  0.7738  0.2041 -1.4984
  167SOPE    C318781   0.367   4.111   6.432  0.2158  0.2363 -0.6998
  167SOPE    HX18782   0.416   4.012   6.424  0.2440  0.1954 -0.0877
  167SOPE    HY18783   0.304   4.131   6.343  1.1364  3.9232 -0.6920
  167SOPE   O3118784   0.285   4.119   6.562 -0.0025 -0.9056  0.4658
  167SOPE   C3118785   0.295   4.022   6.645 -1.1220  0.1091 -0.1965
  167SOPE   O3218786   0.367   3.922   6.623  0.5972 -0.4692 -0.0620
  167SOPE   C3218787   0.219   4.053   6.775  0.2950 -0.9943  0.0486
  167SOPE   H2X18788   0.111   4.047   6.752 -0.1128 -1.1214  1.8788
  167SOPE   H2Y18789   0.240   4.157   6.809  4.3847 -0.9456 -1.9803
  167SOPE   C2318790   0.543   4.230   6.870 -0.0580  0.6795  0.3173
  167SOPE   H3R18791   0.577   4.169   6.956  1.2257  0.3971 -0.3682
  167SOPE   H3S18792   0.447   4.193   6.828  0.4888  0.5148 -0.7994
  167SOPE   C2418793   0.541   4.377   6.914 -0.5951 -0.3166 -0.0315
  167SOPE   H4R18794   0.648   4.400   6.933 -1.3390  0.6327  3.9368
  167SOPE   H4S18795   0.488   4.442   6.842 -0.0099 -0.9466 -1.0635
  167SOPE   C2518796   0.446   4.394   7.038 -0.0447  0.2034 -0.1615
  167SOPE   H5R18797   0.429   4.499   7.070  1.7415  0.8738 -1.2899
  167SOPE   H5S18798   0.351   4.340   7.017  1.8407 -4.0749  1.2196
  167SOPE   C2618799   0.508   4.335   7.160 -0.3883 -0.2127 -0.0266
  167SOPE   H6R18800   0.536   4.229   7.137  1.1456 -0.0385  0.8620
  167SOPE   H6S18801   0.589   4.404   7.190 -1.7493  0.3392  2.6560
  167SOPE   C2718802   0.396   4.336   7.265  0.4951 -0.2180  0.4380
  167SOPE   H7R18803   0.361   4.441   7.274 -0.3713 -0.4010 -0.6962
  167SOPE   H7S18804   0.314   4.271   7.229 -1.7210  1.4966  2.0559
  167SOPE   C2818805   0.437   4.276   7.402  0.1165  0.1350  0.1250
  167SOPE   H8R18806   0.485   4.177   7.399 -1.2635 -0.5946  0.9388
  167SOPE   H8S18807   0.515   4.345   7.440  1.8484 -0.5392 -2.0178
  167SOPE   C2918808   0.324   4.262   7.512  0.0719 -0.6688  0.0828
  167SOPE   H9118809   0.229   4.314   7.496  0.1143  0.7098  3.5831
  167SOPE  C21018810   0.334   4.204   7.628  0.4436 -0.0356  0.3207
  167SOPE  H10118811   0.245   4.201   7.693  0.2191 -3.3379  0.0249
  167SOPE  C21118812   0.450   4.126   7.670 -1.0353 -1.0398  0.4550
  167SOPE  H11R18813   0.530   4.203   7.679  0.0824 -2.1975  0.7994
  167SOPE  H11S18814   0.476   4.045   7.598 -0.2079 -1.8565  1.6295
  167SOPE  C21218815   0.428   4.049   7.803 -0.0934  0.0700  0.4786
  167SOPE  H12R18816   0.515   3.982   7.812  0.1390  0.3458  0.3156
  167SOPE  H12S18817   0.338   3.984   7.795 -1.5622  1.8945  1.4180
  167SOPE  C21318818   0.417   4.134   7.929  0.1740 -0.1281  0.0643
  167SOPE  H13R18819   0.329   4.202   7.920  0.7700  0.6021 -0.3616
  167SOPE  H13S18820   0.511   4.187   7.954 -0.0850  1.2224 -1.6199
  167SOPE  C21418821   0.385   4.044   8.050 -0.4661 -0.3610  0.4633
  167SOPE  H14R18822   0.475   3.983   8.070  0.0761  0.3917  0.3599
  167SOPE  H14S18823   0.293   3.983   8.032 -1.3836  0.6571  1.5624
  167SOPE  C21518824   0.334   4.128   8.165  0.8238 -0.5262  1.1165
  167SOPE  H15R18825   0.266   4.209   8.129  0.7279 -1.3577 -0.7025
  167SOPE  H15S18826   0.425   4.177   8.206  0.5262  0.8253  0.2322
  167SOPE  C21618827   0.274   4.039   8.278  0.1045 -0.0096 -0.3461
  167SOPE  H16R18828   0.337   3.953   8.308 -0.1239 -0.7215 -1.7623
  167SOPE  H16S18829   0.177   3.995   8.243  0.0951  0.3520 -0.7867
  167SOPE  C21718830   0.256   4.130   8.399  0.3418 -0.4070 -0.0111
  167SOPE  H17R18831   0.190   4.211   8.361  0.0734 -1.9811 -3.1912
  167SOPE  H17S18832   0.357   4.171   8.422  0.4496 -0.0289 -1.0972
  167SOPE  C21818833   0.183   4.065   8.520 -0.5958 -0.5427  0.9166
  167SOPE  H18R18834   0.220   3.961   8.519  0.8175 -0.0687 -0.2711
  167SOPE  H18S18835   0.073   4.075   8.505 -0.2672  1.1904 -0.8245
  167SOPE  H18T18836   0.217   4.101   8.619  1.3187  0.5784 -0.0787
  167SOPE   C3318837   0.258   3.945   6.877 -0.4417  0.1055  0.4586
  167SOPE   H3X18838   0.364   3.962   6.907 -0.6576  2.0653  0.2593
  167SOPE   H3Y18839   0.253   3.839   6.845 -3.1685  0.8043 -1.8106
  167SOPE   C3418840   0.163   3.949   6.996 -0.4872  0.6731 -0.4389
  167SOPE   H4X18841   0.181   3.857   7.055 -1.0391 -0.5375 -2.0975
  167SOPE   H4Y18842   0.058   3.936   6.959 -0.6884 -0.8175  0.5707
  167SOPE   C3518843   0.181   4.070   7.086  0.1521 -0.0252  0.1773
  167SOPE   H5X18844   0.165   4.156   7.018 -0.5817 -0.5538 -0.3322
  167SOPE   H5Y18845   0.280   4.067   7.137 -0.7325 -0.1952  1.9436
  167SOPE   C3618846   0.079   4.084   7.196 -0.5472 -0.7794 -0.5466
  167SOPE   H6X18847  -0.017   4.101   7.143  0.5688  4.0563 -1.4863
  167SOPE   H6Y18848   0.100   4.187   7.233 -0.1657 -1.1453  0.2843
  167SOPE   C3718849   0.076   3.969   7.294 -0.4578  0.9169  0.2744
  167SOPE   H7X18850   0.177   3.925   7.304 -1.1729 -0.8207  0.2608
  167SOPE   H7Y18851   0.012   3.887   7.254  0.4246 -0.3186  1.3255
  167SOPE   C3818852   0.007   4.008   7.426  0.1887  0.6865 -0.3317
  167SOPE   H8X18853  -0.100   4.024   7.401 -0.2516 -0.7268  0.4856
  167SOPE   H8Y18854   0.049   4.108   7.449 -0.6886  0.8130  0.8183
  167SOPE   C3918855   0.044   3.917   7.552  0.2628  0.4142 -0.0018
  167SOPE   H9X18856   0.153   3.896   7.546 -0.1403 -1.7218 -0.6835
  167SOPE   H9Y18857  -0.014   3.822   7.548 -0.6793  1.0013 -0.8652
  167SOPE  C31018858   0.010   3.987   7.683  0.0405  0.6611  0.1219
  167SOPE  H10X18859  -0.099   4.012   7.686 -0.1571 -0.2398  1.2688
  167SOPE  H10Y18860   0.062   4.084   7.693 -0.2187  0.7949  0.1809
  167SOPE  C31118861   0.042   3.903   7.806  0.0150 -0.5672  0.6047
  167SOPE  H11X18862   0.149   3.914   7.834 -0.3095  1.8386  1.0889
  167SOPE  H11Y18863   0.023   3.799   7.771  1.6187  0.0942 -2.5512
  167SOPE  C31218864  -0.045   3.948   7.919 -0.5931 -0.3110  0.3852
  167SOPE  H12X18865  -0.039   3.871   7.999 -2.4118 -0.1371  0.7201
  167SOPE  H12Y18866  -0.148   3.952   7.878 -0.1184  1.4732 -0.7392
  167SOPE  C31318867  -0.027   4.094   7.976  0.0992  0.0941 -0.0716
  167SOPE  H13X18868   0.007   4.171   7.903 -0.7436  0.6382  0.0859
  167SOPE  H13Y18869   0.049   4.103   8.057 -0.8116 -0.8986  0.9334
  167SOPE  C31418870  -0.159   4.144   8.038 -0.3086 -0.2603  0.7151
  167SOPE  H14X18871  -0.240   4.108   7.971 -0.1082 -0.9492  0.8344
  167SOPE  H14Y18872  -0.160   4.254   8.029 -0.4867 -0.2576  0.7651
  167SOPE  C31518873  -0.183   4.097   8.180 -0.2125  0.2492 -0.0302
  167SOPE  H15X18874  -0.095   4.114   8.246  0.7443  4.2182 -1.9974
  167SOPE  H15Y18875  -0.206   3.989   8.182  1.3902 -0.1199  1.6567
  167SOPE  C31618876  -0.289   4.178   8.250  0.1794  0.7204  0.5817
  167SOPE  H16X18877  -0.376   4.184   8.181 -0.5684  0.8880  1.5137
  167SOPE  H16Y18878  -0.239   4.276   8.267  3.5596 -0.9028  0.9099
  167SOPE  C31718879  -0.330   4.111   8.384  0.0842  0.1532  0.1935
  167SOPE  H17X18880  -0.381   4.015   8.364 -1.7849  0.6197  2.3583
  167SOPE  H17Y18881  -0.414   4.173   8.421  0.6142  0.0585  1.6087
  167SOPE  C31818882  -0.218   4.086   8.487  0.4471 -0.1955 -0.5504
  167SOPE  H18X18883  -0.256   4.071   8.590  3.0168  2.1035  0.8960
  167SOPE  H18Y18884  -0.154   4.178   8.483 -0.5308  0.4685 -1.3284
  167SOPE  H18Z18885  -0.151   4.004   8.456  2.5273  0.8223  0.9303
  168SOPE     N18886   5.186   1.089   6.546 -0.2121  0.0739  0.6721
  168SOPE   HN118887   5.090   1.068   6.581 -0.9398 -0.3505 -1.4091
  168SOPE   HN218888   5.248   1.015   6.583  0.8612  0.6286  0.0177
  168SOPE   HN318889   5.199   1.185   6.583  0.6327  1.5619 -3.0170
  168SOPE   C1218890   5.198   1.086   6.394 -0.5570 -0.3870 -0.1602
  168SOPE  H12A18891   5.305   1.106   6.374 -0.5452  1.0849  1.1823
  168SOPE  H12B18892   5.145   1.179   6.362  0.0777  0.1536  0.3230
  168SOPE   C1118893   5.134   0.971   6.312 -0.1457 -0.0150  0.0645
  168SOPE  H11A18894   5.158   0.982   6.204  2.4839 -3.0457  0.1677
  168SOPE  H11B18895   5.025   0.977   6.333  0.0876 -0.7395  1.5935
  168SOPE     P18896   5.185   0.712   6.286  0.1968  0.1465  0.1340
  168SOPE   O1318897   5.308   0.641   6.323 -0.0424 -0.8307 -0.2497
  168SOPE   O1418898   5.164   0.731   6.141 -0.0045 -0.0378  0.5170
  168SOPE   O1218899   5.179   0.843   6.362  0.5191 -0.7756  0.8235
  168SOPE   O1118900   5.061   0.629   6.343  0.5391  0.2067  0.4156
  168SOPE    C118901   4.952   0.688   6.402  0.6187 -0.3417  0.1312
  168SOPE    HA18902   4.868   0.616   6.413  0.7565 -0.1925  2.8390
  168SOPE    HB18903   4.923   0.786   6.358  1.8599 -0.4356 -0.9401
  168SOPE    C218904   4.966   0.725   6.553  0.2573  1.0556  0.0863
  168SOPE    HS18905   5.048   0.801   6.553  0.0746  1.2600 -0.7902
  168SOPE   O2118906   5.012   0.606   6.627 -0.2696 -0.1676  0.1614
  168SOPE   C2118907   5.084   0.630   6.739  0.2579 -0.2250 -0.3277
  168SOPE   O2218908   5.114   0.734   6.787 -0.0332 -0.4594  0.1534
  168SOPE   C2218909   5.115   0.491   6.791  0.3272 -0.2972  0.1891
  168SOPE   H2R18910   5.189   0.444   6.723 -0.0703  0.5422 -0.8665
  168SOPE   H2S18911   5.022   0.430   6.785 -0.2892  0.4081  1.8537
  168SOPE    C318912   4.832   0.775   6.618  0.0989  0.4445 -0.0457
  168SOPE    HX18913   4.766   0.686   6.608 -0.5196  1.1409 -3.6836
  168SOPE    HY18914   4.796   0.861   6.557  3.1861  1.9547  0.0453
  168SOPE   O3118915   4.835   0.805   6.752 -0.4107 -0.1125 -0.2629
  168SOPE   C3118916   4.898   0.927   6.778 -0.0536 -1.1375  0.3079
  168SOPE   O3218917   4.949   0.996   6.691  0.5114  0.9091  0.1299
  168SOPE   C3218918   4.878   0.975   6.923  0.3192  0.1106 -0.4885
  168SOPE   H2X18919   4.771   0.951   6.942 -0.0377  1.7296 -0.2769
  168SOPE   H2Y18920   4.889   1.085   6.911  0.0950 -0.1482 -4.1455
  168SOPE   C2318921   5.174   0.481   6.937  0.0690 -0.6752  0.0242
  168SOPE   H3R18922   5.197   0.373   6.944  0.7440 -0.5320  0.1150
  168SOPE   H3S18923   5.108   0.511   7.022  2.3686  2.1751  0.9591
  168SOPE   C2418924   5.303   0.560   6.949 -0.3185  0.2061 -0.3810
  168SOPE   H4R18925   5.373   0.542   6.865 -0.3121  1.4836 -0.6582
  168SOPE   H4S18926   5.272   0.666   6.949 -0.3186  0.2386  1.1952
  168SOPE   C2518927   5.385   0.537   7.076  0.3722 -0.5550  0.9489
  168SOPE   H5R18928   5.432   0.436   7.073  0.5395 -0.4705 -2.2101
  168SOPE   H5S18929   5.471   0.606   7.086  2.0841 -1.9245 -2.7558
  168SOPE   C2618930   5.302   0.571   7.207 -0.1303 -0.2391  0.0086
  168SOPE   H6R18931   5.242   0.665   7.207 -0.5906 -0.5275  0.1716
  168SOPE   H6S18932   5.223   0.492   7.201 -0.3346  0.0510 -3.4079
  168SOPE   C2718933   5.382   0.571   7.334 -0.5295 -0.3047 -0.4357
  168SOPE   H7R18934   5.451   0.484   7.341  0.7782  0.7609  0.3648
  168SOPE   H7S18935   5.433   0.669   7.333  1.6406 -1.3412  0.7953
  168SOPE   C2818936   5.289   0.579   7.459 -0.6001 -0.4622 -0.0234
  168SOPE   H8R18937   5.254   0.684   7.446  2.8593  0.6551 -1.6936
  168SOPE   H8S18938   5.208   0.504   7.456 -2.3721  1.3632  0.2556
  168SOPE   C2918939   5.371   0.576   7.589  0.4872  0.1979  0.1735
  168SOPE   H9118940   5.476   0.550   7.572  0.0610 -1.5454  0.0062
  168SOPE  C21018941   5.326   0.589   7.709 -0.4880 -0.7004  0.3527
  168SOPE  H10118942   5.403   0.580   7.787  0.8612 -0.5330 -0.9047
  168SOPE  C21118943   5.187   0.629   7.747  0.0537 -0.4982 -0.2834
  168SOPE  H11R18944   5.113   0.639   7.665  0.6962 -1.1829 -0.9487
  168SOPE  H11S18945   5.185   0.739   7.765 -3.1103  0.1864 -3.6717
  168SOPE  C21218946   5.124   0.551   7.856 -0.7883  0.6740 -0.4459
  168SOPE  H12R18947   5.130   0.442   7.836  1.0325  0.1316  2.4575
  168SOPE  H12S18948   5.020   0.590   7.862 -0.3580  1.8763 -0.3659
  168SOPE  C21318949   5.203   0.560   7.989  0.3169  0.3483  0.0414
  168SOPE  H13R18950   5.207   0.665   8.026 -0.8067 -0.4935  2.7691
  168SOPE  H13S18951   5.309   0.536   7.969  0.0497 -0.7686 -0.0941
  168SOPE  C21418952   5.153   0.462   8.096  0.4092 -0.2825 -0.1116
  168SOPE  H14R18953   5.225   0.378   8.107  0.7517  0.1039  0.7032
  168SOPE  H14S18954   5.065   0.406   8.058  1.6143 -0.9119 -2.1288
  168SOPE  C21518955   5.141   0.536   8.233  0.2772  0.6484 -0.1040
  168SOPE  H15R18956   5.076   0.625   8.218 -1.0490 -0.1367  0.7459
  168SOPE  H15S18957   5.241   0.574   8.262 -0.1848  1.6409  0.2000
  168SOPE  C21618958   5.093   0.437   8.342  0.0575  0.6761  0.3943
  168SOPE  H16R18959   5.151   0.342   8.350  1.7599  1.7101  0.7385
  168SOPE  H16S18960   4.985   0.419   8.322 -0.4534  3.8339 -0.2295
  168SOPE  C21718961   5.113   0.492   8.488  0.1939 -0.6420  0.4596
  168SOPE  H17R18962   5.214   0.461   8.522  0.0676 -1.8271 -0.1715
  168SOPE  H17S18963   5.047   0.438   8.560  0.5048  1.0378  2.0621
  168SOPE  C21818964   5.093   0.642   8.513  0.3033  0.2157 -0.0068
  168SOPE  H18R18965   5.017   0.687   8.446  0.3377  1.9983  1.0668
  168SOPE  H18S18966   5.189   0.699   8.513  0.5520 -0.1976  0.7926
  168SOPE  H18T18967   5.049   0.655   8.614  0.5344  0.8229  0.0217
  168SOPE   C3318968   4.970   0.905   7.032  0.6562 -0.0254  0.5929
  168SOPE   H3X18969   5.077   0.914   7.004  0.4893 -0.9866 -0.4520
  168SOPE   H3Y18970   4.936   0.799   7.038 -2.4970  0.8850  1.0861
  168SOPE   C3418971   4.934   0.981   7.162  0.8802 -0.2565  0.1487
  168SOPE   H4X18972   4.825   0.989   7.181  0.6560  2.5177 -1.7378
  168SOPE   H4Y18973   4.954   1.089   7.148  1.2426 -0.4167 -0.6775
  168SOPE   C3518974   4.987   0.929   7.295 -0.2479  0.6761 -0.8893
  168SOPE   H5X18975   5.097   0.922   7.298 -0.2676 -1.2612 -2.3165
  168SOPE   H5Y18976   4.951   0.825   7.312  1.5754  0.3197  1.2702
  168SOPE   C3618977   4.937   1.011   7.415  0.4553  0.2118  0.7552
  168SOPE   H6X18978   4.827   1.022   7.409  0.3418 -0.1852  1.8090
  168SOPE   H6Y18979   4.989   1.110   7.416  0.4184  0.2642 -0.6862
  168SOPE   C3718980   4.972   0.936   7.542 -0.2647 -0.1700 -0.1540
  168SOPE   H7X18981   5.077   0.903   7.529 -0.1369  0.6494 -1.3933
  168SOPE   H7Y18982   4.921   0.842   7.573  0.8004 -0.3176  1.2338
  168SOPE   C3818983   4.976   1.032   7.667 -0.0244  0.9084 -0.5370
  168SOPE   H8X18984   4.876   1.074   7.691 -0.2215 -0.1227  0.5153
  168SOPE   H8Y18985   5.037   1.122   7.644  0.9643 -0.2644 -2.9502
  168SOPE   C3918986   5.033   0.971   7.797 -0.9148  0.0140  0.3793
  168SOPE   H9X18987   5.136   0.933   7.785 -1.1029 -0.7632  1.1534
  168SOPE   H9Y18988   4.978   0.880   7.827 -0.1460 -0.6148 -0.1071
  168SOPE  C31018989   5.034   1.070   7.912 -0.2556 -0.3210  0.1165
  168SOPE  H10X18990   4.928   1.104   7.918 -0.5332 -0.4790 -2.5440
  168SOPE  H10Y18991   5.102   1.155   7.891 -0.0575 -0.6330 -0.5193
  168SOPE  C31118992   5.080   1.013   8.045 -0.2977  0.1342 -0.3417
  168SOPE  H11X18993   5.172   0.952   8.027 -0.3178  0.1666 -0.5584
  168SOPE  H11Y18994   5.010   0.932   8.074 -0.7165  1.2692  2.1104
  168SOPE  C31218995   5.096   1.123   8.154  0.2111  0.2638  0.3416
  168SOPE  H12X18996   5.147   1.208   8.103 -0.1640 -0.4796 -1.3425
  168SOPE  H12Y18997   5.172   1.082   8.224  0.8527 -0.5510 -0.7999
  168SOPE  C31318998   4.967   1.171   8.228 -0.7253  0.2269  0.6290
  168SOPE  H13X18999   4.918   1.076   8.259  0.7405 -0.2522  1.5266
  168SOPE  H13Y19000   4.901   1.232   8.162  0.3368  0.4085 -0.2782
  168SOPE  C31419001   4.991   1.263   8.352  0.7451 -0.1398 -0.1732
  168SOPE  H14X19002   5.024   1.364   8.319 -1.8246  1.2776  1.2466
  168SOPE  H14Y19003   5.066   1.203   8.407 -0.7982 -0.3152  1.8833
  168SOPE  C31519004   4.870   1.270   8.450 -0.3773  0.4245 -0.2998
  168SOPE  H15X19005   4.838   1.166   8.474 -0.0161 -0.0021 -1.5728
  168SOPE  H15Y19006   4.782   1.313   8.398  0.6687 -0.6624 -3.2546
  168SOPE  C31619007   4.924   1.329   8.576  0.5213 -0.2251 -0.0796
  168SOPE  H16X19008   4.976   1.421   8.540  0.9686 -0.9620 -1.3912
  168SOPE  H16Y19009   5.001   1.262   8.620  0.9302 -0.7237 -1.4865
  168SOPE  C31719010   4.810   1.370   8.671 -0.1620 -0.1465 -0.6379
  168SOPE  H17X19011   4.758   1.454   8.621  2.4367  2.1805  0.3016
  168SOPE  H17Y19012   4.853   1.418   8.761 -0.4302 -0.3702 -0.3873
  168SOPE  C31819013   4.716   1.258   8.719 -0.0254 -0.8779 -0.1090
  168SOPE  H18X19014   4.652   1.300   8.799  1.0878  3.4502 -1.1889
  168SOPE  H18Y19015   4.773   1.168   8.752  1.7186 -0.0286 -0.6784
  168SOPE  H18Z19016   4.649   1.230   8.636 -1.1260  0.4771  0.2858
  169SOPE     N19017   0.716   2.987   6.314 -0.3624  0.4409 -0.5497
  169SOPE   HN119018   0.639   2.927   6.349  2.0061 -2.7392 -0.3653
  169SOPE   HN219019   0.685   3.031   6.225 -1.2416  0.9422 -0.0088
  169SOPE   HN319020   0.789   2.916   6.295  1.5301  1.7330  1.3857
  169SOPE   C1219021   0.761   3.094   6.409 -0.6992  0.4226 -0.6419
  169SOPE  H12A19022   0.871   3.106   6.410 -0.6330 -0.1829 -0.7566
  169SOPE  H12B19023   0.714   3.076   6.508 -0.2059  1.3233 -0.2261
  169SOPE   C1119024   0.704   3.229   6.372  0.2930 -0.2795  0.3381
  169SOPE  H11A19025   0.768   3.279   6.296 -1.4460  2.3141  0.4829
  169SOPE  H11B19026   0.696   3.295   6.460  0.6484 -0.2508  0.3516
  169SOPE     P19027   0.464   3.310   6.336 -0.1357 -0.1002  0.0220
  169SOPE   O1319028   0.342   3.253   6.269 -0.1596 -0.3444 -0.2322
  169SOPE   O1419029   0.513   3.448   6.294  0.3091  0.1640 -0.0041
  169SOPE   O1219030   0.579   3.201   6.312  0.0386  0.1818 -0.3585
  169SOPE   O1119031   0.452   3.315   6.495 -0.4053 -1.0256  0.0713
  169SOPE    C119032   0.430   3.205   6.578 -0.6787  0.6463  0.2416
  169SOPE    HA19033   0.522   3.143   6.582 -1.4606 -0.6006 -0.4564
  169SOPE    HB19034   0.344   3.138   6.554 -1.1093 -0.3558  3.8503
  169SOPE    C219035   0.435   3.253   6.727 -0.3633  0.1636 -0.4796
  169SOPE    HS19036   0.435   3.163   6.793 -1.3705  0.7510  0.3599
  169SOPE   O2119037   0.324   3.336   6.766 -0.1634  0.1725  0.7154
  169SOPE   C2119038   0.209   3.281   6.770  0.4083  0.4065  0.1391
  169SOPE   O2219039   0.182   3.160   6.755  0.0393 -0.5609  0.5962
  169SOPE   C2219040   0.105   3.388   6.808  0.2147  0.3523  0.1471
  169SOPE   H2R19041   0.009   3.368   6.756  0.4244 -0.3365  0.0116
  169SOPE   H2S19042   0.139   3.485   6.765  3.6351 -0.8989 -0.3133
  169SOPE    C319043   0.574   3.329   6.752  0.2410  0.4279 -0.6579
  169SOPE    HX19044   0.599   3.404   6.673  1.9132  1.8043  1.0881
  169SOPE    HY19045   0.648   3.247   6.753  0.5027  0.5946  2.2295
  169SOPE   O3119046   0.591   3.396   6.875  0.1245 -0.0074 -0.2978
  169SOPE   C3119047   0.553   3.528   6.874 -0.5154  0.0158  0.0925
  169SOPE   O3219048   0.494   3.580   6.780  0.0736  0.3715 -0.0769
  169SOPE   C3219049   0.609   3.602   6.997 -0.6739  0.0201  0.3131
  169SOPE   H2X19050   0.711   3.634   6.967 -1.1240  2.2271  0.9598
  169SOPE   H2Y19051   0.617   3.541   7.090  2.2880 -0.1097  0.0555
  169SOPE   C2319052   0.089   3.411   6.958  0.2593 -0.4766  0.3545
  169SOPE   H3R19053   0.069   3.309   6.997  1.2480 -0.7825  0.1095
  169SOPE   H3S19054   0.001   3.478   6.969  0.0952 -0.8182  1.1934
  169SOPE   C2419055   0.208   3.474   7.042  0.0787 -0.0860  0.5075
  169SOPE   H4R19056   0.303   3.428   7.007 -0.4845  0.3263 -1.6774
  169SOPE   H4S19057   0.204   3.581   7.013 -1.7632 -0.0205  0.8681
  169SOPE   C2519058   0.180   3.471   7.195 -0.2002 -0.1703 -0.3037
  169SOPE   H5R19059   0.168   3.366   7.227 -2.2428  0.0677 -0.1112
  169SOPE   H5S19060   0.275   3.506   7.240  0.3297  0.6251 -1.9681
  169SOPE   C2619061   0.060   3.558   7.228  0.3346 -0.0083  0.0432
  169SOPE   H6R19062   0.068   3.660   7.184  1.4231 -0.1837 -0.1936
  169SOPE   H6S19063  -0.037   3.524   7.186  0.0906  0.5941  0.1122
  169SOPE   C2719064   0.049   3.569   7.382 -0.4667  0.3728  0.6602
  169SOPE   H7R19065   0.146   3.609   7.417 -0.1892  0.2847  0.0021
  169SOPE   H7S19066  -0.028   3.648   7.399 -1.3002 -0.4233  0.6681
  169SOPE   C2819067   0.019   3.435   7.447  0.1374 -0.2503  0.0304
  169SOPE   H8R19068  -0.062   3.382   7.393 -0.0512 -0.0747  0.1418
  169SOPE   H8S19069   0.104   3.365   7.431  1.2095  1.0498 -0.1930
  169SOPE   C2919070  -0.021   3.443   7.586 -0.3743 -0.4742  0.0651
  169SOPE   H9119071  -0.129   3.451   7.603 -0.1351  2.3125  0.7180
  169SOPE  C21019072   0.066   3.445   7.693  0.2692  0.2445  0.1903
  169SOPE  H10119073   0.026   3.454   7.796 -0.3209 -2.5668  0.3028
  169SOPE  C21119074   0.217   3.433   7.693  0.1556 -0.2924 -0.1343
  169SOPE  H11R19075   0.263   3.402   7.597  2.7057 -1.0665  1.2621
  169SOPE  H11S19076   0.249   3.355   7.765  1.2151  1.0995  0.9745
  169SOPE  C21219077   0.270   3.569   7.747  0.3422  0.5759  0.0337
  169SOPE  H12R19078   0.228   3.646   7.679  0.1633  2.7443  2.4463
  169SOPE  H12S19079   0.379   3.571   7.729  0.5292  0.2499  1.0206
  169SOPE  C21319080   0.230   3.600   7.898 -0.1460 -0.4617  0.0989
  169SOPE  H13R19081   0.131   3.651   7.905  0.0560  0.4912 -2.7111
  169SOPE  H13S19082   0.307   3.672   7.934 -1.4446  1.2134 -0.3142
  169SOPE  C21419083   0.213   3.483   8.003  0.7919 -0.7742  0.0208
  169SOPE  H14R19084   0.318   3.454   8.022  1.1576 -1.2983 -2.3846
  169SOPE  H14S19085   0.153   3.402   7.955 -0.6435 -0.0662  0.5654
  169SOPE  C21519086   0.137   3.532   8.124 -0.8023 -0.9541  0.1317
  169SOPE  H15R19087   0.144   3.447   8.195 -0.4257 -0.6926  0.4091
  169SOPE  H15S19088   0.030   3.556   8.107 -0.3097 -0.3125 -2.3755
  169SOPE  C21619089   0.197   3.652   8.203 -0.1590 -0.4648  0.7841
  169SOPE  H16R19090   0.187   3.744   8.141 -2.5394 -2.0021 -1.2865
  169SOPE  H16S19091   0.303   3.620   8.214 -0.5521 -3.2054 -1.8961
  169SOPE  C21719092   0.130   3.683   8.340  0.5438  0.1677  0.1593
  169SOPE  H17R19093   0.188   3.752   8.406  0.2340 -0.4594  1.1146
  169SOPE  H17S19094   0.142   3.586   8.392 -3.3529  0.0031  1.0489
  169SOPE  C21819095  -0.014   3.736   8.332  0.1684 -0.3802  0.6975
  169SOPE  H18R19096  -0.050   3.775   8.430 -0.8823 -0.4909  0.3748
  169SOPE  H18S19097  -0.077   3.648   8.306  0.3592 -0.2586 -0.1918
  169SOPE  H18T19098  -0.014   3.818   8.258 -0.9320  0.0509  1.1460
  169SOPE   C3319099   0.527   3.725   7.026  0.1574 -0.5472 -0.4137
  169SOPE   H3X19100   0.429   3.706   7.075  0.6235 -1.7352  0.0950
  169SOPE   H3Y19101   0.511   3.774   6.928  2.0765 -0.2076 -0.5962
  169SOPE   C3419102   0.598   3.835   7.106 -0.0399 -0.7966  0.1126
  169SOPE   H4X19103   0.544   3.932   7.100  0.1461 -0.7044 -0.0724
  169SOPE   H4Y19104   0.696   3.852   7.057 -1.2404  0.4116 -1.9925
  169SOPE   C3519105   0.617   3.803   7.261  0.2645  0.0474  0.7973
  169SOPE   H5X19106   0.679   3.711   7.267 -0.8548 -0.7419  0.4615
  169SOPE   H5Y19107   0.514   3.784   7.298  0.3452 -1.0516  0.4909
  169SOPE   C3619108   0.668   3.931   7.330 -1.2232 -0.0400 -0.0322
  169SOPE   H6X19109   0.620   4.021   7.286 -0.4937 -0.8133 -2.6019
  169SOPE   H6Y19110   0.771   3.955   7.296  0.0338 -0.6745  3.0028
  169SOPE   C3719111   0.676   3.926   7.482 -0.4526  0.9437 -0.4580
  169SOPE   H7X19112   0.580   3.878   7.510  0.1536 -1.9670 -2.9341
  169SOPE   H7Y19113   0.677   4.030   7.523  0.9024  0.7569  0.0485
  169SOPE   C3819114   0.798   3.842   7.536  0.3253  0.2702  0.0230
  169SOPE   H8X19115   0.784   3.744   7.484 -1.2993  0.6496 -0.3150
  169SOPE   H8Y19116   0.895   3.889   7.510  1.9155 -1.8000  1.8680
  169SOPE   C3919117   0.787   3.815   7.686  0.1393 -0.4127  0.3866
  169SOPE   H9X19118   0.864   3.740   7.714  0.8527  0.2691  0.2956
  169SOPE   H9Y19119   0.692   3.768   7.721  1.0020 -2.0197  0.6517
  169SOPE  C31019120   0.810   3.945   7.764  0.0677  0.1354 -0.6617
  169SOPE  H10X19121   0.730   4.017   7.737  0.4931  0.0985 -2.1016
  169SOPE  H10Y19122   0.911   3.991   7.753  0.8390 -1.6802 -1.5873
  169SOPE  C31119123   0.812   3.927   7.916  0.3846  0.0232  0.7872
  169SOPE  H11X19124   0.879   3.844   7.946  0.0259 -0.3840  0.4731
  169SOPE  H11Y19125   0.707   3.901   7.941 -0.5630  0.9677 -1.8414
  169SOPE  C31219126   0.852   4.053   7.994  0.3704  0.1792  0.2401
  169SOPE  H12X19127   0.776   4.127   7.960  1.4010  0.4357 -1.6414
  169SOPE  H12Y19128   0.946   4.103   7.960  0.4087 -0.2461 -0.2911
  169SOPE  C31319129   0.842   4.030   8.143 -0.9770 -0.2057 -0.0652
  169SOPE  H13X19130   0.917   3.950   8.158 -1.6878 -0.7619  0.5758
  169SOPE  H13Y19131   0.748   4.003   8.195 -0.9455  2.1675  1.3658
  169SOPE  C31419132   0.893   4.153   8.219 -0.4600  1.0556 -0.0696
  169SOPE  H14X19133   0.820   4.234   8.198  0.1797  1.1027 -2.4517
  169SOPE  H14Y19134   0.987   4.189   8.172  1.7656 -1.3032  2.2376
  169SOPE  C31519135   0.926   4.138   8.363 -0.1354  0.2364  0.5663
  169SOPE  H15X19136   0.953   4.241   8.395 -1.7344  0.5941  0.8527
  169SOPE  H15Y19137   1.013   4.070   8.373  0.7088  1.4112  1.4448
  169SOPE  C31619138   0.810   4.080   8.448  0.2416 -0.1968 -0.3114
  169SOPE  H16X19139   0.785   3.978   8.412  1.3197 -1.3051  1.8456
  169SOPE  H16Y19140   0.724   4.149   8.431 -0.0829 -0.5608 -0.1563
  169SOPE  C31719141   0.852   4.055   8.595 -0.7711 -0.6004  0.3319
  169SOPE  H17X19142   0.928   3.974   8.601 -0.0440 -0.0125 -0.6490
  169SOPE  H17Y19143   0.758   4.020   8.642 -1.8972 -0.8147 -1.9178
  169SOPE  C31819144   0.913   4.178   8.675  0.2834  0.8448 -0.5542
  169SOPE  H18X19145   0.992   4.229   8.616  1.2143  1.2099  0.9560
  169SOPE  H18Y19146   0.961   4.130   8.763  0.9973 -0.2205 -1.4984
  169SOPE  H18Z19147   0.838   4.244   8.724  1.1616  1.0582  0.5222
  170SOPE     N19148   3.086   1.288   6.549 -0.4316  0.0089  0.6663
  170SOPE   HN119149   3.146   1.332   6.476  1.0764 -0.5256  1.5269
  170SOPE   HN219150   3.153   1.225   6.599  2.0892 -0.5585 -2.9874
  170SOPE   HN319151   3.009   1.229   6.512 -0.3496 -1.4376  2.6612
  170SOPE   C1219152   3.044   1.386   6.652  0.0083  0.1098 -0.8777
  170SOPE  H12A19153   3.134   1.436   6.693 -0.6362 -0.6100  1.5811
  170SOPE  H12B19154   3.007   1.318   6.732 -0.8761  1.9693  0.3571
  170SOPE   C1119155   2.929   1.477   6.605  0.2930  0.2221 -0.3622
  170SOPE  H11A19156   2.908   1.554   6.683 -0.6914 -0.3781 -0.0102
  170SOPE  H11B19157   2.840   1.412   6.594 -0.1524  0.6308  0.6494
  170SOPE     P19158   2.950   1.691   6.460 -0.0086 -0.1325  0.3555
  170SOPE   O1319159   2.805   1.725   6.471  0.1349 -0.2497  0.1382
  170SOPE   O1419160   3.015   1.737   6.330 -0.0004 -0.2550  0.0499
  170SOPE   O1219161   2.964   1.531   6.479  0.7216  0.3151 -0.2046
  170SOPE   O1119162   3.025   1.755   6.581 -0.0205  0.2456  0.3123
  170SOPE    C119163   3.030   1.891   6.614  0.1516 -0.3763  0.1016
  170SOPE    HA19164   2.933   1.922   6.658  0.2483 -0.9462  0.7307
  170SOPE    HB19165   3.061   1.959   6.531  1.8958 -0.5123  0.6163
  170SOPE    C219166   3.139   1.919   6.724  0.2848  0.3055 -0.4435
  170SOPE    HS19167   3.231   1.913   6.663  0.3709  0.5373 -0.3380
  170SOPE   O2119168   3.137   1.828   6.840 -0.6084  0.8371  0.1487
  170SOPE   C2119169   3.200   1.711   6.803 -0.5532 -0.6242 -0.2861
  170SOPE   O2219170   3.257   1.691   6.696  0.0635  0.7502  0.3084
  170SOPE   C2219171   3.196   1.616   6.922  0.4868  0.5855 -0.1849
  170SOPE   H2R19172   3.258   1.658   7.003  1.0630 -0.1504 -0.2412
  170SOPE   H2S19173   3.236   1.521   6.882  1.3871  0.7960  0.2039
  170SOPE    C319174   3.139   2.069   6.773 -0.6808 -0.2964 -0.1814
  170SOPE    HX19175   3.146   2.132   6.682 -0.1521 -0.6958 -0.4154
  170SOPE    HY19176   3.234   2.089   6.827 -0.7406  4.3456 -1.3530
  170SOPE   O3119177   3.025   2.100   6.848  0.3875 -0.3172 -0.5298
  170SOPE   C3119178   2.982   2.230   6.852 -0.6169  0.0972 -0.1828
  170SOPE   O3219179   3.010   2.309   6.762  0.2187 -0.2621  0.6710
  170SOPE   C3219180   2.889   2.258   6.972  0.8749 -0.8987  0.5585
  170SOPE   H2X19181   2.907   2.178   7.047  1.9930 -1.7343 -0.5486
  170SOPE   H2Y19182   2.786   2.273   6.933  1.6252 -0.6255 -1.4237
  170SOPE   C2319183   3.051   1.578   6.962  0.3843 -0.6286  0.3872
  170SOPE   H3R19184   2.982   1.555   6.878  1.8168 -1.3175 -0.6420
  170SOPE   H3S19185   3.015   1.672   7.010 -0.5541  0.5787 -2.4716
  170SOPE   C2419186   3.048   1.468   7.067 -0.2532  0.0569 -0.3535
  170SOPE   H4R19187   3.119   1.383   7.056  2.5408  1.8589  2.3147
  170SOPE   H4S19188   3.074   1.512   7.166  0.0742  0.4090 -0.5915
  170SOPE   C2519189   2.901   1.411   7.073 -0.5148 -0.1199 -0.4511
  170SOPE   H5R19190   2.837   1.500   7.057 -0.3051  0.6787  2.4697
  170SOPE   H5S19191   2.879   1.334   6.996 -2.0727 -0.2886  0.1320
  170SOPE   C2619192   2.860   1.366   7.215 -0.4223 -0.4874 -0.3629
  170SOPE   H6R19193   2.841   1.257   7.228  0.5228 -0.6509 -0.2754
  170SOPE   H6S19194   2.944   1.369   7.288 -1.3520 -0.0660  0.7237
  170SOPE   C2719195   2.739   1.445   7.261 -0.3037  0.7922 -0.0245
  170SOPE   H7R19196   2.767   1.539   7.313  1.3076  0.8618 -0.9591
  170SOPE   H7S19197   2.669   1.453   7.176  1.5221  1.2492 -1.5536
  170SOPE   C2819198   2.653   1.376   7.369  0.4762  0.1743 -0.1113
  170SOPE   H8R19199   2.556   1.430   7.377 -1.6113 -3.5019  1.5589
  170SOPE   H8S19200   2.627   1.282   7.316 -1.7509 -0.1445  1.4179
  170SOPE   C2919201   2.719   1.355   7.504 -0.5777  0.0545  0.3028
  170SOPE   H9119202   2.812   1.298   7.492 -0.2227  1.0801 -2.7345
  170SOPE  C21019203   2.693   1.420   7.620  0.0988 -0.2942 -0.1074
  170SOPE  H10119204   2.761   1.409   7.706  0.6302 -2.2646 -0.7310
  170SOPE  C21119205   2.590   1.531   7.646 -0.4141  0.3184 -0.1975
  170SOPE  H11R19206   2.502   1.520   7.579  1.3708  0.2390 -2.6594
  170SOPE  H11S19207   2.635   1.630   7.626 -1.9865  0.5148 -3.4171
  170SOPE  C21219208   2.514   1.531   7.790 -0.6353 -0.6015  0.2291
  170SOPE  H12R19209   2.425   1.464   7.781 -0.6161 -0.5948 -0.0205
  170SOPE  H12S19210   2.472   1.633   7.804  0.6770 -0.1536  1.0454
  170SOPE  C21319211   2.598   1.481   7.904 -0.3181 -0.4252  0.6678
  170SOPE  H13R19212   2.688   1.545   7.919 -1.7000  1.5013  1.0442
  170SOPE  H13S19213   2.629   1.377   7.880  0.8293  0.2106 -0.7052
  170SOPE  C21419214   2.526   1.480   8.046 -0.9145  0.1081  0.6022
  170SOPE  H14R19215   2.425   1.435   8.036 -0.4545 -0.6571 -0.8820
  170SOPE  H14S19216   2.515   1.586   8.078 -0.3253 -0.0209  1.2482
  170SOPE  C21519217   2.606   1.393   8.144  0.0096 -0.0407  0.0617
  170SOPE  H15R19218   2.703   1.441   8.167  0.0847 -0.1963  0.0708
  170SOPE  H15S19219   2.622   1.291   8.103 -2.1924 -1.5681  2.5826
  170SOPE  C21619220   2.532   1.377   8.278  0.6441  0.2579  0.1991
  170SOPE  H16R19221   2.437   1.323   8.260 -0.1628  1.1585  1.5732
  170SOPE  H16S19222   2.509   1.474   8.326 -0.7175  1.0455 -1.8999
  170SOPE  C21719223   2.624   1.303   8.377  0.0907  0.7332  0.2006
  170SOPE  H17R19224   2.702   1.236   8.334 -1.5976 -0.5361 -0.9928
  170SOPE  H17S19225   2.554   1.243   8.438 -0.1587  0.1894 -0.6050
  170SOPE  C21819226   2.683   1.407   8.475 -0.4666 -0.6507  0.0833
  170SOPE  H18R19227   2.749   1.356   8.549  0.7661 -2.1607 -1.9622
  170SOPE  H18S19228   2.600   1.463   8.525 -0.4530  1.6772 -2.3057
  170SOPE  H18T19229   2.753   1.475   8.422 -0.0262 -1.7179 -0.7321
  170SOPE   C3319230   2.915   2.397   7.039  0.3326 -0.2350  0.5708
  170SOPE   H3X19231   2.921   2.469   6.955  1.8810 -2.1810 -1.0781
  170SOPE   H3Y19232   3.018   2.394   7.080  1.0397  0.4230 -1.0676
  170SOPE   C3419233   2.814   2.418   7.161  1.0868 -1.0858 -0.1090
  170SOPE   H4X19234   2.822   2.337   7.236 -0.8257  0.7996  2.2756
  170SOPE   H4Y19235   2.712   2.423   7.118  0.6817 -0.0913  0.9174
  170SOPE   C3519236   2.859   2.532   7.248  0.1137  0.2720  0.1040
  170SOPE   H5X19237   2.871   2.619   7.180  1.4967  0.4337  0.5275
  170SOPE   H5Y19238   2.963   2.510   7.281  1.4285  3.0259 -1.8308
  170SOPE   C3619239   2.763   2.558   7.365  0.1456 -0.1482 -0.2379
  170SOPE   H6X19240   2.661   2.572   7.324 -0.4485 -0.8785  0.9474
  170SOPE   H6Y19241   2.778   2.661   7.402  0.9950  0.2517 -1.6146
  170SOPE   C3719242   2.775   2.466   7.483  0.2026 -0.1911 -0.3868
  170SOPE   H7X19243   2.876   2.474   7.529 -0.9619  2.0110  2.0869
  170SOPE   H7Y19244   2.754   2.361   7.455 -0.7374 -0.2418  0.4652
  170SOPE   C3819245   2.684   2.503   7.597  0.4894  0.4255 -0.0411
  170SOPE   H8X19246   2.583   2.481   7.559  1.1630 -0.0154 -1.6400
  170SOPE   H8Y19247   2.696   2.610   7.622  0.3466  0.2885  0.6334
  170SOPE   C3919248   2.699   2.424   7.736 -0.3614 -0.4220  0.2166
  170SOPE   H9X19249   2.725   2.318   7.719 -0.4225 -0.4476  0.2805
  170SOPE   H9Y19250   2.598   2.427   7.784 -1.1237 -2.1756 -1.1772
  170SOPE  C31019251   2.809   2.481   7.834  0.9639  0.2670  0.1619
  170SOPE  H10X19252   2.767   2.571   7.885  0.8213  0.3444 -0.0884
  170SOPE  H10Y19253   2.900   2.502   7.774  0.4518 -2.1741 -1.6225
  170SOPE  C31119254   2.843   2.378   7.941  0.1142 -0.1267 -0.5571
  170SOPE  H11X19255   2.866   2.278   7.898  0.7847 -0.2170 -0.0215
  170SOPE  H11Y19256   2.752   2.367   8.004  0.0426  1.1301 -0.4100
  170SOPE  C31219257   2.965   2.410   8.037  0.0575  0.0459 -0.3050
  170SOPE  H12X19258   2.945   2.493   8.108 -1.7176  0.1999 -0.9466
  170SOPE  H12Y19259   3.052   2.439   7.975 -0.9704  0.9922 -1.3348
  170SOPE  C31319260   3.017   2.287   8.120 -0.4102  0.3248  0.4170
  170SOPE  H13X19261   3.070   2.217   8.052 -0.6272 -0.2288  0.8031
  170SOPE  H13Y19262   2.926   2.234   8.156 -0.1941  0.8329  1.7855
  170SOPE  C31419263   3.102   2.340   8.234 -0.4884  0.8270 -0.0087
  170SOPE  H14X19264   3.049   2.411   8.301 -0.3044  1.7415 -0.8095
  170SOPE  H14Y19265   3.175   2.412   8.192 -0.3662  0.5372 -0.2993
  170SOPE  C31519266   3.183   2.229   8.312  0.0876  0.2457 -0.1323
  170SOPE  H15X19267   3.215   2.156   8.234  2.5086  0.1847  0.8227
  170SOPE  H15Y19268   3.113   2.171   8.375 -0.6742  0.0518 -1.1253
  170SOPE  C31619269   3.297   2.280   8.398 -0.2729 -0.2995 -0.6399
  170SOPE  H16X19270   3.251   2.345   8.475 -1.2613 -0.1753 -1.3187
  170SOPE  H16Y19271   3.362   2.331   8.323  0.7989 -0.1245  0.3632
  170SOPE  C31719272   3.371   2.178   8.477 -0.0111  1.0401  0.9521
  170SOPE  H17X19273   3.403   2.097   8.409 -0.8018 -0.1889  1.9999
  170SOPE  H17Y19274   3.310   2.130   8.556 -1.6980 -1.4925 -1.6559
  170SOPE  C31819275   3.491   2.237   8.541 -0.6936  0.5195  0.2534
  170SOPE  H18X19276   3.468   2.289   8.637 -0.4748  0.0322  0.5710
  170SOPE  H18Y19277   3.524   2.317   8.471  0.0140 -0.7522 -0.9267
  170SOPE  H18Z19278   3.574   2.165   8.557 -0.4861  0.7332  0.1543
  171SOPE     N19279   2.687   5.656   6.247 -0.3691  0.1164 -0.1305
  171SOPE   HN119280   2.640   5.608   6.168  1.3508  0.1320 -1.2382
  171SOPE   HN219281   2.677   5.592   6.328 -0.4092 -0.2722 -0.4358
  171SOPE   HN319282   2.637   5.742   6.275  1.3439  0.9381  0.5201
  171SOPE   C1219283   2.835   5.693   6.221  0.3955  0.1800  0.0353
  171SOPE  H12A19284   2.858   5.659   6.118  2.1043 -0.5786  0.6204
  171SOPE  H12B19285   2.900   5.627   6.282  1.8876  0.4999 -1.1335
  171SOPE   C1119286   2.866   5.839   6.246  0.0173  0.1982  0.1782
  171SOPE  H11A19287   2.959   5.858   6.189 -0.5445  0.8096 -0.5684
  171SOPE  H11B19288   2.893   5.849   6.353  0.8213  0.4295 -0.0433
  171SOPE     P19289   2.662   5.997   6.287 -0.1335  0.1263  0.1618
  171SOPE   O1319290   2.565   5.901   6.334  0.2443  0.1845  0.4682
  171SOPE   O1419291   2.606   6.100   6.198 -0.3756 -0.6256 -0.3067
  171SOPE   O1219292   2.767   5.921   6.202  0.3298 -0.4548  0.1285
  171SOPE   O1119293   2.746   6.063   6.405 -0.7893 -0.3192  0.1138
  171SOPE    C119294   2.743   6.018   6.541  1.0516 -0.3894 -0.0522
  171SOPE    HA19295   2.837   6.050   6.592  0.6050 -2.0631  1.9531
  171SOPE    HB19296   2.723   5.910   6.556 -1.9579 -0.0057 -0.6412
  171SOPE    C219297   2.619   6.084   6.619 -0.6553  0.0039 -0.4168
  171SOPE    HS19298   2.525   6.054   6.567 -0.5350 -0.7952 -0.1835
  171SOPE   O2119299   2.629   6.234   6.621 -0.2039 -0.0642 -0.5597
  171SOPE   C2119300   2.532   6.299   6.561  0.0404  0.4096 -0.5093
  171SOPE   O2219301   2.434   6.258   6.503  0.1653  0.9060 -0.0101
  171SOPE   C2219302   2.555   6.452   6.579 -0.3834 -0.5710 -0.5495
  171SOPE   H2R19303   2.550   6.495   6.476 -0.9910  1.4907  0.2876
  171SOPE   H2S19304   2.660   6.470   6.612 -1.2228  3.8574  0.2732
  171SOPE    C319305   2.622   6.050   6.768 -0.1684 -0.1321  0.0233
  171SOPE    HX19306   2.714   6.093   6.813  0.1488  1.0313 -1.6563
  171SOPE    HY19307   2.630   5.939   6.778 -0.3543 -0.2794 -1.2951
  171SOPE   O3119308   2.511   6.101   6.843 -0.0075 -0.1539  0.4290
  171SOPE   C3119309   2.402   6.040   6.826  0.4034  0.3129  0.2571
  171SOPE   O3219310   2.373   5.949   6.745  0.4712 -0.2199 -0.1071
  171SOPE   C3219311   2.290   6.110   6.908 -0.4554 -0.7301  0.3657
  171SOPE   H2X19312   2.192   6.068   6.876 -0.7703 -0.9435  1.5729
  171SOPE   H2Y19313   2.287   6.220   6.894 -1.3319 -0.7545  0.3254
  171SOPE   C2319314   2.449   6.535   6.665 -0.6523 -0.2727  0.0669
  171SOPE   H3R19315   2.352   6.516   6.615  0.2121  1.9160 -2.6953
  171SOPE   H3S19316   2.476   6.642   6.678  0.2541 -0.6188  1.2854
  171SOPE   C2419317   2.442   6.484   6.805 -0.3289  0.6356 -0.2119
  171SOPE   H4R19318   2.386   6.388   6.803 -1.9032  1.4693  1.2754
  171SOPE   H4S19319   2.546   6.456   6.834 -0.7616  0.6630  1.4756
  171SOPE   C2519320   2.390   6.576   6.920 -0.0667 -0.5224  0.3471
  171SOPE   H5R19321   2.453   6.667   6.923  1.1145 -1.1999 -1.8674
  171SOPE   H5S19322   2.288   6.607   6.890  0.4911 -2.6021 -4.6595
  171SOPE   C2619323   2.412   6.517   7.061  0.4877  0.0764 -0.0793
  171SOPE   H6R19324   2.360   6.419   7.061 -0.5090  0.5666 -1.5182
  171SOPE   H6S19325   2.523   6.510   7.070  0.2690 -1.5025  2.1431
  171SOPE   C2719326   2.361   6.601   7.168 -0.0381 -0.9746  0.0281
  171SOPE   H7R19327   2.424   6.692   7.174  0.0143 -1.0875  2.3928
  171SOPE   H7S19328   2.255   6.632   7.154  0.0391 -0.2422  0.9711
  171SOPE   C2819329   2.371   6.530   7.301 -0.1837  0.1013  0.3394
  171SOPE   H8R19330   2.311   6.436   7.305 -0.0188  0.0210  1.2453
  171SOPE   H8S19331   2.466   6.473   7.304  0.5315  1.3177  1.5599
  171SOPE   C2919332   2.351   6.618   7.420 -0.7262 -0.7363 -0.4348
  171SOPE   H9119333   2.290   6.708   7.400  0.4611  0.0348 -0.6706
  171SOPE  C21019334   2.388   6.596   7.549  0.1593 -0.5089 -0.7630
  171SOPE  H10119335   2.371   6.676   7.623 -0.4730 -1.6722  0.3845
  171SOPE  C21119336   2.445   6.471   7.610  0.1645 -1.0087 -0.9513
  171SOPE  H11R19337   2.491   6.417   7.524 -0.2862 -1.2477 -1.0475
  171SOPE  H11S19338   2.358   6.407   7.637  0.0672 -1.4304 -2.1909
  171SOPE  C21219339   2.555   6.484   7.718 -0.2502  0.0221 -0.8615
  171SOPE  H12R19340   2.515   6.542   7.804  0.4392  1.2053 -1.3169
  171SOPE  H12S19341   2.647   6.539   7.689  1.1757 -0.8680  1.6789
  171SOPE  C21319342   2.602   6.349   7.777 -0.1531 -0.8141  0.3739
  171SOPE  H13R19343   2.660   6.292   7.702 -1.8782 -1.2534 -0.6880
  171SOPE  H13S19344   2.510   6.289   7.794 -1.9036  1.5643 -0.1446
  171SOPE  C21419345   2.682   6.367   7.907 -0.7064  0.9341  0.3167
  171SOPE  H14R19346   2.635   6.451   7.964  0.0568 -0.4770  3.2438
  171SOPE  H14S19347   2.787   6.389   7.879 -1.0683  0.2747 -1.6988
  171SOPE  C21519348   2.678   6.232   7.986 -0.2318 -0.0834  0.1153
  171SOPE  H15R19349   2.575   6.209   8.022  0.7033 -0.5654  2.7039
  171SOPE  H15S19350   2.732   6.234   8.083 -1.4503 -1.6936  0.8705
  171SOPE  C21619351   2.731   6.115   7.907  0.3576 -1.0749 -0.1647
  171SOPE  H16R19352   2.835   6.137   7.875  0.3820 -0.9535 -0.0014
  171SOPE  H16S19353   2.672   6.085   7.818 -0.3234 -0.3035  0.0233
  171SOPE  C21719354   2.753   5.994   8.002  0.2493 -0.1016  0.3890
  171SOPE  H17R19355   2.664   5.963   8.060 -0.0830  1.1555  0.5855
  171SOPE  H17S19356   2.828   6.029   8.077 -0.8256  2.5156  0.3421
  171SOPE  C21819357   2.810   5.875   7.923  0.0020 -0.4559  0.1176
  171SOPE  H18R19358   2.870   5.810   7.991  2.8820  1.8920  0.0286
  171SOPE  H18S19359   2.874   5.908   7.838 -0.8761  0.3422 -0.2465
  171SOPE  H18T19360   2.727   5.816   7.879  0.5019 -0.3990 -0.9345
  171SOPE   C3319361   2.298   6.094   7.057 -0.2383 -0.4953 -0.3499
  171SOPE   H3X19362   2.387   6.152   7.090 -0.1189 -1.6008  1.4489
  171SOPE   H3Y19363   2.317   5.991   7.094  0.9654  0.7260  2.7588
  171SOPE   C3419364   2.172   6.146   7.128  0.5471  1.1366 -0.5662
  171SOPE   H4X19365   2.080   6.091   7.096  2.1942 -1.4099 -1.1789
  171SOPE   H4Y19366   2.163   6.256   7.126 -1.5548  1.0435  0.2817
  171SOPE   C3519367   2.189   6.113   7.279 -0.2595  0.9569  0.0522
  171SOPE   H5X19368   2.287   6.147   7.319  0.1910  0.4912 -0.6416
  171SOPE   H5Y19369   2.184   6.002   7.288 -3.0203  0.7859 -2.0802
  171SOPE   C3619370   2.086   6.177   7.367 -0.1493  0.2239  1.0544
  171SOPE   H6X19371   1.987   6.130   7.348 -1.1395  1.9868  1.6706
  171SOPE   H6Y19372   2.069   6.286   7.354 -0.2445  0.4458  2.7848
  171SOPE   C3719373   2.115   6.163   7.522 -0.3099  0.3095 -0.3825
  171SOPE   H7X19374   2.216   6.208   7.528  0.5432 -1.5125 -0.2791
  171SOPE   H7Y19375   2.108   6.053   7.542 -0.8316  0.5888  1.1246
  171SOPE   C3819376   2.016   6.240   7.610 -0.6188 -0.4509 -0.2920
  171SOPE   H8X19377   1.919   6.223   7.557 -0.7084 -0.6341 -0.0680
  171SOPE   H8Y19378   2.038   6.349   7.619  0.9427 -0.8974  2.4281
  171SOPE   C3919379   2.019   6.185   7.751 -0.5180 -0.4074  0.5228
  171SOPE   H9X19380   2.123   6.208   7.784  0.3820  0.3054 -2.4870
  171SOPE   H9Y19381   2.011   6.074   7.748  1.8271 -0.6204 -0.4944
  171SOPE  C31019382   1.918   6.250   7.845  0.0438 -0.5547 -0.3000
  171SOPE  H10X19383   1.817   6.236   7.801 -0.1075 -0.3767 -0.0127
  171SOPE  H10Y19384   1.930   6.361   7.846  0.5653 -0.6095  0.5160
  171SOPE  C31119385   1.935   6.208   7.991  0.2298  0.1557 -0.0676
  171SOPE  H11X19386   2.036   6.242   8.021 -0.1849  2.5111 -1.0905
  171SOPE  H11Y19387   1.924   6.098   8.000  0.3700  0.2819  2.1580
  171SOPE  C31219388   1.836   6.276   8.092 -0.0917 -0.2800  0.2060
  171SOPE  H12X19389   1.733   6.255   8.054  0.2649 -2.2531  0.1921
  171SOPE  H12Y19390   1.852   6.385   8.080  3.6734 -0.3320  3.0809
  171SOPE  C31319391   1.859   6.224   8.231 -0.0522 -0.6732  0.0712
  171SOPE  H13X19392   1.962   6.239   8.269  0.0961  0.0046 -0.5690
  171SOPE  H13Y19393   1.826   6.118   8.234 -0.6964 -0.5036 -0.6897
  171SOPE  C31419394   1.768   6.285   8.338  0.0100 -0.1077 -0.2160
  171SOPE  H14X19395   1.661   6.285   8.308 -0.9700  1.0749  2.8422
  171SOPE  H14Y19396   1.792   6.394   8.343  2.5788 -0.6860  1.6992
  171SOPE  C31519397   1.792   6.214   8.470 -0.0376  0.0003  0.5747
  171SOPE  H15X19398   1.902   6.201   8.483  0.0751 -0.3328 -0.5638
  171SOPE  H15Y19399   1.753   6.110   8.469  0.4376 -0.1955 -0.8715
  171SOPE  C31619400   1.746   6.286   8.593 -0.9673  0.2858  0.5742
  171SOPE  H16X19401   1.772   6.394   8.586 -1.5745  0.4210  0.3000
  171SOPE  H16Y19402   1.810   6.236   8.669  2.4979  1.7874 -1.1371
  171SOPE  C31719403   1.595   6.274   8.625  0.1667 -0.3093 -0.2762
  171SOPE  H17X19404   1.532   6.298   8.536  0.9909  0.3131 -0.7048
  171SOPE  H17Y19405   1.579   6.349   8.705  1.4372 -1.1034  0.7638
  171SOPE  C31819406   1.549   6.130   8.663  0.0916 -0.5133  0.0250
  171SOPE  H18X19407   1.570   6.067   8.574 -0.5325 -1.1814  0.3413
  171SOPE  H18Y19408   1.444   6.136   8.698  0.0494  2.8980 -0.3358
  171SOPE  H18Z19409   1.613   6.080   8.740 -0.8959 -3.0150 -0.7077
  172SOPE     N19410   4.105   5.673   5.891 -0.4993  0.3803 -0.1639
  172SOPE   HN119411   4.056   5.638   5.807  0.6263  1.9641 -1.5582
  172SOPE   HN219412   4.084   5.775   5.903 -1.5977  0.5123 -2.6580
  172SOPE   HN319413   4.207   5.658   5.879  0.1791  2.7477  1.6045
  172SOPE   C1219414   4.068   5.597   6.010  0.1833  0.4710 -0.1521
  172SOPE  H12A19415   4.071   5.487   5.991  1.6368  0.0213  2.2954
  172SOPE  H12B19416   3.959   5.614   6.021 -0.0373  0.6038 -2.2267
  172SOPE   C1119417   4.144   5.622   6.138  0.7140  0.5640 -0.7464
  172SOPE  H11A19418   4.114   5.555   6.222  0.3436  0.8150 -0.6803
  172SOPE  H11B19419   4.113   5.719   6.182  1.4130 -0.4296  2.2173
  172SOPE     P19420   4.379   5.692   6.209  0.0596 -0.1869  0.6487
  172SOPE   O1319421   4.335   5.835   6.210 -0.2471 -0.1892 -0.5885
  172SOPE   O1419422   4.523   5.667   6.174 -0.1593 -0.0824  0.3506
  172SOPE   O1219423   4.289   5.620   6.110  0.0802 -0.4594  0.6501
  172SOPE   O1119424   4.345   5.617   6.347  0.0690  0.2593 -0.4128
  172SOPE    C119425   4.330   5.700   6.468 -0.0484  0.3371  0.0699
  172SOPE    HA19426   4.289   5.637   6.548 -1.5959 -0.7206 -1.4926
  172SOPE    HB19427   4.263   5.788   6.458  2.3248  2.0154 -2.8630
  172SOPE    C219428   4.463   5.760   6.521 -0.5371  0.6669 -1.0160
  172SOPE    HS19429   4.528   5.790   6.436  0.1059  0.8903 -0.4653
  172SOPE   O2119430   4.540   5.659   6.597  0.3006 -0.1276 -0.0143
  172SOPE   C2119431   4.663   5.684   6.629  0.2709 -0.0363  0.0077
  172SOPE   O2219432   4.728   5.786   6.615  0.3495  0.4905 -0.3545
  172SOPE   C2219433   4.722   5.562   6.707 -0.4150  0.3254 -0.3708
  172SOPE   H2R19434   4.728   5.475   6.638  1.4137 -0.1567  0.3666
  172SOPE   H2S19435   4.662   5.530   6.794 -1.1222 -0.7456 -1.2217
  172SOPE    C319436   4.451   5.877   6.615 -0.1091  0.5564  0.1273
  172SOPE    HX19437   4.381   5.954   6.575  0.4429  0.7857 -0.4297
  172SOPE    HY19438   4.548   5.932   6.613 -0.2129  0.8724  2.0545
  172SOPE   O3119439   4.416   5.841   6.751 -0.1172  0.3929  0.5871
  172SOPE   C3119440   4.478   5.907   6.849 -0.3888 -0.1752 -0.9223
  172SOPE   O3219441   4.554   6.001   6.829 -0.4214 -0.0376 -0.5841
  172SOPE   C3219442   4.459   5.824   6.983  0.6033 -0.9513  0.4643
  172SOPE   H2X19443   4.440   5.718   6.952  0.0305 -0.9369  0.7496
  172SOPE   H2Y19444   4.367   5.867   7.028  1.6310  0.3679  1.3756
  172SOPE   C2319445   4.861   5.589   6.779 -0.4977 -0.6680  0.4519
  172SOPE   H3R19446   4.838   5.648   6.870 -2.7670  1.8859 -1.5872
  172SOPE   H3S19447   4.927   5.658   6.721 -0.9050  0.1963  1.0022
  172SOPE   C2419448   4.933   5.453   6.810 -0.0879 -0.0283  0.4028
  172SOPE   H4R19449   4.856   5.375   6.832 -0.7524 -0.4587 -2.8598
  172SOPE   H4S19450   5.003   5.430   6.726  2.9066  2.1221  2.1225
  172SOPE   C2519451   5.033   5.467   6.934 -0.6084 -0.3345 -0.3262
  172SOPE   H5R19452   5.100   5.379   6.946 -2.4186 -1.4727  2.2666
  172SOPE   H5S19453   5.090   5.560   6.913  1.4781 -0.8391  2.5567
  172SOPE   C2619454   4.972   5.498   7.078  0.0705  0.3763  0.3833
  172SOPE   H6R19455   5.067   5.511   7.135 -0.1933  1.4285  0.6081
  172SOPE   H6S19456   4.904   5.586   7.079 -2.6644 -1.5651 -1.2268
  172SOPE   C2719457   4.909   5.381   7.151  0.0681 -0.0738 -0.2729
  172SOPE   H7R19458   4.840   5.334   7.078 -0.0576  0.8203 -0.7352
  172SOPE   H7S19459   4.987   5.302   7.151 -0.7628 -0.9151 -0.0968
  172SOPE   C2819460   4.850   5.416   7.291 -0.8493 -0.5390 -0.1466
  172SOPE   H8R19461   4.936   5.450   7.353 -1.3133  0.1059  0.1523
  172SOPE   H8S19462   4.785   5.505   7.281  1.5175  1.4524  1.0247
  172SOPE   C2919463   4.779   5.294   7.347  0.3749 -0.6613  0.8797
  172SOPE   H9119464   4.703   5.239   7.289  0.9223 -1.3054  0.7671
  172SOPE  C21019465   4.793   5.253   7.468  0.0265  0.6000  0.5147
  172SOPE  H10119466   4.742   5.160   7.497 -3.0643  2.2825  0.9222
  172SOPE  C21119467   4.885   5.307   7.576 -0.3799  0.1194 -0.4515
  172SOPE  H11R19468   4.866   5.415   7.594  0.6880  0.1709  0.4609
  172SOPE  H11S19469   4.992   5.293   7.550 -0.2959  1.7260 -1.0952
  172SOPE  C21219470   4.856   5.242   7.713  0.0342  0.7501  0.9845
  172SOPE  H12R19471   4.943   5.221   7.778  0.9663  0.5524 -0.2966
  172SOPE  H12S19472   4.813   5.140   7.702  0.6611  0.3985  1.6988
  172SOPE  C21319473   4.753   5.322   7.789 -0.2904  0.8151  0.1771
  172SOPE  H13R19474   4.657   5.338   7.737 -0.8118 -2.2861 -0.0167
  172SOPE  H13S19475   4.793   5.423   7.812 -0.9515  1.4337 -1.2583
  172SOPE  C21419476   4.712   5.261   7.926  0.1404 -0.0412  0.1796
  172SOPE  H14R19477   4.696   5.151   7.919  1.2621 -0.2355  0.3353
  172SOPE  H14S19478   4.614   5.298   7.961  1.1750  1.9725  1.0932
  172SOPE  C21519479   4.816   5.292   8.035  0.0142  0.8226 -0.3304
  172SOPE  H15R19480   4.818   5.401   8.058  0.6261  0.5290  1.1070
  172SOPE  H15S19481   4.916   5.258   8.001 -0.8447 -0.1495 -2.0162
  172SOPE  C21619482   4.795   5.226   8.175  0.1473 -0.1631 -0.0635
  172SOPE  H16R19483   4.778   5.117   8.161  2.5598 -0.7999  1.3659
  172SOPE  H16S19484   4.699   5.255   8.223  1.1734  0.4565  1.7170
  172SOPE  C21719485   4.921   5.242   8.266 -0.4251 -0.1149 -0.3212
  172SOPE  H17R19486   4.945   5.349   8.250 -0.0069  0.4127  3.0960
  172SOPE  H17S19487   5.001   5.173   8.231 -0.3611  0.3062 -1.0125
  172SOPE  C21819488   4.894   5.214   8.414  0.4241  0.0225 -0.2174
  172SOPE  H18R19489   4.790   5.230   8.447  0.1485 -1.8227 -0.0968
  172SOPE  H18S19490   4.955   5.282   8.478  1.3620 -1.0916  0.1149
  172SOPE  H18T19491   4.917   5.109   8.442  1.3217  0.3032  0.1425
  172SOPE   C3319492   4.572   5.831   7.081 -0.2154  0.1423  0.1916
  172SOPE   H3X19493   4.587   5.935   7.119  2.5091  0.1653 -0.6801
  172SOPE   H3Y19494   4.665   5.810   7.024  0.0483 -2.1065  1.3454
  172SOPE   C3419495   4.566   5.747   7.203  0.0506  0.1763  0.0802
  172SOPE   H4X19496   4.657   5.687   7.221 -0.8456 -1.7677 -1.4303
  172SOPE   H4Y19497   4.491   5.666   7.190  0.0099 -0.2069  2.3392
  172SOPE   C3519498   4.531   5.830   7.331 -0.7337  0.3645  0.3505
  172SOPE   H5X19499   4.428   5.870   7.316 -0.3900  0.7873 -1.0073
  172SOPE   H5Y19500   4.600   5.918   7.337 -1.3020  0.7184  3.6763
  172SOPE   C3619501   4.552   5.751   7.462 -0.1670  0.3799 -0.0183
  172SOPE   H6X19502   4.661   5.730   7.473 -0.3699 -0.1489  1.1043
  172SOPE   H6Y19503   4.499   5.653   7.468  3.7216 -1.9835 -0.2200
  172SOPE   C3719504   4.499   5.828   7.582 -0.2934  0.9025  0.1992
  172SOPE   H7X19505   4.396   5.862   7.560 -0.4003 -0.4093 -1.5679
  172SOPE   H7Y19506   4.556   5.923   7.591  0.1464  0.6740 -0.1415
  172SOPE   C3819507   4.487   5.750   7.715 -0.3806 -0.4670  0.7593
  172SOPE   H8X19508   4.418   5.666   7.691  1.5888 -1.5265 -1.6351
  172SOPE   H8Y19509   4.439   5.820   7.786 -1.6269 -0.8508  0.3336
  172SOPE   C3919510   4.622   5.701   7.770 -0.2874  0.0152  0.6112
  172SOPE   H9X19511   4.682   5.792   7.790  0.0335  0.1754 -0.9515
  172SOPE   H9Y19512   4.682   5.640   7.699  0.8211  1.2015  0.5015
  172SOPE  C31019513   4.607   5.617   7.892 -0.0074 -0.6204  0.2393
  172SOPE  H10X19514   4.705   5.575   7.923  0.6023  1.6237  1.5575
  172SOPE  H10Y19515   4.544   5.529   7.865 -1.2049  0.5446 -0.9073
  172SOPE  C31119516   4.547   5.685   8.018 -0.7858  0.4861 -0.5736
  172SOPE  H11X19517   4.452   5.741   8.009 -1.9227 -1.2236  0.2398
  172SOPE  H11Y19518   4.620   5.766   8.041 -0.1305  0.2958 -1.9072
  172SOPE  C31219519   4.532   5.587   8.137  0.0176 -0.4532 -0.2850
  172SOPE  H12X19520   4.619   5.520   8.131  1.4584  1.4619 -2.4141
  172SOPE  H12Y19521   4.439   5.527   8.131 -1.5315  1.7015  0.5883
  172SOPE  C31319522   4.527   5.659   8.267 -0.1860 -0.1407  0.1085
  172SOPE  H13X19523   4.433   5.718   8.268 -0.5207 -0.6708  0.5121
  172SOPE  H13Y19524   4.613   5.730   8.266 -1.0503  0.9583  0.9879
  172SOPE  C31419525   4.533   5.583   8.398 -0.6893  0.8096 -0.0536
  172SOPE  H14X19526   4.640   5.568   8.424 -0.6066  2.4260  0.7107
  172SOPE  H14Y19527   4.474   5.491   8.379 -1.6010  1.5296 -0.8343
  172SOPE  C31519528   4.478   5.646   8.525 -0.5545  0.2224  0.1678
  172SOPE  H15X19529   4.370   5.621   8.522 -0.5779  0.2325  0.7913
  172SOPE  H15Y19530   4.495   5.756   8.529 -1.2424  0.4126 -1.6516
  172SOPE  C31619531   4.551   5.577   8.647 -1.0660  0.6129  0.1988
  172SOPE  H16X19532   4.656   5.616   8.646 -1.5620  2.1069 -2.2390
  172SOPE  H16Y19533   4.548   5.470   8.617 -2.6647  0.5757  0.4189
  172SOPE  C31719534   4.489   5.589   8.777 -0.1614  0.1988 -0.0084
  172SOPE  H17X19535   4.469   5.698   8.787 -0.8894  0.1219 -0.5980
  172SOPE  H17Y19536   4.560   5.559   8.857 -2.5989  0.2774  2.3361
  172SOPE  C31819537   4.351   5.523   8.798 -0.9668  0.2254 -0.2465
  172SOPE  H18X19538   4.353   5.427   8.853  1.8116  0.5378  0.3450
  172SOPE  H18Y19539   4.298   5.514   8.701  0.4276  2.0006 -1.2394
  172SOPE  H18Z19540   4.290   5.590   8.862 -0.9374 -0.1573  0.1825
  173SAPI   C1219541   1.700   4.799  10.747 -0.1477  0.0329  0.6557
  173SAPI    H219542   1.690   4.775  10.639  3.7969  2.0403 -0.3454
  173SAPI    O219543   1.755   4.691  10.820  0.5565 -0.2550 -0.5298
  173SAPI   HO219544   1.712   4.606  10.805 -0.2160  0.3516 -1.9302
  173SAPI   C1319545   1.798   4.917  10.747  0.6807  0.2047 -0.1191
  173SAPI    H319546   1.747   4.997  10.689 -2.5363  0.1290  2.3697
  173SAPI    O319547   1.932   4.902  10.686 -0.3914  0.0288 -0.2903
  173SAPI   HO319548   1.995   4.855  10.741 -1.3935  0.1418  0.9788
  173SAPI   C1419549   1.813   4.960  10.893  0.7692  0.0434  0.6390
  173SAPI    H419550   1.858   4.879  10.955 -0.4950 -0.8864  0.3837
  173SAPI    O419551   1.912   5.062  10.914  0.0991 -0.6799  0.0933
  173SAPI   HO419552   1.931   5.065  11.008  0.2584  0.7588  0.0424
  173SAPI   C1519553   1.677   5.001  10.954 -0.0651 -0.5034  0.8970
  173SAPI    H519554   1.645   5.081  10.885  1.9681 -1.1381 -0.9004
  173SAPI    O519555   1.691   5.051  11.084  0.2067  0.1411 -0.1442
  173SAPI   HO519556   1.628   5.016  11.148  2.0921 -0.3969  1.5201
  173SAPI   C1619557   1.584   4.882  10.947 -0.3650 -0.7361  0.9594
  173SAPI    H619558   1.632   4.793  10.993  1.8840  0.0313  0.1893
  173SAPI    O619559   1.459   4.905  10.999  0.3946  0.2285 -0.6646
  173SAPI   HO619560   1.399   4.897  10.925  0.6212 -1.1338 -0.7172
  173SAPI   C1119561   1.567   4.842  10.802  0.3192  0.6042  0.3649
  173SAPI    H119562   1.539   4.929  10.738  1.0206  0.4556 -0.1515
  173SAPI     P19563   1.316   4.756  10.740 -0.2614  0.3205 -0.1618
  173SAPI   O1319564   1.263   4.883  10.799 -0.1181  0.6852  0.7339
  173SAPI   O1419565   1.245   4.631  10.761  0.4635  0.0633  0.2003
  173SAPI   O1219566   1.470   4.733  10.785  0.1930 -0.2570  0.1384
  173SAPI   O1119567   1.335   4.775  10.587  0.0601  0.0142 -0.2153
  173SAPI    C119568   1.255   4.859  10.505 -0.2213  0.5428  0.2203
  173SAPI    HA19569   1.150   4.848  10.541  0.3476 -0.6096  1.6138
  173SAPI    HB19570   1.279   4.968  10.501 -1.9270  0.9165 -1.4053
  173SAPI    C219571   1.246   4.814  10.362 -0.4579 -0.4184 -1.0015
  173SAPI    HS19572   1.203   4.712  10.368 -2.7444  0.5869  1.5965
  173SAPI   O2119573   1.378   4.812  10.302 -0.5350 -0.5576  0.2169
  173SAPI   C2119574   1.394   4.712  10.214 -0.9303  0.2105  0.3561
  173SAPI   O2219575   1.313   4.621  10.198 -0.0816 -0.2164 -0.1562
  173SAPI   C2219576   1.523   4.720  10.129  0.2260 -0.7224  0.4507
  173SAPI   H2R19577   1.583   4.791  10.189 -1.2479  1.0301 -0.0725
  173SAPI   H2S19578   1.578   4.624  10.114 -0.9939 -1.0704 -2.5603
  173SAPI    C319579   1.150   4.896  10.274  0.2229 -0.0901 -0.5822
  173SAPI    HX19580   1.190   4.999  10.264  0.8284 -0.3512 -0.9307
  173SAPI    HY19581   1.054   4.912  10.326 -0.1062  0.4545 -1.3250
  173SAPI   O3119582   1.139   4.841  10.145 -0.2406 -0.1434 -0.0147
  173SAPI   C3119583   1.044   4.747  10.125  0.0927  0.6977  0.0139
  173SAPI   O3219584   0.955   4.724  10.203  0.0383 -0.2388 -0.2250
  173SAPI   C3219585   1.055   4.692   9.983 -0.0706  0.1194  0.0588
  173SAPI   H2X19586   0.961   4.648   9.943 -0.0075  1.2817 -1.4879
  173SAPI   H2Y19587   1.130   4.609   9.985  0.0609  0.2541  1.2371
  173SAPI   C2319588   1.507   4.794   9.994 -0.0064 -0.0526 -0.1037
  173SAPI   H3R19589   1.606   4.828   9.958 -0.7996  2.4597 -0.0899
  173SAPI   H3S19590   1.460   4.890  10.025 -0.8365 -1.1202  2.2023
  173SAPI   C2419591   1.443   4.716   9.881 -0.6296  0.1878  0.2311
  173SAPI   H4R19592   1.426   4.787   9.797 -1.2511  1.5644  1.4621
  173SAPI   H4S19593   1.342   4.686   9.916  0.5193 -1.8319  2.0383
  173SAPI   C2519594   1.497   4.592   9.826  0.5373  0.0527  0.2783
  173SAPI   H5R19595   1.522   4.511   9.896  1.5094 -0.2268 -0.3763
  173SAPI   C2619596   1.531   4.576   9.699 -0.0525  0.1757 -0.0027
  173SAPI   H6R19597   1.576   4.478   9.679 -1.8252 -0.8402  0.7528
  173SAPI   C2719598   1.528   4.680   9.584 -1.2373  0.1815 -0.4461
  173SAPI   H7R19599   1.536   4.783   9.626 -3.2936  0.1874  0.0012
  173SAPI   H7S19600   1.436   4.681   9.523 -1.1115 -0.3662 -0.6464
  173SAPI   C2819601   1.653   4.653   9.497 -0.2183  0.4998  0.4983
  173SAPI   H8R19602   1.738   4.590   9.529 -1.0667 -2.3123 -2.3316
  173SAPI   C2919603   1.653   4.683   9.361 -0.0847 -0.8683  0.3306
  173SAPI   H9R19604   1.741   4.657   9.301  0.3149  0.0018  0.5258
  173SAPI  C21019605   1.543   4.752   9.284  0.1021  0.3330 -0.5467
  173SAPI  H10R19606   1.590   4.802   9.196 -0.2499  0.0163 -0.9208
  173SAPI  H10S19607   1.501   4.837   9.342  0.0818  0.4096 -0.6737
  173SAPI  C21119608   1.435   4.651   9.259 -0.2272  0.6385  0.1324
  173SAPI  H11R19609   1.394   4.598   9.347 -1.6072 -0.8777 -1.3627
  173SAPI  C21219610   1.393   4.621   9.135  0.3197 -0.2331  0.1182
  173SAPI  H12R19611   1.331   4.532   9.115  1.8705 -0.7666 -2.8732
  173SAPI  C21319612   1.441   4.671   9.000 -0.3918  0.3097 -0.4003
  173SAPI  H13R19613   1.551   4.661   8.997 -0.3771  0.6790 -1.1016
  173SAPI  H13S19614   1.415   4.778   8.989  2.8236  1.5584  2.4137
  173SAPI  C21419615   1.376   4.612   8.883 -0.6197 -0.2992  0.0950
  173SAPI  H14R19616   1.309   4.683   8.833 -0.8245 -1.3662 -1.1991
  173SAPI  C21519617   1.401   4.485   8.837  0.2952  0.0486 -0.1525
  173SAPI  H15R19618   1.356   4.459   8.740 -1.1383  1.0767  0.1901
  173SAPI  C21619619   1.495   4.381   8.902 -0.1407  0.7840 -0.4195
  173SAPI  H16R19620   1.573   4.427   8.966 -0.8817 -0.1984  1.2584
  173SAPI  H16S19621   1.555   4.339   8.818 -0.1903  0.9446 -0.5368
  173SAPI  C21719622   1.427   4.261   8.968 -0.3291 -0.3128 -0.3698
  173SAPI  H17R19623   1.382   4.192   8.894  2.0865  0.4292 -2.6810
  173SAPI  H17S19624   1.344   4.304   9.027 -0.0357 -0.3135  0.0497
  173SAPI  C21819625   1.522   4.200   9.073 -0.6032  0.1436 -0.0426
  173SAPI  H18R19626   1.461   4.139   9.142  1.6909 -1.1666  0.9185
  173SAPI  H18S19627   1.575   4.275   9.136  3.3497  0.1258 -2.8844
  173SAPI  C21919628   1.625   4.104   9.016 -0.5244 -0.4661  0.0074
  173SAPI  H19R19629   1.691   4.147   8.936 -2.0892  0.1070 -1.0164
  173SAPI  H19S19630   1.570   4.028   8.956  0.5101 -0.8069 -0.5502
  173SAPI  C22019631   1.712   4.028   9.123 -0.3561  0.0284 -0.3067
  173SAPI  H20R19632   1.750   4.105   9.194 -1.3082  0.1530  0.0833
  173SAPI  H20S19633   1.795   3.972   9.074 -0.8575 -0.0495 -1.0827
  173SAPI  H20T19634   1.659   3.960   9.193 -0.0220  1.4459  1.4199
  173SAPI   C3319635   1.092   4.800   9.882 -0.1853 -0.6672  0.4103
  173SAPI   H3X19636   1.191   4.842   9.909  0.7728 -3.1454  0.9958
  173SAPI   H3Y19637   1.009   4.874   9.884  0.4344  0.0363  0.6300
  173SAPI   C3419638   1.090   4.754   9.733  0.2523  0.0842 -0.1115
  173SAPI   H4X19639   0.992   4.707   9.710  0.1097  0.9422 -1.3808
  173SAPI   H4Y19640   1.165   4.676   9.711 -0.2573  0.2399 -2.7008
  173SAPI   C3519641   1.123   4.872   9.644 -0.6263 -0.2481 -0.4903
  173SAPI   H5X19642   1.222   4.917   9.669 -0.1163  0.0313 -2.7626
  173SAPI   H5Y19643   1.045   4.950   9.653 -0.5145  0.0438 -1.9014
  173SAPI   C3619644   1.113   4.838   9.497  1.1705  0.1067  0.1350
  173SAPI   H6X19645   1.022   4.776   9.483 -0.0929  2.0704 -0.5804
  173SAPI   H6Y19646   1.194   4.769   9.463  2.7125  0.5236  2.7156
  173SAPI   C3719647   1.110   4.954   9.406  0.1345 -0.2928  0.7360
  173SAPI   H7X19648   1.174   5.038   9.440 -0.6848  1.2844 -1.3978
  173SAPI   H7Y19649   1.003   4.983   9.398 -0.7016 -3.3847 -0.7034
  173SAPI   C3819650   1.161   4.917   9.266  0.4269  0.0387 -0.2143
  173SAPI   H8X19651   1.120   4.816   9.241 -0.4788 -0.4214  2.6354
  173SAPI   H8Y19652   1.269   4.895   9.283 -0.0259 -2.5998 -0.2700
  173SAPI   C3919653   1.127   5.016   9.151 -0.3354  0.2271  0.3881
  173SAPI   H9X19654   1.194   5.105   9.162  3.1152 -2.0577 -0.4856
  173SAPI   H9Y19655   1.021   5.048   9.159 -1.5254 -2.6160 -2.1923
  173SAPI  C31019656   1.164   4.946   9.017 -0.5154  0.2109  0.2360
  173SAPI  H10X19657   1.100   4.856   9.003  0.5312 -0.4263 -0.5642
  173SAPI  H10Y19658   1.268   4.909   9.012 -1.3027 -2.1128 -0.5557
  173SAPI  C31119659   1.140   5.044   8.905  0.0489  0.4017  0.6427
  173SAPI  H11X19660   1.210   5.127   8.929 -0.1651  0.9664 -0.5903
  173SAPI  H11Y19661   1.038   5.089   8.902 -0.0797  0.3168  2.5403
  173SAPI  C31219662   1.169   4.991   8.759 -0.9752  0.2650 -0.4144
  173SAPI  H12X19663   1.114   4.896   8.739 -1.9415  1.0508 -1.6186
  173SAPI  H12Y19664   1.277   4.978   8.737 -0.7231  2.2086 -0.5116
  173SAPI  C31319665   1.126   5.097   8.654  0.3984  0.4633  0.1675
  173SAPI  H13X19666   1.169   5.195   8.682  2.5504 -0.7960  1.5095
  173SAPI  H13Y19667   1.015   5.102   8.656  0.3144 -0.5099  2.9321
  173SAPI  C31419668   1.171   5.067   8.514 -0.1043 -0.2258  0.1261
  173SAPI  H14X19669   1.126   4.972   8.480  1.1125 -0.8318  0.1392
  173SAPI  H14Y19670   1.281   5.060   8.497 -0.4730  0.0119 -2.8791
  173SAPI  C31519671   1.129   5.187   8.431  0.4221 -0.1843  0.0222
  173SAPI  H15X19672   1.186   5.279   8.456  0.8482 -0.0365 -1.4023
  173SAPI  H15Y19673   1.022   5.212   8.438  0.4599 -0.0147 -0.0119
  173SAPI  C31619674   1.147   5.140   8.281 -0.6386 -0.3795 -0.1669
  173SAPI  H16X19675   1.060   5.078   8.252 -1.3065 -0.9834  2.8084
  173SAPI  H16Y19676   1.244   5.085   8.283 -0.1939  0.3805 -0.1984
  173SAPI  C31719677   1.190   5.241   8.171  0.1159 -0.1834 -0.3212
  173SAPI  H17X19678   1.110   5.318   8.173 -0.0509 -0.3681  0.1520
  173SAPI  H17Y19679   1.178   5.203   8.067  3.4800  0.0272 -0.8747
  173SAPI  C31819680   1.332   5.305   8.187 -0.3202  0.1765 -0.5189
  173SAPI  H18X19681   1.360   5.339   8.289  1.2789  0.7395 -1.1187
  173SAPI  H18Y19682   1.345   5.393   8.120 -0.4639 -0.5687 -1.5507
  173SAPI  H18Z19683   1.413   5.230   8.174  1.4324  2.1713 -1.7129
  174SAPI   C1219684   2.748   4.511  11.032 -0.4610  0.4447 -0.1662
  174SAPI    H219685   2.798   4.480  11.127 -1.4488  0.5355  0.3913
  174SAPI    O219686   2.764   4.396  10.950  0.5410  0.0213 -0.0455
  174SAPI   HO219687   2.857   4.378  10.933  0.5311 -3.3542  2.4778
  174SAPI   C1319688   2.600   4.537  11.071  0.6937 -0.4208  0.3751
  174SAPI    H319689   2.606   4.618  11.148  2.2540 -1.6962  1.6650
  174SAPI    O319690   2.537   4.426  11.142 -0.4470  0.0701 -0.5396
  174SAPI   HO319691   2.530   4.354  11.079 -1.5539 -1.1814  0.9593
  174SAPI   C1419692   2.509   4.582  10.957 -0.0385 -0.1125  0.2471
  174SAPI    H419693   2.502   4.503  10.880  2.9468  0.0296 -0.3162
  174SAPI    O419694   2.376   4.608  11.006  0.7527  0.5824  0.0904
  174SAPI   HO419695   2.315   4.536  10.987 -0.4056  1.4963  0.2246
  174SAPI   C1519696   2.573   4.706  10.889  0.1388 -0.6912  0.5841
  174SAPI    H519697   2.581   4.788  10.964  3.5172  1.0821 -1.4426
  174SAPI    O519698   2.500   4.762  10.779 -0.3554 -0.3303 -0.2539
  174SAPI   HO519699   2.548   4.840  10.750 -0.6944 -0.9204 -2.5632
  174SAPI   C1619700   2.719   4.687  10.851 -0.2328  0.2587  0.7148
  174SAPI    H619701   2.731   4.615  10.767  0.3626  0.3168  0.7459
  174SAPI    O619702   2.775   4.809  10.800  0.4172  0.2110 -0.0185
  174SAPI   HO619703   2.869   4.794  10.811  0.1665  0.0353  2.4485
  174SAPI   C1119704   2.806   4.636  10.973 -0.2849 -0.5629 -0.4300
  174SAPI    H119705   2.793   4.710  11.055 -0.0834 -0.0109 -0.8889
  174SAPI     P19706   3.062   4.722  10.967 -0.1333  0.1167  0.4108
  174SAPI   O1319707   3.188   4.640  10.969 -0.8216 -0.0318 -0.2293
  174SAPI   O1419708   3.038   4.807  11.080  0.5619  0.3082  0.0457
  174SAPI   O1219709   2.942   4.620  10.948  0.3949 -0.0403  0.8201
  174SAPI   O1119710   3.057   4.805  10.824  0.1931  0.0476 -0.9136
  174SAPI    C119711   3.138   4.767  10.713 -0.3627 -0.7177  0.2925
  174SAPI    HA19712   3.243   4.792  10.737 -0.3609 -0.6353  0.2010
  174SAPI    HB19713   3.131   4.660  10.686  2.8814 -0.7946 -0.6377
  174SAPI    C219714   3.104   4.842  10.584 -0.1969 -0.7573 -0.1647
  174SAPI    HS19715   3.018   4.790  10.535 -0.6807  1.1197 -1.3945
  174SAPI   O2119716   3.219   4.831  10.502 -0.1454 -0.2320 -0.0147
  174SAPI   C2119717   3.234   4.716  10.430 -0.6262 -0.3170  0.1729
  174SAPI   O2219718   3.151   4.629  10.430 -0.2066 -0.2970  0.3733
  174SAPI   C2219719   3.370   4.726  10.354  0.5609  1.1224 -0.4936
  174SAPI   H2R19720   3.364   4.805  10.275 -1.9129  1.0638 -0.4186
  174SAPI   H2S19721   3.454   4.748  10.424  0.8855  0.0780 -0.5441
  174SAPI    C319722   3.059   4.988  10.615 -0.2818 -0.6654 -0.0206
  174SAPI    HX19723   3.144   5.035  10.669  0.5591 -0.4734 -1.4732
  174SAPI    HY19724   2.977   4.978  10.690  0.1611 -0.9782  0.4240
  174SAPI   O3119725   3.000   5.049  10.499  0.5936  0.3301  0.7493
  174SAPI   C3119726   3.043   5.179  10.475 -0.3103  0.5934 -0.2279
  174SAPI   O3219727   3.095   5.246  10.563  0.6110 -0.2306 -0.1693
  174SAPI   C3219728   3.006   5.234  10.338  0.3250  0.1904 -0.2585
  174SAPI   H2X19729   2.899   5.205  10.335  0.2339  0.0417  2.0205
  174SAPI   H2Y19730   3.049   5.175  10.254 -1.1076  0.6027 -1.3166
  174SAPI   C2319731   3.396   4.589  10.285  0.1078 -0.8688  0.6095
  174SAPI   H3R19732   3.303   4.554  10.234  0.5645  0.8985 -1.5927
  174SAPI   H3S19733   3.421   4.525  10.373 -0.5929 -1.5860  0.3014
  174SAPI   C2419734   3.511   4.608  10.190 -0.6109 -0.3573  0.3168
  174SAPI   H4R19735   3.517   4.713  10.155 -0.1006 -0.5015 -0.0418
  174SAPI   H4S19736   3.502   4.547  10.097  1.7158  1.9466 -1.5631
  174SAPI   C2519737   3.642   4.600  10.260  0.0153 -0.3270  0.0196
  174SAPI   H5R19738   3.653   4.652  10.356  1.0280 -0.9614  0.2593
  174SAPI   C2619739   3.755   4.556  10.202 -0.1693  0.8289  0.1400
  174SAPI   H6R19740   3.842   4.561  10.269 -1.5005 -0.4373  2.0588
  174SAPI   C2719741   3.780   4.485  10.066  0.2486  0.6679 -0.1017
  174SAPI   H7R19742   3.713   4.538   9.996  1.2803  0.2469 -1.4700
  174SAPI   H7S19743   3.747   4.379  10.071  2.4153 -0.0557  0.1913
  174SAPI   C2819744   3.927   4.499  10.024 -0.2112  0.1155  0.5792
  174SAPI   H8R19745   4.013   4.473  10.087  1.0710 -1.3581 -1.6352
  174SAPI   C2919746   3.968   4.532   9.900  1.2310 -0.0556 -0.3647
  174SAPI   H9R19747   4.078   4.543   9.895  1.1738  1.5568  0.9986
  174SAPI  C21019748   3.892   4.559   9.772 -0.3246  0.6068  0.4442
  174SAPI  H10R19749   3.783   4.547   9.792 -0.5390 -1.0589 -1.4073
  174SAPI  H10S19750   3.923   4.485   9.695 -0.8603  1.6364 -0.8040
  174SAPI  C21119751   3.923   4.695   9.714 -0.3712  0.2629  0.2114
  174SAPI  H11R19752   3.882   4.783   9.765  0.0212  0.3073  0.4566
  174SAPI  C21219753   3.982   4.725   9.592  0.9036 -0.2861 -0.7372
  174SAPI  H12R19754   4.012   4.828   9.568 -2.0376  0.8861  0.1812
  174SAPI  C21319755   4.041   4.630   9.490  0.1085  0.1841 -0.0852
  174SAPI  H13R19756   4.018   4.523   9.511  1.6338  0.4932  3.9907
  174SAPI  H13S19757   4.152   4.639   9.491 -0.0407  2.6130  1.0409
  174SAPI  C21419758   3.975   4.647   9.355 -0.4031 -0.9459  0.0294
  174SAPI  H14R19759   3.865   4.641   9.360 -0.2883 -2.4102  2.5774
  174SAPI  C21519760   4.032   4.687   9.239 -0.0866 -0.1540  0.0688
  174SAPI  H15R19761   3.965   4.692   9.152 -0.2503 -2.1202  0.0413
  174SAPI  C21619762   4.175   4.730   9.213  0.7336  0.7186  0.5864
  174SAPI  H16R19763   4.220   4.653   9.146  0.9695  0.9072  0.5248
  174SAPI  H16S19764   4.231   4.738   9.308  0.2672  1.8785  0.7832
  174SAPI  C21719765   4.164   4.859   9.131 -0.3964  0.1991  0.0406
  174SAPI  H17R19766   4.126   4.942   9.194  0.1449 -0.6883  1.6066
  174SAPI  H17S19767   4.088   4.858   9.050  1.6842  0.1271 -2.0088
  174SAPI  C21819768   4.292   4.912   9.067  1.1428  0.8396  0.3498
  174SAPI  H18R19769   4.350   4.842   9.003  1.6136  0.9945  0.6104
  174SAPI  H18S19770   4.365   4.947   9.143  1.7021 -0.4975  0.4602
  174SAPI  C21919771   4.270   5.035   8.974  0.4462  0.1794 -0.3076
  174SAPI  H19R19772   4.246   5.130   9.026 -2.2480  0.1864 -1.4367
  174SAPI  H19S19773   4.178   5.032   8.913  1.0292 -5.2569 -1.4610
  174SAPI  C22019774   4.397   5.069   8.882 -0.0821 -0.4716 -0.2248
  174SAPI  H20R19775   4.372   5.158   8.820  0.6837 -0.4814 -0.5569
  174SAPI  H20S19776   4.423   4.991   8.807 -1.5366 -0.5345 -0.7108
  174SAPI  H20T19777   4.482   5.093   8.949  2.1314 -1.7547 -2.4286
  174SAPI   C3319778   3.024   5.386  10.339 -0.4691 -0.4083 -0.1996
  174SAPI   H3X19779   3.128   5.422  10.353 -1.0955  0.4838  3.0306
  174SAPI   H3Y19780   2.984   5.419  10.437  0.2324 -2.0040  0.6640
  174SAPI   C3419781   2.957   5.456  10.220  0.2582  0.4987  0.4673
  174SAPI   H4X19782   2.938   5.564  10.234  1.6895  0.8230  0.0087
  174SAPI   H4Y19783   2.860   5.402  10.210  1.2878 -1.4269  0.4446
  174SAPI   C3519784   3.026   5.437  10.081 -0.0491  0.1711  0.6851
  174SAPI   H5X19785   3.074   5.337  10.087  0.3331  0.4226  2.5623
  174SAPI   H5Y19786   3.104   5.516  10.074  0.2486 -0.0893  0.9972
  174SAPI   C3619787   2.925   5.450   9.962  0.3123 -0.4915  1.2414
  174SAPI   H6X19788   2.859   5.538   9.983 -0.0174  0.0106 -1.5562
  174SAPI   H6Y19789   2.867   5.357   9.945  1.5163 -1.4407  2.1418
  174SAPI   C3719790   2.996   5.492   9.832 -0.3898  0.3143  0.7321
  174SAPI   H7X19791   3.051   5.405   9.791  0.4186  1.2892 -0.3027
  174SAPI   H7Y19792   3.066   5.572   9.865  0.3400  2.2808 -4.6300
  174SAPI   C3819793   2.902   5.553   9.730  0.1073 -0.4305  0.1939
  174SAPI   H8X19794   2.853   5.642   9.775  0.9106 -0.6113  1.4648
  174SAPI   H8Y19795   2.821   5.479   9.711  0.9188 -1.1655 -0.4951
  174SAPI   C3919796   2.964   5.583   9.595  0.4082 -0.1492 -0.0693
  174SAPI   H9X19797   3.046   5.511   9.573 -0.7799 -2.1812  1.7044
  174SAPI   H9Y19798   3.012   5.683   9.593  1.1204 -0.4814 -2.6498
  174SAPI  C31019799   2.869   5.573   9.477 -0.0646  0.1551  0.4598
  174SAPI  H10X19800   2.765   5.593   9.510 -0.8033  1.2066 -2.2501
  174SAPI  H10Y19801   2.864   5.466   9.449  2.0370  0.4685 -1.3573
  174SAPI  C31119802   2.923   5.649   9.357  0.2432  0.4467 -0.5877
  174SAPI  H11X19803   3.026   5.614   9.334 -0.1970 -0.3696 -1.4159
  174SAPI  H11Y19804   2.930   5.755   9.390 -1.5484  0.3974  0.0812
  174SAPI  C31219805   2.830   5.628   9.238 -0.2089 -0.2863  0.3130
  174SAPI  H12X19806   2.736   5.682   9.264  0.2477  1.2226 -1.0324
  174SAPI  H12Y19807   2.811   5.521   9.215  0.4164 -0.2228 -0.5479
  174SAPI  C31319808   2.878   5.694   9.108  0.2711  0.6971 -1.1765
  174SAPI  H13X19809   2.894   5.801   9.132  0.7675  0.6446 -1.2663
  174SAPI  H13Y19810   2.793   5.697   9.037 -2.1437  2.0630  1.5418
  174SAPI  C31419811   3.000   5.621   9.054  0.6263  0.6705  0.2532
  174SAPI  H14X19812   2.982   5.512   9.060  4.4417 -0.0999  0.1217
  174SAPI  H14Y19813   3.088   5.640   9.119  1.2142 -0.1906 -0.2763
  174SAPI  C31519814   3.042   5.667   8.917  0.3194 -0.0172 -0.5616
  174SAPI  H15X19815   2.955   5.664   8.848  0.0401  0.5422 -0.2326
  174SAPI  H15Y19816   3.122   5.600   8.877 -1.2949 -1.7719 -1.0258
  174SAPI  C31619817   3.079   5.819   8.928 -0.1499 -0.2244 -0.1949
  174SAPI  H16X19818   3.151   5.824   9.012 -1.5668 -0.1587  1.0623
  174SAPI  H16Y19819   2.997   5.888   8.955  1.0260  1.8120 -1.5359
  174SAPI  C31719820   3.138   5.877   8.798  0.0914  0.0989  0.2386
  174SAPI  H17X19821   3.235   5.835   8.760 -0.3322 -0.5531 -0.1462
  174SAPI  H17Y19822   3.151   5.986   8.815 -2.1703  0.4590 -0.0854
  174SAPI  C31819823   3.056   5.860   8.678  0.3216  0.6332  1.1793
  174SAPI  H18X19824   3.103   5.912   8.592 -2.0534  0.1960 -0.4748
  174SAPI  H18Y19825   2.948   5.884   8.692  0.1387  0.5228  0.0786
  174SAPI  H18Z19826   3.055   5.759   8.632  2.6727  1.9577 -2.1874
  175SAPI   C1219827   1.057   2.231   6.088 -0.0052  0.0291 -0.4636
  175SAPI    H219828   1.130   2.188   6.159  0.1446 -0.5875 -0.9771
  175SAPI    O219829   1.098   2.359   6.048  0.0986  0.0079 -0.2382
  175SAPI   HO219830   1.123   2.413   6.124 -0.9547  1.4168 -0.8418
  175SAPI   C1319831   1.052   2.146   5.961  0.7271  0.1543 -0.5060
  175SAPI    H319832   1.012   2.047   5.994  0.7412 -0.1639 -1.4038
  175SAPI    O319833   1.178   2.125   5.902 -0.1317 -0.1563 -0.0452
  175SAPI   HO319834   1.230   2.206   5.896  0.4251 -0.5839 -1.2990
  175SAPI   C1419835   0.943   2.203   5.870 -0.3941  0.3664  1.0640
  175SAPI    H419836   0.966   2.310   5.851  2.1205  0.0781  2.0212
  175SAPI    O419837   0.934   2.132   5.748  0.4240  0.2926  0.7190
  175SAPI   HO419838   0.918   2.038   5.765 -1.4837  0.9324  3.0165
  175SAPI   C1519839   0.806   2.209   5.942 -0.1142  0.2870  0.2703
  175SAPI    H519840   0.772   2.105   5.962  0.1697 -0.1612 -1.4097
  175SAPI    O519841   0.697   2.263   5.864 -0.7929  0.4753 -0.3557
  175SAPI   HO519842   0.708   2.358   5.866  0.7837  0.3594  2.4970
  175SAPI   C1619843   0.819   2.292   6.073  0.4370  0.3584 -0.4574
  175SAPI    H619844   0.838   2.400   6.051 -2.0645  0.8242 -0.5689
  175SAPI    O619845   0.688   2.297   6.138 -0.1251  0.7557  0.0388
  175SAPI   HO619846   0.671   2.227   6.201  1.2294  0.4115  0.0614
  175SAPI   C1119847   0.920   2.243   6.162 -0.6480  0.1860  0.0023
  175SAPI    H119848   0.891   2.140   6.190  2.1733 -0.1316  2.2482
  175SAPI     P19849   0.923   2.291   6.430  0.6800 -0.1140  0.1446
  175SAPI   O1319850   0.870   2.154   6.432 -0.1194  0.3144  0.8803
  175SAPI   O1419851   0.835   2.397   6.494 -0.4676  0.1922 -0.0515
  175SAPI   O1219852   0.936   2.333   6.273  0.3600  0.5688  0.2384
  175SAPI   O1119853   1.065   2.302   6.492 -0.3732 -0.2170 -0.2557
  175SAPI    C119854   1.110   2.412   6.575 -0.0585 -0.3210  0.1765
  175SAPI    HA19855   1.217   2.398   6.600  0.3129  0.8837 -0.6174
  175SAPI    HB19856   1.103   2.512   6.527  1.9811 -0.6661 -0.9839
  175SAPI    C219857   1.049   2.425   6.717  0.7255  0.6735 -1.3678
  175SAPI    HS19858   1.142   2.445   6.774 -0.1551 -2.0818  1.3272
  175SAPI   O2119859   0.980   2.303   6.750  0.5361 -0.3244 -0.4067
  175SAPI   C2119860   1.061   2.208   6.799 -0.0100 -0.1514  0.2371
  175SAPI   O2219861   1.181   2.216   6.798  0.1745  0.6078  0.3209
  175SAPI   C2219862   0.997   2.084   6.849 -0.2224  0.2622 -0.0159
  175SAPI   H2R19863   0.887   2.094   6.859 -0.0963  0.3996  1.6257
  175SAPI   H2S19864   1.017   2.002   6.777 -1.1909  1.3323 -1.5583
  175SAPI    C319865   0.951   2.539   6.732 -0.4469 -0.1505 -0.1386
  175SAPI    HX19866   0.851   2.515   6.689 -0.8601  0.9362  0.1594
  175SAPI    HY19867   1.000   2.614   6.666  1.9109 -1.4062  0.1108
  175SAPI   O3119868   0.954   2.591   6.864  0.0018 -0.4641 -0.3452
  175SAPI   C3119869   0.852   2.562   6.945 -0.0875  0.4747 -0.1155
  175SAPI   O3219870   0.763   2.486   6.920  0.6270  0.5384 -0.1894
  175SAPI   C3219871   0.880   2.632   7.072 -0.0333  0.3243  0.3613
  175SAPI   H2X19872   0.937   2.725   7.053 -0.4569  0.4475 -0.3512
  175SAPI   H2Y19873   0.950   2.570   7.132 -0.0525  0.4081  0.4720
  175SAPI   C2319874   1.044   2.044   6.984 -0.0725  0.4305 -0.0615
  175SAPI   H3R19875   1.150   2.012   6.981  0.0576  0.8723 -0.2082
  175SAPI   H3S19876   0.992   1.952   7.017 -2.6285  1.0093 -2.1655
  175SAPI   C2419877   1.030   2.156   7.085 -0.3904 -0.0458  0.3840
  175SAPI   H4R19878   1.090   2.243   7.053  0.8708 -0.9580  0.1936
  175SAPI   H4S19879   1.075   2.119   7.180 -0.3208 -0.5225  0.1707
  175SAPI   C2519880   0.885   2.199   7.113  0.1986  0.6965  0.3308
  175SAPI   H5R19881   0.816   2.204   7.028  1.9582 -1.9017 -1.4072
  175SAPI   C2619882   0.844   2.227   7.242  0.4630 -0.0270  0.6316
  175SAPI   H6R19883   0.737   2.238   7.267  0.6638  1.2391  0.9973
  175SAPI   C2719884   0.927   2.220   7.369  0.6137 -0.1359  0.2768
  175SAPI   H7R19885   1.018   2.156   7.362  1.3210  0.7907  0.7014
  175SAPI   H7S19886   0.869   2.170   7.449  0.4328  1.9246  1.4980
  175SAPI   C2819887   0.964   2.361   7.394 -0.6110  0.1499 -0.3089
  175SAPI   H8R19888   1.028   2.400   7.313  1.3232  1.1107  1.5518
  175SAPI   C2919889   0.929   2.439   7.501 -0.8589 -0.0837 -0.6749
  175SAPI   H9R19890   0.955   2.546   7.491  0.5762 -0.5296 -2.1241
  175SAPI  C21019891   0.836   2.407   7.615  0.2240  0.1919 -0.4133
  175SAPI  H10R19892   0.804   2.301   7.607 -3.1869  0.6142  3.9765
  175SAPI  H10S19893   0.745   2.466   7.593  0.3061 -0.0302 -1.4378
  175SAPI  C21119894   0.912   2.430   7.748  0.6350 -0.5478  0.2004
  175SAPI  H11R19895   1.021   2.415   7.744  0.8524  1.0560 -0.3403
  175SAPI  C21219896   0.852   2.465   7.862  0.5762 -0.9497 -0.9257
  175SAPI  H12R19897   0.916   2.465   7.952 -0.6085 -0.7730 -0.0512
  175SAPI  C21319898   0.705   2.490   7.891  0.2667 -0.4389 -0.3027
  175SAPI  H13R19899   0.656   2.405   7.943 -1.6279 -0.4775 -1.9770
  175SAPI  H13S19900   0.658   2.493   7.790  0.1108  0.8771 -0.2129
  175SAPI  C21419901   0.687   2.619   7.958  0.3655 -0.3754 -0.7218
  175SAPI  H14R19902   0.610   2.681   7.910 -0.6863 -0.7292  0.4613
  175SAPI  C21519903   0.741   2.659   8.078 -0.0923 -0.8730 -0.1888
  175SAPI  H15R19904   0.720   2.762   8.110  1.9044 -0.9563  1.6217
  175SAPI  C21619905   0.830   2.581   8.170  0.0012  0.8398  0.7216
  175SAPI  H16R19906   0.934   2.587   8.131 -0.7021  3.3882 -1.0506
  175SAPI  H16S19907   0.798   2.475   8.170 -2.5844  1.5276 -0.4762
  175SAPI  C21719908   0.822   2.622   8.316  0.5365 -0.1685 -0.2555
  175SAPI  H17R19909   0.858   2.726   8.331  2.4473 -0.8879  0.4221
  175SAPI  H17S19910   0.886   2.559   8.381 -0.6409  1.1175  2.2754
  175SAPI  C21819911   0.678   2.607   8.378 -0.3581 -0.1188 -0.0283
  175SAPI  H18R19912   0.623   2.519   8.339 -1.1547  0.3699 -0.0367
  175SAPI  H18S19913   0.617   2.692   8.342 -1.3232 -1.1594 -0.9128
  175SAPI  C21919914   0.674   2.634   8.531  0.0480 -0.4941 -0.2174
  175SAPI  H19R19915   0.567   2.636   8.563  0.5357  1.2611  1.4990
  175SAPI  H19S19916   0.718   2.733   8.556 -1.2939 -0.5863  3.0791
  175SAPI  C22019917   0.738   2.527   8.613  0.6932 -0.5324  0.0233
  175SAPI  H20R19918   0.724   2.545   8.722  1.1398  1.7976 -0.2684
  175SAPI  H20S19919   0.849   2.530   8.609  0.6282  0.8131 -1.3273
  175SAPI  H20T19920   0.717   2.424   8.577  2.9984 -0.3292 -2.1622
  175SAPI   C3319921   0.759   2.662   7.170  0.3622  0.0377 -0.2307
  175SAPI   H3X19922   0.706   2.573   7.211 -0.6078  1.0546  0.8081
  175SAPI   H3Y19923   0.683   2.720   7.114  2.0007  1.1157 -1.4385
  175SAPI   C3419924   0.810   2.739   7.294 -0.1421 -0.0859  0.3145
  175SAPI   H4X19925   0.861   2.830   7.255 -0.5766  0.4866  1.0471
  175SAPI   H4Y19926   0.898   2.684   7.333  1.7273  3.0190  0.8419
  175SAPI   C3519927   0.703   2.770   7.396  0.0317  0.2319  0.5987
  175SAPI   H5X19928   0.632   2.686   7.411  0.7274 -0.5017 -0.0786
  175SAPI   H5Y19929   0.647   2.861   7.366  2.3551  1.3313 -0.6796
  175SAPI   C3619930   0.762   2.812   7.536  0.2380  0.1507  0.1808
  175SAPI   H6X19931   0.836   2.740   7.576  1.5681  1.2363 -0.2486
  175SAPI   H6Y19932   0.680   2.819   7.610  0.0005  0.2399 -0.0875
  175SAPI   C3719933   0.826   2.949   7.527  0.5292 -0.2023  0.7461
  175SAPI   H7X19934   0.748   3.022   7.495 -1.0819 -1.6605  1.2375
  175SAPI   H7Y19935   0.893   2.942   7.438  0.0942  1.2773  0.2635
  175SAPI   C3819936   0.898   3.000   7.649 -0.2046  0.5366  0.0750
  175SAPI   H8X19937   0.900   3.110   7.634 -3.7922  1.1068  2.4404
  175SAPI   H8Y19938   1.007   2.977   7.654 -0.8342 -3.6088 -1.0768
  175SAPI   C3919939   0.838   2.974   7.794 -0.2540  0.2560 -0.4880
  175SAPI   H9X19940   0.860   2.870   7.829 -0.4705 -0.3523 -2.0597
  175SAPI   H9Y19941   0.728   2.978   7.778 -0.5434  0.2842  1.2677
  175SAPI  C31019942   0.891   3.091   7.887  0.2481  0.1723  0.3117
  175SAPI  H10X19943   0.859   3.193   7.857 -1.2872 -0.2988  0.2673
  175SAPI  H10Y19944   1.002   3.087   7.880  0.3079 -1.2972  1.6006
  175SAPI  C31119945   0.850   3.081   8.037 -0.7419  0.2830 -0.7086
  175SAPI  H11X19946   0.890   2.985   8.077 -0.2407  0.8639  0.2421
  175SAPI  H11Y19947   0.741   3.089   8.057 -0.3079 -0.0867  2.3179
  175SAPI  C31219948   0.912   3.202   8.122 -0.9683  0.5113 -0.6137
  175SAPI  H12X19949   0.905   3.282   8.045 -1.1418  0.7651 -0.3345
  175SAPI  H12Y19950   1.016   3.167   8.133 -0.5748  0.6535 -3.1427
  175SAPI  C31319951   0.831   3.235   8.246 -0.2482 -0.0353  0.3138
  175SAPI  H13X19952   0.726   3.265   8.226 -1.4361 -2.1724  2.7805
  175SAPI  H13Y19953   0.881   3.323   8.294 -0.4996 -0.3419  1.1458
  175SAPI  C31419954   0.837   3.124   8.354 -0.0127  0.1141  0.6168
  175SAPI  H14X19955   0.943   3.110   8.383  0.2337  0.5317 -0.0510
  175SAPI  H14Y19956   0.810   3.032   8.298  3.4265  0.9407 -2.8970
  175SAPI  C31519957   0.740   3.158   8.469 -0.4594  0.0853  0.3370
  175SAPI  H15X19958   0.634   3.164   8.436 -0.5569 -2.1796  0.1028
  175SAPI  H15Y19959   0.779   3.259   8.494  0.1063  0.2503 -1.1189
  175SAPI  C31619960   0.762   3.068   8.593  0.1425 -0.2212  0.3287
  175SAPI  H16X19961   0.870   3.061   8.619  0.6480 -1.8361 -1.8646
  175SAPI  H16Y19962   0.738   2.965   8.558  0.1717 -1.6765  4.1106
  175SAPI  C31719963   0.683   3.103   8.714  0.6738 -0.5019 -0.3034
  175SAPI  H17X19964   0.578   3.090   8.681  1.1710  0.4257 -2.4588
  175SAPI  H17Y19965   0.697   3.209   8.743 -0.4175 -0.5555  0.4593
  175SAPI  C31819966   0.725   3.009   8.824  0.2815 -0.4123  0.4036
  175SAPI  H18X19967   0.835   3.013   8.839  0.5023  0.4534 -1.1999
  175SAPI  H18Y19968   0.687   2.910   8.791 -0.1409  0.3073 -1.3594
  175SAPI  H18Z19969   0.673   3.026   8.921  0.5159 -0.2953  0.5103
  176SAPI   C1219970   3.528   1.678   6.404 -0.4470 -0.2571  0.6149
  176SAPI    H219971   3.626   1.693   6.454 -0.7210  1.5083  0.6691
  176SAPI    O219972   3.443   1.777   6.462 -0.0081 -0.2550 -0.6675
  176SAPI   HO219973   3.395   1.718   6.522  0.2434 -1.2613 -1.4327
  176SAPI   C1319974   3.548   1.707   6.250 -0.0432 -0.6186 -0.1364
  176SAPI    H319975   3.602   1.620   6.207  1.6155  0.8593 -1.1382
  176SAPI    O319976   3.623   1.821   6.231 -0.5646 -0.9228 -0.3046
  176SAPI   HO319977   3.577   1.897   6.269  0.1772  0.5099 -2.1404
  176SAPI   C1419978   3.410   1.714   6.185 -0.2777  0.0689  0.3265
  176SAPI    H419979   3.344   1.786   6.239 -2.7151 -1.3204 -0.6426
  176SAPI    O419980   3.429   1.761   6.042  0.3974 -0.0639  0.1086
  176SAPI   HO419981   3.522   1.782   6.033  0.8941 -1.9216  0.4905
  176SAPI   C1519982   3.344   1.579   6.196 -0.2067  0.1052 -0.4301
  176SAPI    H519983   3.406   1.508   6.136  1.6386  2.6198 -1.6915
  176SAPI    O519984   3.209   1.572   6.149 -0.1709  0.6750  0.1485
  176SAPI   HO519985   3.151   1.624   6.205 -0.3632  0.4202  0.1842
  176SAPI   C1619986   3.341   1.532   6.346  0.6143 -0.5093 -0.1752
  176SAPI    H619987   3.267   1.592   6.404  0.9963 -0.8342  0.6645
  176SAPI    O619988   3.288   1.399   6.355 -0.2325  0.4513 -0.4642
  176SAPI   HO619989   3.367   1.345   6.349  0.4167  1.0181  1.9755
  176SAPI   C1119990   3.473   1.533   6.421  0.2700 -0.8731  0.1794
  176SAPI    H119991   3.535   1.462   6.364  1.4220 -0.3153  0.6935
  176SAPI     P19992   3.573   1.418   6.647 -0.2604  0.2514  0.2078
  176SAPI   O1319993   3.657   1.350   6.550 -0.3361  0.1944 -0.2563
  176SAPI   O1419994   3.511   1.341   6.759 -0.1064 -0.0956  0.8568
  176SAPI   O1219995   3.464   1.501   6.556 -0.1448 -0.6947 -0.0908
  176SAPI   O1119996   3.660   1.545   6.701  0.0051  0.5025  0.3500
  176SAPI    C119997   3.604   1.664   6.751  1.3467 -0.7237 -0.9000
  176SAPI    HA19998   3.513   1.695   6.696  1.2480  1.3516  0.3479
  176SAPI    HB19999   3.563   1.643   6.852 -0.6812 -0.6479 -1.6652
  176SAPI    C220000   3.708   1.777   6.757  0.0740 -0.3752  0.2982
  176SAPI    HS20001   3.755   1.764   6.658 -1.4352  0.2798 -0.5321
  176SAPI   O2120002   3.806   1.765   6.863  0.0545  0.5791 -0.0716
  176SAPI   C2120003   3.924   1.815   6.833 -0.4842 -0.6326 -0.0872
  176SAPI   O2220004   3.943   1.896   6.743  0.0234  0.1184  0.5922
  176SAPI   C2220005   4.031   1.770   6.936 -0.0460 -0.2768  0.1094
  176SAPI   H2R20006   3.981   1.770   7.035 -1.2471  0.4877 -0.4677
  176SAPI   H2S20007   4.063   1.668   6.906 -2.9760 -1.7363  1.5422
  176SAPI    C320008   3.643   1.916   6.764  0.5503 -0.2098 -0.0507
  176SAPI    HX20009   3.581   1.917   6.672  0.2323 -1.4937  0.1304
  176SAPI    HY20010   3.717   1.996   6.741 -0.5293  0.9023  0.2434
  176SAPI   O3120011   3.561   1.951   6.881 -0.3715  0.4823  0.2845
  176SAPI   C3120012   3.613   2.039   6.971  0.6791  0.2243  0.0616
  176SAPI   O3220013   3.718   2.094   6.955 -0.6895  0.5393 -0.8702
  176SAPI   C3220014   3.506   2.060   7.080  0.3170 -0.2651  0.6001
  176SAPI   H2X20015   3.523   1.984   7.159 -2.3347 -0.6550  0.8854
  176SAPI   H2Y20016   3.403   2.041   7.041 -0.0919  1.5422  0.6857
  176SAPI   C2320017   4.152   1.859   6.937 -0.2866 -0.2584  0.4523
  176SAPI   H3R20018   4.172   1.904   6.837  1.1144 -2.1037 -0.1400
  176SAPI   H3S20019   4.235   1.786   6.942  0.0076 -0.1674 -1.8812
  176SAPI   C2420020   4.156   1.967   7.050 -0.4060  0.6162  0.4231
  176SAPI   H4R20021   4.260   2.003   7.035  0.3540 -1.5469  0.1691
  176SAPI   H4S20022   4.166   1.911   7.146  1.9232  0.2448  0.0052
  176SAPI   C2520023   4.055   2.077   7.050  0.0013 -0.1604 -0.0171
  176SAPI   H5R20024   3.963   2.055   6.993  0.1360  1.3087 -0.8502
  176SAPI   C2620025   4.060   2.199   7.106  0.3547  0.1916 -0.1141
  176SAPI   H6R20026   3.976   2.265   7.078 -1.3809 -1.6625  0.4404
  176SAPI   C2720027   4.184   2.246   7.169 -0.1396  0.4599  0.0679
  176SAPI   H7R20028   4.267   2.235   7.097 -1.9502  0.9817 -2.2038
  176SAPI   H7S20029   4.211   2.175   7.251  1.1882  1.8465  0.8724
  176SAPI   C2820030   4.179   2.386   7.223 -0.8335  0.3179 -0.0120
  176SAPI   H8R20031   4.246   2.457   7.172 -0.2043 -0.7660 -0.7491
  176SAPI   C2920032   4.104   2.435   7.328  1.2502 -0.1706  0.3124
  176SAPI   H9R20033   4.107   2.543   7.350 -1.4573  0.0490 -0.1145
  176SAPI  C21020034   4.009   2.346   7.403 -0.2545 -0.5317 -0.1821
  176SAPI  H10R20035   4.042   2.240   7.402  0.0189 -0.4531 -1.6876
  176SAPI  H10S20036   3.905   2.351   7.365 -1.5144  0.2338  3.0058
  176SAPI  C21120037   3.990   2.397   7.547 -0.6875 -0.2236  0.4630
  176SAPI  H11R20038   3.937   2.492   7.563  0.7578  0.9940 -1.4082
  176SAPI  C21220039   4.051   2.341   7.647  0.2047 -0.2670 -1.0651
  176SAPI  H12R20040   4.046   2.386   7.747  2.3047 -0.5256 -0.8014
  176SAPI  C21320041   4.153   2.230   7.652 -0.3683 -0.2099  0.3429
  176SAPI  H13R20042   4.245   2.259   7.706 -0.2735 -0.7560  0.4878
  176SAPI  H13S20043   4.189   2.213   7.548 -1.8348  1.7160 -0.5348
  176SAPI  C21420044   4.104   2.099   7.716  0.2419  0.4519 -0.6780
  176SAPI  H14R20045   4.058   2.028   7.646  0.7214  0.1425 -0.6805
  176SAPI  C21520046   4.121   2.056   7.845  0.6114 -0.4444  0.6640
  176SAPI  H15R20047   4.087   1.956   7.873  2.2991 -1.6854 -1.4532
  176SAPI  C21620048   4.195   2.131   7.957 -0.5631  1.0338  0.0565
  176SAPI  H16R20049   4.235   2.225   7.913  1.2502  0.7534  1.0107
  176SAPI  H16S20050   4.287   2.074   7.984  0.0418  0.8626 -2.1245
  176SAPI  C21720051   4.117   2.158   8.086  0.0513  0.6510 -0.4792
  176SAPI  H17R20052   4.050   2.072   8.104 -0.9152  1.6443  0.8824
  176SAPI  H17S20053   4.039   2.237   8.092 -1.3531 -0.7389  0.3912
  176SAPI  C21820054   4.211   2.190   8.208  0.3099  0.2937  1.1213
  176SAPI  H18R20055   4.140   2.238   8.279 -1.0582 -1.1731  0.8164
  176SAPI  H18S20056   4.287   2.260   8.169  1.4488 -1.0606  0.8414
  176SAPI  C21920057   4.275   2.067   8.263  0.4041  1.0328  0.1130
  176SAPI  H19R20058   4.211   1.977   8.257  0.6479  0.8734 -0.1247
  176SAPI  H19S20059   4.283   2.087   8.372 -0.1415  1.1516  0.1365
  176SAPI  C22020060   4.416   2.029   8.227 -0.8884 -0.1669  0.2655
  176SAPI  H20R20061   4.441   1.934   8.280 -1.2750 -0.2692  0.2621
  176SAPI  H20S20062   4.475   2.115   8.266 -0.5973 -1.3931  2.7594
  176SAPI  H20T20063   4.428   2.029   8.116 -1.1359  0.3535  0.2382
  176SAPI   C3320064   3.509   2.208   7.142 -1.0494 -0.0641  0.1670
  176SAPI   H3X20065   3.553   2.280   7.069  0.1208  0.5495  1.4232
  176SAPI   H3Y20066   3.570   2.203   7.235 -0.7123 -0.9430 -0.0898
  176SAPI   C3420067   3.373   2.264   7.189 -0.5709  0.5511 -0.1920
  176SAPI   H4X20068   3.302   2.261   7.104 -1.3738 -1.5861  0.4889
  176SAPI   H4Y20069   3.392   2.369   7.219 -1.7246  1.3641 -2.1109
  176SAPI   C3520070   3.324   2.179   7.307  0.3090 -1.1889 -0.2258
  176SAPI   H5X20071   3.391   2.171   7.395  0.0194 -0.8598  0.0279
  176SAPI   H5Y20072   3.314   2.073   7.275 -1.5577 -1.2413  0.3905
  176SAPI   C3620073   3.186   2.232   7.345 -0.2146 -0.1796 -0.2169
  176SAPI   H6X20074   3.116   2.221   7.260 -2.2308  1.2470  1.1503
  176SAPI   H6Y20075   3.204   2.338   7.374 -1.9704  0.3204 -0.8365
  176SAPI   C3720076   3.131   2.141   7.461  0.5270  0.4095 -0.9443
  176SAPI   H7X20077   3.143   2.039   7.420 -1.0105 -0.4626  0.6311
  176SAPI   H7Y20078   3.024   2.165   7.481  0.2093  0.0880 -2.1954
  176SAPI   C3820079   3.211   2.146   7.596 -0.1667  0.3430  0.2516
  176SAPI   H8X20080   3.209   2.245   7.645  1.8791  0.2967  0.4923
  176SAPI   H8Y20081   3.319   2.126   7.583  0.2119  0.5026  2.6472
  176SAPI   C3920082   3.160   2.055   7.706 -0.0103  0.2680  0.1252
  176SAPI   H9X20083   3.150   1.962   7.645 -0.2768  1.2651 -1.4079
  176SAPI   H9Y20084   3.057   2.077   7.743 -1.1988 -2.2763 -1.3778
  176SAPI  C31020085   3.269   2.036   7.812  0.2497 -0.4009 -0.1281
  176SAPI  H10X20086   3.302   2.136   7.849 -0.4208 -0.5327  0.8700
  176SAPI  H10Y20087   3.345   1.981   7.753 -0.6302 -2.2367  0.3970
  176SAPI  C31120088   3.237   1.947   7.927 -0.0583 -0.2367 -0.1533
  176SAPI  H11X20089   3.174   1.863   7.892  0.6382 -0.5902 -0.6011
  176SAPI  H11Y20090   3.174   2.018   7.984  1.5441  2.7913 -1.8779
  176SAPI  C31220091   3.368   1.912   8.002 -0.2617 -0.5770 -0.2980
  176SAPI  H12X20092   3.411   2.005   8.045 -1.4392 -0.3451  0.4081
  176SAPI  H12Y20093   3.436   1.875   7.922  1.6509  0.6940  0.6556
  176SAPI  C31320094   3.353   1.809   8.113  0.4228  0.1507 -0.3587
  176SAPI  H13X20095   3.317   1.711   8.077  1.5289 -0.0886 -0.8398
  176SAPI  H13Y20096   3.276   1.845   8.185  1.2395  0.5112  0.3458
  176SAPI  C31420097   3.485   1.784   8.191  0.6159 -0.5672 -0.3208
  176SAPI  H14X20098   3.517   1.885   8.226  3.4292 -0.7812 -1.9747
  176SAPI  H14Y20099   3.557   1.751   8.113 -1.7210 -0.4312 -2.6902
  176SAPI  C31520100   3.462   1.693   8.312 -0.4216 -0.5436 -0.1889
  176SAPI  H15X20101   3.405   1.600   8.290  1.2388 -0.9443 -3.2887
  176SAPI  H15Y20102   3.397   1.752   8.381  1.3346  0.5210  0.6114
  176SAPI  C31620103   3.590   1.649   8.381  0.5721  0.0603 -0.1862
  176SAPI  H16X20104   3.648   1.742   8.400 -1.3472  1.1635  0.5234
  176SAPI  H16Y20105   3.645   1.582   8.312  0.0867  0.8460 -1.3725
  176SAPI  C31720106   3.570   1.581   8.522 -0.7378  0.6032  0.5402
  176SAPI  H17X20107   3.515   1.486   8.505  0.6693 -0.0959 -0.2319
  176SAPI  H17Y20108   3.500   1.650   8.574 -1.0114  0.7296  0.0097
  176SAPI  C31820109   3.696   1.542   8.596 -0.0630 -0.3377 -0.1840
  176SAPI  H18X20110   3.758   1.632   8.614  1.7662 -1.4329 -0.8073
  176SAPI  H18Y20111   3.751   1.471   8.531 -1.1918 -0.2872 -1.2481
  176SAPI  H18Z20112   3.667   1.500   8.694 -3.4946 -3.0248 -2.0912
  177SLPC     N20113   4.674   5.929  10.809 -0.2985 -0.1067 -0.2899
  177SLPC   C1320114   4.689   6.053  10.898 -0.4824  0.1463  0.3576
  177SLPC  H13A20115   4.629   6.043  10.988 -1.4136 -1.6606 -0.4179
  177SLPC  H13B20116   4.790   6.054  10.935  0.3599  3.1540 -1.6515
  177SLPC  H13C20117   4.673   6.150  10.853  4.6248  1.0258 -0.1582
  177SLPC   C1420118   4.774   5.943  10.698  0.4391 -0.4674 -0.6160
  177SLPC  H14A20119   4.799   5.848  10.654  1.5790 -0.3380 -0.2774
  177SLPC  H14B20120   4.740   6.015  10.625 -3.0205  0.0296  1.2800
  177SLPC  H14C20121   4.871   5.981  10.729  0.3216  1.1603 -2.0547
  177SLPC   C1520122   4.533   5.940  10.752 -0.9502 -0.1322  0.4552
  177SLPC  H15A20123   4.532   5.879  10.663 -0.8979  0.6347 -0.0864
  177SLPC  H15B20124   4.472   5.909  10.835  0.2707 -1.5886  0.8614
  177SLPC  H15C20125   4.500   6.041  10.730  1.8859  0.4219 -1.9388
  177SLPC   C1220126   4.694   5.799  10.891 -0.2055 -0.0992 -0.0331
  177SLPC  H12A20127   4.798   5.776  10.908 -0.6634 -1.9618  0.4705
  177SLPC  H12B20128   4.668   5.711  10.834  1.6417 -2.0565  1.9494
  177SLPC   C1120129   4.622   5.772  11.019 -0.8891 -0.4568 -0.1361
  177SLPC  H11A20130   4.627   5.857  11.090  0.7963 -0.3166 -0.3802
  177SLPC  H11B20131   4.660   5.676  11.060  3.5171  1.2774  0.4085
  177SLPC     P20132   4.396   5.655  10.949 -0.3356  0.5130  0.2458
  177SLPC   O1320133   4.415   5.540  11.042  0.7167  0.3075  0.4210
  177SLPC   O1420134   4.261   5.708  10.920 -0.2758 -0.4729 -0.5647
  177SLPC   O1220135   4.485   5.772  10.989  0.2286  0.7743 -0.4858
  177SLPC   O1120136   4.458   5.613  10.806  0.2628  0.4168  0.1465
  177SLPC    C120137   4.377   5.540  10.713 -0.3012  0.3252 -0.0084
  177SLPC    HA20138   4.399   5.432  10.728  0.6607  0.2826 -1.5594
  177SLPC    HB20139   4.268   5.544  10.734 -0.3905  0.8109 -0.5595
  177SLPC    C220140   4.414   5.589  10.569  0.1553  0.1493 -0.7022
  177SLPC    HS20141   4.431   5.699  10.572 -1.4222  0.4092  0.4088
  177SLPC   O2120142   4.304   5.556  10.484 -0.4184  0.5474 -0.4148
  177SLPC   C2120143   4.280   5.644  10.386 -0.6869 -0.7877  1.1135
  177SLPC   O2220144   4.357   5.740  10.366 -0.2416  0.2529  0.7893
  177SLPC   C2220145   4.147   5.621  10.318  0.1945  0.2748 -0.6150
  177SLPC   H2R20146   4.087   5.556  10.384  0.7087 -2.3842 -2.6151
  177SLPC   H2S20147   4.096   5.720  10.313 -0.2001  0.1932  1.1808
  177SLPC    C320148   4.544   5.517  10.519  0.4871  0.0033 -0.4079
  177SLPC    HX20149   4.538   5.406  10.524  2.0999 -0.3093 -3.1846
  177SLPC    HY20150   4.624   5.534  10.594  0.0088 -1.0348  0.3590
  177SLPC   O3120151   4.579   5.557  10.388 -0.1606 -0.3795 -0.4028
  177SLPC   C3120152   4.653   5.664  10.382  0.4721  0.1555 -0.0231
  177SLPC   O3220153   4.682   5.734  10.478  0.3022 -0.0858  0.4764
  177SLPC   C3220154   4.700   5.685  10.231  0.5539 -0.3786  0.0960
  177SLPC   H2X20155   4.764   5.599  10.205  0.9762  0.4477 -1.7436
  177SLPC   H2Y20156   4.755   5.781  10.238  0.7218 -0.5970  2.7499
  177SLPC   C2320157   4.156   5.544  10.189  0.1602 -0.2630  0.5523
  177SLPC   H3R20158   4.052   5.509  10.170  0.5502 -3.0788  2.7859
  177SLPC   H3S20159   4.215   5.452  10.207 -0.1224 -0.2811  1.4264
  177SLPC   C2420160   4.205   5.615  10.059 -0.9567 -0.1090  0.3029
  177SLPC   H4R20161   4.183   5.542   9.978  0.2488  1.3953 -1.4659
  177SLPC   H4S20162   4.313   5.635  10.075 -0.5426 -1.5021 -0.6503
  177SLPC   C2520163   4.139   5.749  10.029 -0.2757 -0.3435 -0.3329
  177SLPC   H5R20164   4.180   5.826  10.097 -1.0091  0.4437 -0.7587
  177SLPC   H5S20165   4.028   5.737  10.038 -0.5261 -0.4036 -2.7070
  177SLPC   C2620166   4.166   5.797   9.882 -0.4046 -0.1733 -0.1217
  177SLPC   H6R20167   4.270   5.775   9.849 -0.3940 -0.8679  0.3524
  177SLPC   H6S20168   4.144   5.904   9.861 -1.6171 -0.6478 -1.3523
  177SLPC   C2720169   4.084   5.714   9.788  0.1618  0.8757  0.8265
  177SLPC   H7R20170   3.974   5.723   9.805 -0.1207  0.6543 -0.6716
  177SLPC   H7S20171   4.101   5.605   9.802  1.4194  1.2525  2.4120
  177SLPC   C2820172   4.106   5.749   9.641  0.1787 -0.0512 -0.2523
  177SLPC   H8R20173   4.087   5.858   9.638  2.1262  0.3324  0.0781
  177SLPC   H8S20174   4.033   5.690   9.581 -1.4438 -1.2342  2.6909
  177SLPC   C2920175   4.242   5.715   9.586  0.3387  0.8807 -0.0882
  177SLPC   H9R20176   4.281   5.620   9.626 -1.9058 -0.8398 -1.7441
  177SLPC  C21020177   4.316   5.785   9.510  0.0340 -0.2460  0.9927
  177SLPC  H10R20178   4.400   5.734   9.463 -0.3959  0.2674 -0.3982
  177SLPC  C21120179   4.286   5.922   9.461 -0.5501  0.2122  0.2418
  177SLPC  H11R20180   4.245   5.922   9.357  2.4967  0.5972 -1.0781
  177SLPC  H11S20181   4.216   5.977   9.528  1.0090  0.9356  1.3500
  177SLPC  C21220182   4.418   5.990   9.471  0.7398 -0.0532 -0.2071
  177SLPC  H12R20183   4.451   6.001   9.576  0.5286 -1.1905 -0.0074
  177SLPC  C21320184   4.500   6.034   9.374 -0.3104  0.6007  0.3504
  177SLPC  H13R20185   4.595   6.086   9.392  0.5015 -0.6062 -0.2486
  177SLPC  C21420186   4.463   6.028   9.229  0.1007  0.0377  0.0046
  177SLPC  H14R20187   4.355   6.024   9.204  0.3056 -0.0722 -0.8728
  177SLPC  H14S20188   4.500   5.933   9.187  0.0592  0.5216 -1.1487
  177SLPC  C21520189   4.527   6.144   9.146 -0.4201  0.6054 -0.1180
  177SLPC  H15R20190   4.527   6.094   9.047 -0.6082 -3.1644  1.6247
  177SLPC  H15S20191   4.633   6.154   9.177  0.0722 -1.3438 -1.0092
  177SLPC  C21620192   4.453   6.280   9.138  0.2619 -0.3112 -0.2259
  177SLPC  H16R20193   4.444   6.326   9.239  2.1091  1.1325 -0.6738
  177SLPC  H16S20194   4.347   6.268   9.106 -0.0344  0.0762  0.5794
  177SLPC  C21720195   4.523   6.386   9.047 -0.2188  0.2292  0.1027
  177SLPC  H17R20196   4.624   6.407   9.090  0.1930 -0.8488 -0.2951
  177SLPC  H17S20197   4.468   6.481   9.060 -1.7056 -0.4219 -1.0618
  177SLPC  C21820198   4.518   6.346   8.896  0.4146  0.3150  0.3768
  177SLPC  H18R20199   4.414   6.333   8.861  0.7601  1.4283 -1.1677
  177SLPC  H18S20200   4.579   6.255   8.872  1.7631  1.0373  0.9406
  177SLPC  H18T20201   4.563   6.425   8.832  1.2460  0.7609  1.4730
  177SLPC   C3320202   4.577   5.706  10.133 -0.4381 -0.8773  0.2966
  177SLPC   H3X20203   4.484   5.742  10.183 -1.2658 -1.1540 -0.9913
  177SLPC   H3Y20204   4.567   5.605  10.087  0.6211 -0.7386 -0.2512
  177SLPC   C3420205   4.596   5.803  10.014 -0.0721  0.4940  0.1576
  177SLPC   H4X20206   4.611   5.904  10.058 -3.2288  0.4137  1.7370
  177SLPC   H4Y20207   4.499   5.805   9.959 -0.1119  1.7952  0.2249
  177SLPC   C3520208   4.702   5.757   9.918  0.3433 -0.5234  0.8241
  177SLPC   H5X20209   4.717   5.647   9.918 -0.8747 -0.7070  0.9739
  177SLPC   H5Y20210   4.799   5.802   9.948  0.8744 -0.6595 -0.6162
  177SLPC   C3620211   4.678   5.801   9.780  0.1033 -0.1559 -0.0972
  177SLPC   H6X20212   4.649   5.908   9.777  0.4281 -0.0869 -1.1026
  177SLPC   H6Y20213   4.595   5.736   9.746  0.0510 -0.0704 -0.1340
  177SLPC   C3720214   4.793   5.784   9.687 -0.1244 -0.2647 -0.1380
  177SLPC   H7X20215   4.827   5.681   9.662  0.2484 -0.1582 -0.0829
  177SLPC   H7Y20216   4.885   5.837   9.722 -0.3915  0.1745 -0.1001
  177SLPC   C3820217   4.749   5.852   9.551 -0.8332 -0.3160 -0.6874
  177SLPC   H8X20218   4.702   5.953   9.561  0.5628  0.5264 -2.0672
  177SLPC   H8Y20219   4.662   5.796   9.512 -2.8865 -0.1592  3.1883
  177SLPC   C3920220   4.864   5.852   9.451 -0.1393 -0.5620  0.1664
  177SLPC   H9X20221   4.914   5.753   9.439  2.8642  0.5632  2.1493
  177SLPC   H9Y20222   4.935   5.931   9.484  0.0423 -1.1989  1.3839
  177SLPC  C31020223   4.819   5.890   9.307 -0.5858  0.4811 -0.1765
  177SLPC  H10X20224   4.815   6.001   9.301 -1.0353  0.6064  1.7895
  177SLPC  H10Y20225   4.720   5.846   9.285 -0.5149 -1.4261  2.6699
  177SLPC  C31120226   4.921   5.846   9.202  0.8134  0.5343  0.4870
  177SLPC  H11X20227   4.949   5.741   9.224  0.1773  0.6101  1.7396
  177SLPC  H11Y20228   5.017   5.901   9.208  1.2543 -0.2676  0.9050
  177SLPC  C31220229   4.864   5.853   9.054  0.2885  0.4773  0.2126
  177SLPC  H12X20230   4.833   5.958   9.036 -0.1080  0.4173  0.5209
  177SLPC  H12Y20231   4.781   5.779   9.052  1.5753 -1.1705  2.5886
  177SLPC  C31320232   4.969   5.809   8.954  0.1909 -1.2209  0.4070
  177SLPC  H13X20233   5.009   5.711   8.988 -1.5329 -1.9959  0.3364
  177SLPC  H13Y20234   5.052   5.882   8.951 -1.1780  0.3829 -3.0768
  177SLPC  C31420235   4.927   5.800   8.805 -0.5199  0.1738 -0.2978
  177SLPC  H14X20236   4.894   5.900   8.769 -0.3915 -0.3418 -1.8947
  177SLPC  H14Y20237   4.836   5.738   8.787 -0.6921  0.1951  0.4626
  177SLPC  C31520238   5.050   5.763   8.716 -0.0589 -0.7464  0.2116
  177SLPC  H15X20239   5.089   5.665   8.748  0.2447 -0.2957  1.2703
  177SLPC  H15Y20240   5.124   5.842   8.741  0.7663 -1.5332  0.2743
  177SLPC  C31620241   5.022   5.757   8.565  0.7695 -0.0363 -0.3731
  177SLPC  H16X20242   5.111   5.724   8.508  1.2529 -0.0611  0.3802
  177SLPC  H16Y20243   4.997   5.855   8.519  1.8509  1.6650  2.4076
  177SLPC  C31720244   4.926   5.651   8.517  0.5156  0.6829 -0.7388
  177SLPC  H17X20245   4.826   5.695   8.533  0.7064  1.6137 -1.9305
  177SLPC  H17Y20246   4.937   5.561   8.582 -1.0525  1.5462  0.8059
  177SLPC  C31820247   4.941   5.616   8.367 -1.0456  0.0312 -0.0917
  177SLPC  H18X20248   5.047   5.594   8.343 -0.6919  1.4430  0.0629
  177SLPC  H18Y20249   4.906   5.696   8.298  1.2440  0.5770 -0.7079
  177SLPC  H18Z20250   4.886   5.522   8.347 -1.6801  0.0036  1.5889
  178SLPC     N20251   0.718   1.254  10.706 -0.4990 -0.4966  0.0967
  178SLPC   C1320252   0.693   1.131  10.783  0.0603 -0.2313 -0.2520
  178SLPC  H13A20253   0.784   1.105  10.835  2.2772  2.1882 -2.5954
  178SLPC  H13B20254   0.623   1.148  10.864  1.5578  0.8834  0.8933
  178SLPC  H13C20255   0.653   1.052  10.722  0.6118 -0.3543 -0.4601
  178SLPC   C1420256   0.828   1.242  10.607  0.3662 -0.4837  0.0748
  178SLPC  H14A20257   0.835   1.335  10.553 -0.8044 -1.0009 -0.9898
  178SLPC  H14B20258   0.923   1.230  10.658  0.1820  1.4499  0.9769
  178SLPC  H14C20259   0.811   1.173  10.526 -0.5218  0.8505 -0.9175
  178SLPC   C1520260   0.772   1.366  10.799 -0.7305 -0.7112 -0.1363
  178SLPC  H15A20261   0.828   1.440  10.744 -0.0345 -2.2858 -1.6181
  178SLPC  H15B20262   0.687   1.412  10.847  0.2522 -0.8701  1.8590
  178SLPC  H15C20263   0.841   1.321  10.868  1.6776 -0.1042 -1.9893
  178SLPC   C1220264   0.594   1.312  10.639  0.0103  0.0953 -0.1775
  178SLPC  H12A20265   0.563   1.249  10.557 -1.7629 -0.3475  0.7949
  178SLPC  H12B20266   0.616   1.413  10.607 -0.1583  0.7229  1.5640
  178SLPC   C1120267   0.459   1.338  10.716 -0.1304 -0.1014  0.4186
  178SLPC  H11A20268   0.440   1.249  10.780 -0.0757  2.6702  4.6047
  178SLPC  H11B20269   0.370   1.346  10.650 -0.4059  0.3505  0.8458
  178SLPC     P20270   0.386   1.576  10.822 -0.1839 -0.2015  0.1084
  178SLPC   O1320271   0.243   1.530  10.801 -0.3387  1.1008  0.5729
  178SLPC   O1420272   0.427   1.642  10.949 -0.6517  0.0738  0.3301
  178SLPC   O1220273   0.485   1.444  10.800  0.1336 -0.3869 -0.0662
  178SLPC   O1120274   0.437   1.664  10.700  0.1356 -0.1949 -0.5788
  178SLPC    C120275   0.357   1.759  10.639  0.6547  1.0505  0.2659
  178SLPC    HA20276   0.295   1.819  10.708  0.0302  0.4192  0.2662
  178SLPC    HB20277   0.434   1.829  10.599  1.0977  0.8091  0.6951
  178SLPC    C220278   0.285   1.719  10.504  0.1193  0.3201 -0.1387
  178SLPC    HS20279   0.204   1.651  10.536 -3.0567  3.7259 -0.2906
  178SLPC   O2120280   0.379   1.672  10.410  0.4152  0.3566  0.5254
  178SLPC   C2120281   0.354   1.551  10.358 -0.5093 -0.0137 -0.1888
  178SLPC   O2220282   0.250   1.488  10.363 -0.4709  0.2340  0.5678
  178SLPC   C2220283   0.468   1.527  10.259 -0.4632  0.6309  0.0200
  178SLPC   H2R20284   0.553   1.508  10.329  1.8192 -2.3470 -3.2454
  178SLPC   H2S20285   0.453   1.432  10.205 -0.7959 -0.7810  2.4462
  178SLPC    C320286   0.205   1.827  10.432 -0.2217  0.2501  0.2216
  178SLPC    HX20287   0.275   1.907  10.400 -1.3419 -0.1201 -3.7064
  178SLPC    HY20288   0.142   1.879  10.508  0.5137  1.6791 -0.1078
  178SLPC   O3120289   0.129   1.791  10.317  0.0808  0.4983 -0.2364
  178SLPC   C3120290   0.015   1.726  10.335 -0.9837 -0.1145  0.5699
  178SLPC   O3220291  -0.037   1.697  10.442 -0.3010  0.2451  0.4918
  178SLPC   C3220292  -0.026   1.677  10.198  0.1218 -0.3875  0.5775
  178SLPC   H2X20293   0.022   1.581  10.168 -1.0858  0.0994 -3.5776
  178SLPC   H2Y20294   0.008   1.752  10.122  1.6449  0.7902  2.3332
  178SLPC   C2320295   0.488   1.650  10.168  0.0540  1.5342 -0.3392
  178SLPC   H3R20296   0.569   1.625  10.095 -0.5039 -2.7696  0.2418
  178SLPC   H3S20297   0.537   1.732  10.226  2.1201 -0.9443  1.6671
  178SLPC   C2420298   0.361   1.680  10.081 -0.6790  0.2160 -0.1990
  178SLPC   H4R20299   0.292   1.753  10.130  0.0720  0.0846  1.1030
  178SLPC   H4S20300   0.301   1.588  10.063 -0.9909  0.7282 -1.9358
  178SLPC   C2520301   0.393   1.726   9.933  0.3763  0.0910 -0.1784
  178SLPC   H5R20302   0.290   1.732   9.892 -0.0538 -2.8283  0.3043
  178SLPC   H5S20303   0.461   1.656   9.880  1.6130 -0.3159  1.8231
  178SLPC   C2620304   0.455   1.872   9.922 -0.0819  0.1447 -0.1160
  178SLPC   H6R20305   0.545   1.866   9.986 -0.4095  0.8686  0.4277
  178SLPC   H6S20306   0.389   1.948   9.970  0.1777  0.4846 -0.2964
  178SLPC   C2720307   0.482   1.906   9.773 -0.1264  0.4350 -0.7173
  178SLPC   H7R20308   0.408   1.849   9.712 -0.4512  0.4325 -0.3186
  178SLPC   H7S20309   0.587   1.876   9.749  0.5772  3.1408 -1.3577
  178SLPC   C2820310   0.480   2.065   9.745  0.0408 -0.4809  0.3072
  178SLPC   H8R20311   0.540   2.079   9.652 -0.7473  0.6490 -0.0585
  178SLPC   H8S20312   0.523   2.123   9.830  0.3252 -0.8155  0.3945
  178SLPC   C2920313   0.343   2.108   9.708 -0.6117  0.3800 -0.1325
  178SLPC   H9R20314   0.286   2.152   9.792 -0.0721  2.3377 -0.7227
  178SLPC  C21020315   0.286   2.073   9.596  0.2835  1.3425 -0.5461
  178SLPC  H10R20316   0.184   2.108   9.574 -0.4522 -0.7793 -0.7778
  178SLPC  C21120317   0.343   1.992   9.480  0.1226 -0.4977  0.0900
  178SLPC  H11R20318   0.439   1.944   9.507  0.0789 -0.6330  0.0073
  178SLPC  H11S20319   0.366   2.066   9.400  0.6125  0.7007  1.3155
  178SLPC  C21220320   0.252   1.874   9.446 -1.2031  0.3741 -0.2172
  178SLPC  H12R20321   0.234   1.798   9.524 -1.0877  1.0743  0.5056
  178SLPC  C21320322   0.193   1.850   9.325  0.6935 -0.8426  0.9690
  178SLPC  H13R20323   0.132   1.758   9.321  0.6799 -0.8508  1.2821
  178SLPC  C21420324   0.193   1.947   9.207 -0.0818 -0.1793  0.0270
  178SLPC  H14R20325   0.275   1.922   9.136  0.8135 -0.2498  1.0658
  178SLPC  H14S20326   0.222   2.052   9.230  2.6188 -0.4681 -1.6136
  178SLPC  C21520327   0.064   1.946   9.119 -0.7027 -0.0078 -0.5130
  178SLPC  H15R20328   0.041   1.844   9.081 -1.0233  0.3516 -1.3298
  178SLPC  H15S20329   0.065   2.019   9.035  0.3366 -1.8642 -2.2021
  178SLPC  C21620330  -0.060   1.982   9.211  0.5493 -0.7272  0.2535
  178SLPC  H16R20331  -0.045   2.078   9.265 -2.2376 -1.0303  1.7336
  178SLPC  H16S20332  -0.062   1.903   9.289  1.2585  0.0500  1.0853
  178SLPC  C21720333  -0.196   1.986   9.130  0.1237 -0.2599  0.7755
  178SLPC  H17R20334  -0.200   2.077   9.067 -1.2217 -0.9624 -0.1986
  178SLPC  H17S20335  -0.271   1.985   9.213 -0.0741 -0.7826  0.5962
  178SLPC  C21820336  -0.226   1.869   9.038 -0.1157  0.6516  0.7631
  178SLPC  H18R20337  -0.151   1.858   8.956  0.8917  1.0886  1.6151
  178SLPC  H18S20338  -0.319   1.891   8.980  1.0834 -1.0904 -2.0746
  178SLPC  H18T20339  -0.247   1.776   9.094 -3.1540  1.1266  0.5953
  178SLPC   C3320340  -0.177   1.661  10.186 -0.2804 -0.0795  0.2038
  178SLPC   H3X20341  -0.223   1.758  10.213  2.9856  1.4621  0.8252
  178SLPC   H3Y20342  -0.214   1.597  10.269  0.3691 -1.0684 -0.2471
  178SLPC   C3420343  -0.224   1.622  10.045  0.2187 -0.1719  0.2041
  178SLPC   H4X20344  -0.163   1.533  10.017 -1.8608 -1.2733 -1.0414
  178SLPC   H4Y20345  -0.191   1.702   9.974  1.5722 -1.4779 -0.7093
  178SLPC   C3520346  -0.375   1.586  10.030 -0.2483  0.5194  0.1244
  178SLPC   H5X20347  -0.443   1.667  10.065  0.1387  1.9299 -2.1128
  178SLPC   H5Y20348  -0.399   1.493  10.086 -2.0034  0.7283 -0.2273
  178SLPC   C3620349  -0.416   1.574   9.886 -0.0108 -0.7369 -0.3615
  178SLPC   H6X20350  -0.329   1.524   9.838  0.4591 -1.8838  1.5654
  178SLPC   H6Y20351  -0.427   1.679   9.852 -0.2602 -0.5035  0.4034
  178SLPC   C3720352  -0.542   1.491   9.858  0.1313 -0.2541  0.0828
  178SLPC   H7X20353  -0.623   1.559   9.894  1.9499  2.0100  0.1391
  178SLPC   H7Y20354  -0.548   1.399   9.920  0.4897 -0.6715 -0.5034
  178SLPC   C3820355  -0.559   1.478   9.708 -0.2564  0.3447 -0.2957
  178SLPC   H8X20356  -0.465   1.440   9.663  1.0117  2.5292  0.3470
  178SLPC   H8Y20357  -0.578   1.575   9.657  0.6117  0.9214  0.4388
  178SLPC   C3920358  -0.681   1.383   9.676  0.5043 -0.2978  0.4734
  178SLPC   H9X20359  -0.770   1.405   9.738  0.2505  0.0378 -0.0082
  178SLPC   H9Y20360  -0.655   1.278   9.702 -2.7767 -1.1649  0.7368
  178SLPC  C31020361  -0.721   1.384   9.532 -0.2825 -0.0250 -0.7526
  178SLPC  H10X20362  -0.636   1.372   9.462 -0.3153  1.7766 -1.1435
  178SLPC  H10Y20363  -0.759   1.487   9.519 -0.2353  0.1078  0.0842
  178SLPC  C31120364  -0.842   1.299   9.504 -0.2504 -0.0346  0.4278
  178SLPC  H11X20365  -0.931   1.322   9.566 -0.4912  0.3238 -0.0467
  178SLPC  H11Y20366  -0.825   1.193   9.534  1.9214  0.4481  1.0510
  178SLPC  C31220367  -0.877   1.306   9.351  0.9889  0.2718 -0.2440
  178SLPC  H12X20368  -0.790   1.272   9.290  1.4396  2.2407 -0.7528
  178SLPC  H12Y20369  -0.884   1.413   9.322  0.4207 -0.3681 -2.6975
  178SLPC  C31320370  -1.007   1.231   9.309  0.3254  0.0365 -0.1609
  178SLPC  H13X20371  -1.020   1.259   9.202  3.4603 -0.7467 -0.8492
  178SLPC  H13Y20372  -1.094   1.278   9.359 -0.0913  1.8306 -2.4220
  178SLPC  C31420373  -1.007   1.079   9.324  0.3037  0.2821 -0.1132
  178SLPC  H14X20374  -0.980   1.056   9.429  0.6952 -1.6706 -0.6098
  178SLPC  H14Y20375  -0.934   1.031   9.256  0.7347 -0.2709  0.7220
  178SLPC  C31520376  -1.144   1.014   9.303 -0.3296 -0.0725 -0.3052
  178SLPC  H15X20377  -1.156   0.940   9.386  0.1622 -0.7775 -0.8455
  178SLPC  H15Y20378  -1.219   1.095   9.301  0.8441  1.0763  0.5002
  178SLPC  C31620379  -1.160   0.928   9.170  0.2078  0.1861  0.6206
  178SLPC  H16X20380  -1.260   0.879   9.166 -0.7004  1.7709  2.4088
  178SLPC  H16Y20381  -1.091   0.841   9.170 -1.2695 -1.0466  1.4918
  178SLPC  C31720382  -1.141   0.993   9.032  0.6544 -0.3321  0.2514
  178SLPC  H17X20383  -1.079   0.924   8.971  1.2386 -1.3749  1.9748
  178SLPC  H17Y20384  -1.083   1.088   9.035  2.3448 -1.3542  1.8460
  178SLPC  C31820385  -1.274   1.019   8.954  0.6292 -0.6101  0.1153
  178SLPC  H18X20386  -1.321   0.922   8.926 -0.0383 -0.5259  0.9281
  178SLPC  H18Y20387  -1.264   1.085   8.865 -0.4541  0.7855  0.9994
  178SLPC  H18Z20388  -1.345   1.068   9.023 -1.0103 -1.9315 -0.5785
  179SLPC     N20389   2.810   2.736  10.555  0.0290 -0.6764  0.2113
  179SLPC   C1320390   2.802   2.596  10.614 -0.6849  0.1164  0.2063
  179SLPC  H13A20391   2.846   2.601  10.713  1.4511 -1.4555 -0.6053
  179SLPC  H13B20392   2.701   2.559  10.617 -0.3330 -1.0574 -1.2923
  179SLPC  H13C20393   2.867   2.525  10.566  0.0098  0.7035  0.2570
  179SLPC   C1420394   2.726   2.718  10.427 -0.3879  0.5503  0.0137
  179SLPC  H14A20395   2.626   2.689  10.455 -0.7359  2.0532  0.4266
  179SLPC  H14B20396   2.710   2.809  10.372 -1.4914  0.1542 -0.3434
  179SLPC  H14C20397   2.778   2.650  10.361  1.2491  0.1941  1.5880
  179SLPC   C1520398   2.949   2.770  10.530  0.1594  0.0309 -0.0003
  179SLPC  H15A20399   2.991   2.704  10.455 -1.7942 -1.3028 -0.0008
  179SLPC  H15B20400   2.946   2.871  10.493  1.2339  0.1288  0.1408
  179SLPC  H15C20401   3.017   2.759  10.613  2.7070 -3.8484 -2.2648
  179SLPC   C1220402   2.734   2.834  10.642  0.2339  0.0447 -0.2322
  179SLPC  H12A20403   2.781   2.838  10.740 -0.9454 -0.0337  0.3521
  179SLPC  H12B20404   2.635   2.794  10.655 -0.1587  0.3188 -2.1814
  179SLPC   C1120405   2.727   2.989  10.591 -0.0571  0.5463  0.2132
  179SLPC  H11A20406   2.823   3.013  10.541  0.4535 -1.0038  0.3774
  179SLPC  H11B20407   2.735   3.043  10.687  3.0156 -0.3475  0.5757
  179SLPC     P20408   2.465   2.998  10.559 -0.3165 -0.4088  0.2227
  179SLPC   O1320409   2.453   2.880  10.644  0.1019 -0.2149  0.0554
  179SLPC   O1420410   2.427   3.127  10.620 -0.0301 -0.5514  0.0008
  179SLPC   O1220411   2.610   3.007  10.502  0.1055  0.0138 -0.3041
  179SLPC   O1120412   2.376   2.975  10.434 -0.2321  0.1529 -0.0440
  179SLPC    C120413   2.429   2.960  10.301  0.2912 -0.3403  0.3719
  179SLPC    HA20414   2.524   2.902  10.302  0.6505  0.1999 -0.8091
  179SLPC    HB20415   2.357   2.898  10.245  0.0177 -0.1587  0.5219
  179SLPC    C220416   2.450   3.100  10.229 -0.5291 -0.0932 -0.3022
  179SLPC    HS20417   2.506   3.168  10.297 -0.7527  0.6122 -0.8121
  179SLPC   O2120418   2.321   3.155  10.199 -0.3569 -0.2925 -0.1250
  179SLPC   C2120419   2.319   3.287  10.179 -0.6831  0.2040  0.9523
  179SLPC   O2220420   2.417   3.356  10.161 -0.8989 -0.3073  0.3644
  179SLPC   C2220421   2.180   3.324  10.138 -0.1238  0.4375  0.3950
  179SLPC   H2R20422   2.108   3.288  10.215  0.2267  0.1669  0.6021
  179SLPC   H2S20423   2.181   3.435  10.131  1.5357  0.3440 -2.0991
  179SLPC    C320424   2.539   3.073  10.099 -0.2529 -0.3903 -0.2419
  179SLPC    HX20425   2.639   3.034  10.128 -0.9444 -0.1541  2.7589
  179SLPC    HY20426   2.558   3.172  10.052  0.1104 -1.1137 -1.7132
  179SLPC   O3120427   2.480   2.983  10.001  0.5790 -0.3647 -0.0216
  179SLPC   C3120428   2.542   2.980   9.885 -0.4221 -0.3783 -0.9116
  179SLPC   O3220429   2.647   3.037   9.858  0.2335  0.7252  0.4749
  179SLPC   C3220430   2.462   2.898   9.788 -0.1389  0.3524  0.2967
  179SLPC   H2X20431   2.450   2.800   9.838  4.0163 -0.3680  0.2284
  179SLPC   H2Y20432   2.532   2.883   9.703  1.7441  0.5926  1.7367
  179SLPC   C2320433   2.146   3.274   9.994 -0.3936  0.7204 -0.2592
  179SLPC   H3R20434   2.042   3.310   9.981 -0.6480  0.5273  1.0844
  179SLPC   H3S20435   2.140   3.163   9.990 -0.2469  0.5418  2.3471
  179SLPC   C2420436   2.220   3.328   9.878  0.2716  0.0376  0.2842
  179SLPC   H4R20437   2.316   3.276   9.861  0.7181  0.1958  2.1164
  179SLPC   H4S20438   2.264   3.430   9.886  1.3322 -0.1355 -2.3410
  179SLPC   C2520439   2.138   3.303   9.747  0.2442 -0.8969 -0.2749
  179SLPC   H5R20440   2.060   3.381   9.751  1.6454  0.4972  2.2586
  179SLPC   H5S20441   2.099   3.199   9.749  1.5924 -1.4303  2.1410
  179SLPC   C2620442   2.206   3.328   9.612 -0.4242 -0.4423 -0.2511
  179SLPC   H6R20443   2.271   3.241   9.589 -0.8123 -0.9633  0.5930
  179SLPC   H6S20444   2.271   3.415   9.636  0.1159 -0.4307 -1.6362
  179SLPC   C2720445   2.108   3.352   9.501 -0.2855  0.6437 -0.3200
  179SLPC   H7R20446   2.050   3.441   9.535 -0.3188  0.5809 -0.2125
  179SLPC   H7S20447   2.043   3.263   9.488  1.7644 -0.9251 -0.2616
  179SLPC   C2820448   2.165   3.384   9.354 -0.1929 -0.4351  0.7590
  179SLPC   H8R20449   2.081   3.372   9.281  0.3481  0.3120 -0.0058
  179SLPC   H8S20450   2.233   3.301   9.325 -0.9848 -0.2088 -2.1382
  179SLPC   C2920451   2.234   3.512   9.326 -0.2707 -0.0855 -0.5733
  179SLPC   H9R20452   2.330   3.526   9.378 -0.0993  1.8624 -1.3396
  179SLPC  C21020453   2.215   3.599   9.226 -0.4933  0.0079  0.7249
  179SLPC  H10R20454   2.277   3.690   9.226 -2.9981  1.8903 -1.7069
  179SLPC  C21120455   2.116   3.589   9.112  0.1335 -0.1762  0.8507
  179SLPC  H11R20456   2.100   3.483   9.082 -1.9348  0.5857 -1.0420
  179SLPC  H11S20457   2.164   3.617   9.016 -1.7056  0.5709  0.1112
  179SLPC  C21220458   1.982   3.650   9.125 -0.1683 -0.3289 -0.2311
  179SLPC  H12R20459   1.947   3.661   9.229  0.9786 -0.0625  0.1456
  179SLPC  C21320460   1.911   3.702   9.022 -0.2295 -0.3689 -0.4479
  179SLPC  H13R20461   1.815   3.750   9.047  0.7343  0.8593  1.0902
  179SLPC  C21420462   1.948   3.693   8.879 -0.7213  1.1600 -0.1632
  179SLPC  H14R20463   1.857   3.661   8.825  1.0916 -0.6987 -2.3153
  179SLPC  H14S20464   2.027   3.620   8.852 -0.8654  0.4788  1.1400
  179SLPC  C21520465   1.977   3.835   8.824 -0.2414  0.0618 -0.1594
  179SLPC  H15R20466   2.075   3.873   8.860  0.1676  0.0181 -1.1810
  179SLPC  H15S20467   1.897   3.910   8.842 -0.6998 -0.3010 -0.6524
  179SLPC  C21620468   2.012   3.837   8.673 -0.2605  0.1398  0.4308
  179SLPC  H16R20469   1.956   3.766   8.609 -0.2138  2.7342 -2.7383
  179SLPC  H16S20470   2.121   3.822   8.655 -0.2896  0.7277 -0.2730
  179SLPC  C21720471   1.976   3.973   8.610 -0.3894  0.0755  0.1552
  179SLPC  H17R20472   2.033   4.060   8.647  0.0052  0.1650 -0.6357
  179SLPC  H17S20473   1.870   3.990   8.638 -0.4033 -0.9898  0.8086
  179SLPC  C21820474   1.972   3.969   8.455  0.0262  0.2483 -0.4839
  179SLPC  H18R20475   2.056   3.913   8.409 -1.7121 -0.5873 -2.8168
  179SLPC  H18S20476   1.980   4.073   8.418 -1.1254  0.6420  0.3066
  179SLPC  H18T20477   1.871   3.931   8.426  0.2002  0.7597 -1.8325
  179SLPC   C3320478   2.325   2.964   9.741  0.1341 -0.1929  0.1616
  179SLPC   H3X20479   2.345   3.073   9.734  2.1329 -0.4861  0.6999
  179SLPC   H3Y20480   2.261   2.947   9.831  1.2368  1.0833  1.2328
  179SLPC   C3420481   2.250   2.903   9.620  0.4577 -0.0684  0.4255
  179SLPC   H4X20482   2.142   2.927   9.626  0.4364 -0.0152 -0.0866
  179SLPC   H4Y20483   2.258   2.793   9.638  0.2176 -0.2519 -0.5291
  179SLPC   C3520484   2.322   2.952   9.494  1.4028  0.2984  0.5276
  179SLPC   H5X20485   2.429   2.924   9.503  0.8955 -1.6029  1.0100
  179SLPC   H5Y20486   2.308   3.062   9.499  2.4826  0.4104  1.4535
  179SLPC   C3620487   2.276   2.897   9.364 -0.4866  0.2202 -0.1098
  179SLPC   H6X20488   2.166   2.912   9.361 -0.2668  2.2832  0.7864
  179SLPC   H6Y20489   2.291   2.787   9.360 -2.4851 -0.0608 -1.2274
  179SLPC   C3720490   2.332   2.974   9.242  0.5742  0.0186  0.1151
  179SLPC   H7X20491   2.443   2.982   9.237  0.4416  1.1293 -3.8185
  179SLPC   H7Y20492   2.290   3.077   9.241  0.3298 -0.0710  0.5958
  179SLPC   C3820493   2.286   2.896   9.113  0.6694 -0.2702 -0.8408
  179SLPC   H8X20494   2.177   2.876   9.129  0.4447  0.0153 -1.9449
  179SLPC   H8Y20495   2.344   2.802   9.100 -0.1864 -1.1474  1.2575
  179SLPC   C3920496   2.303   2.970   8.980  0.4607 -0.5833 -0.7789
  179SLPC   H9X20497   2.408   2.999   8.955  1.2230 -2.7289 -0.3119
  179SLPC   H9Y20498   2.231   3.054   8.986 -0.2309 -1.0889 -1.8247
  179SLPC  C31020499   2.263   2.890   8.858 -0.4279  0.6097  0.0375
  179SLPC  H10X20500   2.155   2.902   8.837 -0.1544  1.4473 -0.9386
  179SLPC  H10Y20501   2.289   2.782   8.867 -3.1041 -0.0294  1.3245
  179SLPC  C31120502   2.338   2.947   8.743 -0.7221  0.1935 -0.3131
  179SLPC  H11X20503   2.447   2.948   8.766 -1.0596  0.1974  1.4015
  179SLPC  H11Y20504   2.301   3.052   8.736 -1.7109 -0.2111 -1.5149
  179SLPC  C31220505   2.303   2.884   8.607 -0.4008 -0.0015  0.3344
  179SLPC  H12X20506   2.348   2.950   8.530  1.3859 -0.6644  0.7791
  179SLPC  H12Y20507   2.193   2.881   8.588 -0.6842  2.4168  1.1359
  179SLPC  C31320508   2.386   2.757   8.582 -0.5822 -0.5152 -0.4335
  179SLPC  H13X20509   2.351   2.689   8.662 -1.5118  1.8256  1.2571
  179SLPC  H13Y20510   2.492   2.786   8.604 -0.9708  1.4522 -0.9266
  179SLPC  C31420511   2.369   2.690   8.445 -0.1717  0.3062  0.1295
  179SLPC  H14X20512   2.454   2.621   8.428  0.2347 -0.1038  3.1756
  179SLPC  H14Y20513   2.358   2.766   8.364  0.3396 -0.1268 -0.3457
  179SLPC  C31520514   2.236   2.613   8.452 -0.3636 -0.2414 -0.2956
  179SLPC  H15X20515   2.142   2.669   8.475  0.7913  1.3603  0.7816
  179SLPC  H15Y20516   2.255   2.536   8.529  0.6036  1.4593  1.2511
  179SLPC  C31620517   2.200   2.540   8.325 -0.5509 -0.4581  0.7744
  179SLPC  H16X20518   2.100   2.494   8.332 -0.9533  0.4963  1.6360
  179SLPC  H16Y20519   2.286   2.471   8.310  0.8019  0.9017  1.8500
  179SLPC  C31720520   2.202   2.621   8.200 -0.2038 -0.1056 -0.4463
  179SLPC  H17X20521   2.304   2.621   8.155 -0.0848 -1.5114 -0.2094
  179SLPC  H17Y20522   2.178   2.727   8.224  0.0671  0.0858 -0.9979
  179SLPC  C31820523   2.094   2.580   8.098  0.4328 -0.3503  0.5071
  179SLPC  H18X20524   1.996   2.609   8.140  0.0561 -2.4598  1.1844
  179SLPC  H18Y20525   2.102   2.470   8.084 -1.4981 -1.0185  3.7031
  179SLPC  H18Z20526   2.108   2.624   7.997 -2.2365  0.3905  0.3853
  180SLPC     N20527   1.824   0.240  10.927  0.6613 -0.1248  0.0674
  180SLPC   C1320528   1.793   0.117  10.852  0.0251  0.2902  0.3939
  180SLPC  H13A20529   1.733   0.044  10.904  2.3349 -1.6238  0.5369
  180SLPC  H13B20530   1.737   0.137  10.761  1.7588 -1.6809 -1.2010
  180SLPC  H13C20531   1.884   0.068  10.822 -0.7906 -0.6594 -0.5992
  180SLPC   C1420532   1.877   0.192  11.053 -0.2147  0.9131 -0.2361
  180SLPC  H14A20533   1.893   0.260  11.135  1.7519 -0.2301  0.4098
  180SLPC  H14B20534   1.813   0.117  11.095  2.3697 -0.9250  0.6808
  180SLPC  H14C20535   1.971   0.144  11.027  0.5816  1.9464  0.6287
  180SLPC   C1520536   1.690   0.305  10.955  0.7731 -0.7153 -0.5004
  180SLPC  H15A20537   1.654   0.329  10.856 -0.3623  3.1678  0.6742
  180SLPC  H15B20538   1.625   0.251  11.023 -1.7481  1.8725 -0.6705
  180SLPC  H15C20539   1.713   0.403  10.993 -2.4424 -0.0333 -0.0338
  180SLPC   C1220540   1.919   0.333  10.854  0.2575  0.7198  0.4321
  180SLPC  H12A20541   1.886   0.366  10.756 -1.9151  0.6299  1.0882
  180SLPC  H12B20542   2.011   0.276  10.843 -0.0150  0.6000 -1.7035
  180SLPC   C1120543   1.951   0.466  10.932 -0.2943  0.5624  0.1380
  180SLPC  H11A20544   2.037   0.520  10.886 -1.3145  2.3646  0.2317
  180SLPC  H11B20545   1.992   0.445  11.033 -1.2848  1.5116  0.7547
  180SLPC     P20546   1.778   0.622  10.812  0.0294 -0.1398  0.3252
  180SLPC   O1320547   1.665   0.545  10.761 -0.0396 -0.6361 -0.6198
  180SLPC   O1420548   1.745   0.757  10.857 -0.6595 -0.0705  0.3790
  180SLPC   O1220549   1.835   0.546  10.933  0.1790  0.0558 -0.6865
  180SLPC   O1120550   1.895   0.621  10.710  0.5872 -0.0495  0.4717
  180SLPC    C120551   1.993   0.726  10.716 -0.8076  0.0949 -0.5875
  180SLPC    HA20552   2.007   0.759  10.821  1.2285 -3.4396  0.4195
  180SLPC    HB20553   2.087   0.683  10.674 -1.2471  0.8503 -2.4783
  180SLPC    C220554   1.956   0.839  10.618  0.2872  0.2692  0.1656
  180SLPC    HS20555   1.867   0.887  10.664  0.0216  0.4909 -0.5644
  180SLPC   O2120556   1.911   0.773  10.498 -0.3134  0.2467 -0.2457
  180SLPC   C2120557   1.797   0.790  10.444  0.4344  0.2884  0.1955
  180SLPC   O2220558   1.707   0.867  10.482  0.3781 -0.0925 -0.3221
  180SLPC   C2220559   1.801   0.730  10.296 -0.2990 -0.0783 -0.0116
  180SLPC   H2R20560   1.889   0.783  10.254 -0.4122  1.2022  1.2592
  180SLPC   H2S20561   1.828   0.623  10.307  0.1135 -0.2073 -1.9962
  180SLPC    C320562   2.072   0.945  10.594 -0.1602  0.2045  0.0347
  180SLPC    HX20563   2.167   0.892  10.571  0.0016  1.9118 -3.9238
  180SLPC    HY20564   2.084   1.004  10.687 -2.0678  0.4946  0.1449
  180SLPC   O3120565   2.041   1.033  10.479 -0.3455  0.7428 -0.2813
  180SLPC   C3120566   1.975   1.147  10.507 -0.0232 -0.3057  0.6782
  180SLPC   O3220567   1.932   1.180  10.614  0.2613  0.2984 -0.1179
  180SLPC   C3220568   1.960   1.224  10.377  0.7204  0.3059  0.5337
  180SLPC   H2X20569   2.062   1.256  10.348  0.9435 -0.7156  0.1400
  180SLPC   H2Y20570   1.904   1.320  10.385 -0.2002 -0.0688 -1.1079
  180SLPC   C2320571   1.665   0.748  10.223 -0.7913  0.3949 -0.3051
  180SLPC   H3R20572   1.620   0.846  10.250  0.0190  0.9654 -0.9646
  180SLPC   H3S20573   1.590   0.669  10.240  0.7216 -1.3216 -1.3034
  180SLPC   C2420574   1.688   0.756  10.069  0.1772  0.0745  0.1310
  180SLPC   H4R20575   1.782   0.813  10.049  0.1499 -0.6444 -2.4209
  180SLPC   H4S20576   1.601   0.807  10.022 -0.4217 -1.7127 -0.8136
  180SLPC   C2520577   1.701   0.615  10.010 -0.1949 -0.3837  0.7269
  180SLPC   H5R20578   1.620   0.549  10.048  0.1934 -2.1695 -1.3519
  180SLPC   H5S20579   1.799   0.568  10.034 -0.8336 -1.2883  1.6571
  180SLPC   C2620580   1.664   0.632   9.860 -0.9446 -0.4868  0.5048
  180SLPC   H6R20581   1.712   0.724   9.819 -3.5975  1.0860  0.6927
  180SLPC   H6S20582   1.554   0.626   9.846 -1.0921  0.7861  0.9697
  180SLPC   C2720583   1.710   0.507   9.777  0.1553  0.0978  0.2815
  180SLPC   H7R20584   1.658   0.426   9.833 -0.4682  0.3094  0.0092
  180SLPC   H7S20585   1.821   0.497   9.782  0.1690  0.4091  0.7001
  180SLPC   C2820586   1.665   0.504   9.626 -0.5972 -0.3581  0.2278
  180SLPC   H8R20587   1.557   0.507   9.650 -0.0722  2.1530  2.9574
  180SLPC   H8S20588   1.680   0.402   9.585 -4.1825 -1.1106  0.4541
  180SLPC   C2920589   1.698   0.627   9.548 -0.4513 -0.5985  0.3836
  180SLPC   H9R20590   1.707   0.719   9.609  0.3192 -1.2839  1.3252
  180SLPC  C21020591   1.725   0.645   9.416 -0.4705 -0.4513 -0.5760
  180SLPC  H10R20592   1.774   0.736   9.378 -0.1666 -0.5804 -0.5033
  180SLPC  C21120593   1.725   0.530   9.319  0.4841 -0.5225  0.3825
  180SLPC  H11R20594   1.676   0.441   9.364 -2.9877  1.5092  1.0216
  180SLPC  H11S20595   1.826   0.499   9.286  0.8888  2.0612 -1.0785
  180SLPC  C21220596   1.655   0.585   9.197 -0.4514  0.4169  0.5244
  180SLPC  H12R20597   1.613   0.687   9.208 -1.6745  0.1472 -1.1833
  180SLPC  C21320598   1.624   0.522   9.082  0.4262  0.0293 -0.0205
  180SLPC  H13R20599   1.583   0.581   8.998  1.9058 -1.8054 -2.1533
  180SLPC  C21420600   1.655   0.379   9.047  0.2839 -0.4146 -0.4045
  180SLPC  H14R20601   1.567   0.318   9.078 -2.2379  2.5215 -1.3168
  180SLPC  H14S20602   1.735   0.341   9.113 -0.8064 -1.4851  0.3415
  180SLPC  C21520603   1.678   0.359   8.898 -0.3510  0.4482  0.0834
  180SLPC  H15R20604   1.754   0.279   8.891 -0.9947 -0.4422  2.4911
  180SLPC  H15S20605   1.722   0.451   8.852 -0.4086 -0.0694 -1.0288
  180SLPC  C21620606   1.545   0.325   8.817 -0.0415  0.1472  0.4506
  180SLPC  H16R20607   1.485   0.417   8.838  1.8887  1.2697  1.4144
  180SLPC  H16S20608   1.494   0.236   8.859 -0.7882 -0.2204 -1.1866
  180SLPC  C21720609   1.574   0.295   8.672  0.4351 -0.3354 -0.5068
  180SLPC  H17R20610   1.601   0.188   8.655 -1.7400 -0.6206 -2.7523
  180SLPC  H17S20611   1.654   0.363   8.636  0.3510  0.9490  1.5644
  180SLPC  C21820612   1.451   0.316   8.585 -0.9640  0.0422  0.7746
  180SLPC  H18R20613   1.487   0.302   8.481  0.4360 -0.2476  1.2759
  180SLPC  H18S20614   1.414   0.421   8.591 -1.9677 -0.3794  2.7653
  180SLPC  H18T20615   1.383   0.232   8.610  1.2312 -1.7824  0.9477
  180SLPC   C3320616   1.902   1.139  10.267  0.5039  0.0561  0.9329
  180SLPC   H3X20617   1.935   1.033  10.253 -0.0315  0.1667 -1.7120
  180SLPC   H3Y20618   1.944   1.177  10.171 -0.6623  0.5225  0.5998
  180SLPC   C3420619   1.753   1.146  10.245 -0.3215 -0.2748 -0.1786
  180SLPC   H4X20620   1.724   1.252  10.264  0.3475  0.2070 -1.6640
  180SLPC   H4Y20621   1.693   1.080  10.310 -2.1989  1.0274 -0.4952
  180SLPC   C3520622   1.703   1.120  10.097  0.1395  0.2376 -0.2726
  180SLPC   H5X20623   1.739   1.020  10.068  0.2961 -0.1662  1.2359
  180SLPC   H5Y20624   1.759   1.198  10.041 -0.0810  1.7797  1.5225
  180SLPC   C3620625   1.551   1.135  10.079 -0.0409 -0.1626  0.1256
  180SLPC   H6X20626   1.527   1.217  10.150 -2.2382 -0.8474  0.2476
  180SLPC   H6Y20627   1.498   1.052  10.131  0.1610 -0.3291  0.0682
  180SLPC   C3720628   1.505   1.177   9.935 -0.5907 -0.0933  0.3307
  180SLPC   H7X20629   1.538   1.280   9.910 -2.1548 -0.0408 -1.8064
  180SLPC   H7Y20630   1.394   1.185   9.944 -0.9397 -2.1970 -1.3597
  180SLPC   C3820631   1.536   1.069   9.836  0.3828 -0.3433  0.5820
  180SLPC   H8X20632   1.482   0.979   9.875 -1.5146  0.9197  1.0039
  180SLPC   H8Y20633   1.644   1.044   9.845  0.4857 -0.3545 -0.4801
  180SLPC   C3920634   1.512   1.112   9.688 -0.5400  0.1979  0.1933
  180SLPC   H9X20635   1.549   1.214   9.662 -0.4370 -0.3507 -1.9275
  180SLPC   H9Y20636   1.403   1.110   9.668 -0.7886 -1.2044  1.5172
  180SLPC  C31020637   1.566   1.010   9.580 -1.0387 -0.6151  0.5537
  180SLPC  H10X20638   1.526   0.907   9.589 -0.3724 -0.9846 -0.5959
  180SLPC  H10Y20639   1.676   1.001   9.594 -0.6375  0.9223 -1.2369
  180SLPC  C31120640   1.544   1.064   9.437 -0.5438  0.8247 -0.8422
  180SLPC  H11X20641   1.625   1.136   9.411  0.7091  0.1448  0.9518
  180SLPC  H11Y20642   1.447   1.117   9.442 -0.2663  1.2110  0.8033
  180SLPC  C31220643   1.540   0.958   9.333  0.0506  0.1498 -0.1417
  180SLPC  H12X20644   1.459   0.889   9.365  1.0673 -0.6384  0.8149
  180SLPC  H12Y20645   1.639   0.909   9.335 -0.1315 -0.2334 -0.4356
  180SLPC  C31320646   1.504   1.023   9.197  0.4197  0.3825  0.4137
  180SLPC  H13X20647   1.579   1.101   9.170  0.4868 -0.1910 -1.2097
  180SLPC  H13Y20648   1.407   1.076   9.206  0.6506  1.4300 -2.1453
  180SLPC  C31420649   1.492   0.921   9.084  0.0470 -0.2135 -0.3457
  180SLPC  H14X20650   1.436   0.831   9.118  0.7938 -0.8311 -0.7328
  180SLPC  H14Y20651   1.597   0.893   9.066 -0.3018 -0.6541 -1.8652
  180SLPC  C31520652   1.415   0.978   8.957 -0.8401  0.0066 -0.0488
  180SLPC  H15X20653   1.484   1.047   8.904 -0.6964 -1.0198 -1.2613
  180SLPC  H15Y20654   1.318   1.029   8.975 -1.3259 -0.8876 -0.0931
  180SLPC  C31620655   1.383   0.869   8.852  0.7683  0.7096 -0.0176
  180SLPC  H16X20656   1.308   0.802   8.898  1.0790  0.3022 -0.0974
  180SLPC  H16Y20657   1.476   0.809   8.840  0.2574 -0.3207  0.9768
  180SLPC  C31720658   1.339   0.901   8.701  1.0802 -0.2074  0.1492
  180SLPC  H17X20659   1.414   0.972   8.660  0.1441  1.4054  1.1250
  180SLPC  H17Y20660   1.244   0.958   8.695  0.8717 -0.5636  0.0664
  180SLPC  C31820661   1.324   0.769   8.620  0.7840 -0.7743 -0.4065
  180SLPC  H18X20662   1.427   0.726   8.615  1.2576  0.4426 -2.3944
  180SLPC  H18Y20663   1.288   0.783   8.516  0.1166 -1.9924 -0.3486
  180SLPC  H18Z20664   1.258   0.703   8.679  0.5133 -1.4427 -1.4208
  181SLPC     N20665   5.908   5.860  10.819 -0.0818 -0.6983 -0.4146
  181SLPC   C1320666   5.805   5.951  10.754 -0.4327  0.0813  0.6428
  181SLPC  H13A20667   5.716   5.899  10.721 -0.3799  0.4695 -0.1216
  181SLPC  H13B20668   5.768   6.030  10.818 -2.3431  0.0134 -0.3087
  181SLPC  H13C20669   5.835   6.001  10.664  0.6469 -1.6142  0.0101
  181SLPC   C1420670   6.014   5.938  10.889 -0.2625  0.0989  0.4332
  181SLPC  H14A20671   5.977   5.974  10.983  1.3825  1.7123  0.5263
  181SLPC  H14B20672   6.110   5.890  10.906 -1.3655 -2.1208  0.7377
  181SLPC  H14C20673   6.047   6.020  10.828  1.4659 -0.2091  0.8901
  181SLPC   C1520674   5.960   5.771  10.709 -0.8424  0.3565  0.1075
  181SLPC  H15A20675   6.010   5.825  10.629  0.9234  1.3905  1.8270
  181SLPC  H15B20676   6.037   5.705  10.745 -0.4155  1.1717  0.7267
  181SLPC  H15C20677   5.881   5.704  10.676 -0.9510  0.7013 -0.3470
  181SLPC   C1220678   5.844   5.769  10.925  0.0478  0.5904  0.1202
  181SLPC  H12A20679   5.764   5.711  10.882 -0.0099 -0.3963  1.5105
  181SLPC  H12B20680   5.796   5.823  11.005 -4.4732 -4.4310  1.3524
  181SLPC   C1120681   5.943   5.669  10.995  0.4832 -0.7801 -0.2918
  181SLPC  H11A20682   5.895   5.622  11.083  1.3387  0.6783  0.9923
  181SLPC  H11B20683   6.022   5.725  11.049  0.0486  0.1658 -0.6166
  181SLPC     P20684   6.143   5.503  10.923 -0.3178 -0.0466  0.3179
  181SLPC   O1320685   6.217   5.544  11.043 -0.6428  0.2250 -0.1593
  181SLPC   O1420686   6.136   5.359  10.910  0.0780  0.4853  0.4084
  181SLPC   O1220687   5.996   5.570  10.910 -0.2939  1.1828 -0.1615
  181SLPC   O1120688   6.234   5.569  10.816 -0.5252  0.3013 -0.4596
  181SLPC    C120689   6.247   5.502  10.691 -0.1779 -0.1828 -0.2634
  181SLPC    HA20690   6.304   5.407  10.694  1.9370  0.8318 -3.2824
  181SLPC    HB20691   6.154   5.460  10.648 -0.2344 -1.8803  1.3962
  181SLPC    C220692   6.316   5.586  10.581  0.8290  0.3646  0.0025
  181SLPC    HS20693   6.417   5.618  10.613  0.2718  1.0271  1.1605
  181SLPC   O2120694   6.236   5.703  10.550 -0.0546 -0.0974 -0.3920
  181SLPC   C2120695   6.297   5.802  10.488  0.2070 -0.3305 -0.3365
  181SLPC   O2220696   6.416   5.811  10.461  0.9246 -0.1541 -0.0270
  181SLPC   C2220697   6.188   5.902  10.451  0.3809  0.5834 -0.4739
  181SLPC   H2R20698   6.103   5.845  10.407  1.1430 -0.0888 -1.1199
  181SLPC   H2S20699   6.160   5.957  10.544  0.0023  0.6611 -0.6296
  181SLPC    C320700   6.332   5.489  10.459 -0.2468  0.4503 -0.3763
  181SLPC    HX20701   6.230   5.450  10.439  0.8754 -1.7255 -2.3910
  181SLPC    HY20702   6.391   5.400  10.489  0.0025  1.1631  1.3306
  181SLPC   O3120703   6.377   5.545  10.342  0.2706  0.0412  0.7729
  181SLPC   C3120704   6.508   5.563  10.324  0.1484 -0.3935 -0.2371
  181SLPC   O3220705   6.587   5.533  10.414  0.4935  0.4425  0.1288
  181SLPC   C3220706   6.537   5.629  10.187 -0.6952 -0.2493 -0.1025
  181SLPC   H2X20707   6.642   5.664  10.200 -1.1046  0.0743  2.9822
  181SLPC   H2Y20708   6.463   5.712  10.183 -1.3269 -0.5158  3.4065
  181SLPC   C2320709   6.221   6.015  10.345  0.1010 -0.0890 -0.4099
  181SLPC   H3R20710   6.301   6.084  10.379  1.1307 -0.7988 -1.3382
  181SLPC   H3S20711   6.128   6.074  10.328  0.4028 -0.0144 -1.9495
  181SLPC   C2420712   6.259   5.954  10.216  0.8778  0.4417  0.3121
  181SLPC   H4R20713   6.345   5.886  10.228  0.7942  0.0077 -1.3043
  181SLPC   H4S20714   6.296   6.039  10.155  0.7932  0.3086  0.0737
  181SLPC   C2520715   6.145   5.884  10.138 -0.2216  0.1170 -0.0821
  181SLPC   H5R20716   6.058   5.950  10.117 -1.1230 -1.6396 -2.1688
  181SLPC   H5S20717   6.108   5.801  10.203 -0.6257  1.0371  0.9027
  181SLPC   C2620718   6.204   5.810  10.015  0.1190  0.2186  0.7142
  181SLPC   H6R20719   6.245   5.711  10.043  0.2262 -0.0987 -0.5244
  181SLPC   H6S20720   6.283   5.867   9.963  0.2938 -1.2320 -0.7037
  181SLPC   C2720721   6.091   5.771   9.916 -0.4684  0.1845 -0.2037
  181SLPC   H7R20722   6.133   5.728   9.823  0.8773  1.2637 -0.1299
  181SLPC   H7S20723   6.048   5.872   9.898  1.9497  1.6010  1.2770
  181SLPC   C2820724   5.982   5.676   9.971 -0.2516 -0.4954 -0.3499
  181SLPC   H8R20725   5.905   5.650   9.896  0.4279  0.7039 -1.5113
  181SLPC   H8S20726   5.932   5.734  10.051  1.6652 -1.0363  1.3427
  181SLPC   C2920727   6.046   5.548  10.025 -0.5011  0.0936  0.7154
  181SLPC   H9R20728   6.067   5.562  10.132  0.8173  3.2299  0.1557
  181SLPC  C21020729   6.087   5.432   9.972 -0.4385 -0.1344  0.0015
  181SLPC  H10R20730   6.112   5.352  10.043 -1.4987 -0.6025 -0.1273
  181SLPC  C21120731   6.085   5.397   9.831  0.3298 -1.3450 -0.1843
  181SLPC  H11R20732   6.186   5.362   9.801  1.6846  2.3934 -0.4603
  181SLPC  H11S20733   6.088   5.490   9.771  2.5349 -0.9506  0.4536
  181SLPC  C21220734   5.963   5.311   9.787  0.5817 -0.3311  0.0766
  181SLPC  H12R20735   5.868   5.350   9.828  0.8202  0.2067  0.1313
  181SLPC  C21320736   5.957   5.194   9.719 -0.7250  0.1870 -0.0278
  181SLPC  H13R20737   5.862   5.146   9.693 -0.8235 -0.0247  0.7031
  181SLPC  C21420738   6.079   5.118   9.667  0.3606  0.6900 -0.0919
  181SLPC  H14R20739   6.070   5.010   9.693  0.3118  1.0730  1.6135
  181SLPC  H14S20740   6.170   5.140   9.727 -0.2355  1.7565  0.4510
  181SLPC  C21520741   6.109   5.129   9.512 -0.5455  1.0044 -0.1023
  181SLPC  H15R20742   6.207   5.084   9.486 -0.8923  1.2612 -1.9506
  181SLPC  H15S20743   6.106   5.235   9.479 -1.8407  1.1880  0.5176
  181SLPC  C21620744   5.996   5.053   9.438  0.4230 -0.0856 -0.0578
  181SLPC  H16R20745   5.895   5.085   9.473  0.0410 -2.3004  1.0463
  181SLPC  H16S20746   6.010   4.944   9.459  0.6032 -0.4191 -1.7336
  181SLPC  C21720747   6.002   5.061   9.286 -0.6740 -0.4668  0.8615
  181SLPC  H17R20748   5.906   5.035   9.236 -0.9739  0.2355  1.0603
  181SLPC  H17S20749   6.076   4.983   9.259 -0.5814  0.5662 -2.1773
  181SLPC  C21820750   6.052   5.191   9.221  0.5201 -0.7498 -0.2075
  181SLPC  H18R20751   6.049   5.183   9.110 -0.4965  0.3276 -0.2703
  181SLPC  H18S20752   6.155   5.214   9.254 -0.0003  0.0662  0.8934
  181SLPC  H18T20753   5.980   5.268   9.254 -0.0444 -1.7814  1.0786
  181SLPC   C3320754   6.524   5.547  10.056 -0.2976  0.5436  0.1941
  181SLPC   H3X20755   6.431   5.488  10.070 -0.6788  1.0913  0.0023
  181SLPC   H3Y20756   6.616   5.485  10.052  0.5789  1.8421 -0.5547
  181SLPC   C3420757   6.522   5.637   9.933 -0.6168 -0.7945  0.2305
  181SLPC   H4X20758   6.620   5.687   9.918 -1.0829  0.3976  0.9859
  181SLPC   H4Y20759   6.449   5.720   9.942  1.0862  0.6663  1.3940
  181SLPC   C3520760   6.504   5.557   9.800  0.4016  0.2740  0.0449
  181SLPC   H5X20761   6.428   5.480   9.822 -0.8005  1.8163  1.6026
  181SLPC   H5Y20762   6.594   5.505   9.763  0.3086 -0.2299  0.5127
  181SLPC   C3620763   6.440   5.635   9.682  0.3894 -0.0903  0.6042
  181SLPC   H6X20764   6.523   5.695   9.641  2.0662 -1.8342  1.2941
  181SLPC   H6Y20765   6.356   5.702   9.710 -0.0567  0.2848 -1.4488
  181SLPC   C3720766   6.394   5.529   9.571  0.0105 -0.1011 -0.2219
  181SLPC   H7X20767   6.301   5.495   9.622  1.6440 -1.3310  2.1218
  181SLPC   H7Y20768   6.475   5.454   9.563  0.6315  0.3458  1.5798
  181SLPC   C3820769   6.364   5.584   9.431 -0.4905  1.2359  0.1591
  181SLPC   H8X20770   6.449   5.653   9.411  0.6706 -0.2813 -0.3067
  181SLPC   H8Y20771   6.265   5.634   9.424 -0.8965  0.2104 -2.5397
  181SLPC   C3920772   6.376   5.482   9.313 -0.0813 -0.2535 -0.5690
  181SLPC   H9X20773   6.292   5.410   9.319  0.3044 -0.7749 -1.2785
  181SLPC   H9Y20774   6.472   5.426   9.315 -0.0116 -0.1836 -1.6572
  181SLPC  C31020775   6.384   5.559   9.179 -0.9527  0.6240  0.0472
  181SLPC  H10X20776   6.480   5.614   9.189 -0.1069 -0.8437  0.3088
  181SLPC  H10Y20777   6.301   5.629   9.156 -0.8509  0.6159 -0.3481
  181SLPC  C31120778   6.374   5.449   9.068 -0.3480 -0.1458 -0.1024
  181SLPC  H11X20779   6.279   5.392   9.081 -1.6569  2.3445  2.2776
  181SLPC  H11Y20780   6.448   5.368   9.084 -1.8456 -1.4891  0.3946
  181SLPC  C31220781   6.379   5.504   8.925  0.1266  0.1430 -0.4707
  181SLPC  H12X20782   6.479   5.551   8.915  0.7316 -0.3771  2.3857
  181SLPC  H12Y20783   6.303   5.579   8.894 -0.5410 -0.4082 -0.1902
  181SLPC  C31320784   6.375   5.398   8.816 -0.3759  0.7017  0.0145
  181SLPC  H13X20785   6.449   5.319   8.839  0.6820  1.6590 -0.0154
  181SLPC  H13Y20786   6.418   5.435   8.721 -0.7057 -1.2031 -0.9167
  181SLPC  C31420787   6.243   5.321   8.791 -0.3796  0.5388 -0.5759
  181SLPC  H14X20788   6.176   5.402   8.754  0.2216  1.7427  0.8627
  181SLPC  H14Y20789   6.202   5.285   8.888 -2.1668  1.6467 -0.8792
  181SLPC  C31520790   6.255   5.204   8.691 -0.3307 -0.0106  0.0761
  181SLPC  H15X20791   6.280   5.110   8.745  1.3474  1.8054  2.7297
  181SLPC  H15Y20792   6.324   5.229   8.608 -0.1768  0.6349  0.3858
  181SLPC  C31620793   6.123   5.166   8.624  0.5700  0.0946 -0.0135
  181SLPC  H16X20794   6.091   5.264   8.582 -0.0238 -0.1146 -0.0629
  181SLPC  H16Y20795   6.047   5.148   8.703  0.8861  0.8454  0.4713
  181SLPC  C31720796   6.132   5.051   8.516 -0.1189  0.3294  0.2293
  181SLPC  H17X20797   6.049   4.977   8.516  0.0658  0.1074 -0.5469
  181SLPC  H17Y20798   6.213   4.987   8.557  1.7384  3.7358  2.3272
  181SLPC  C31820799   6.179   5.099   8.376 -0.5972 -0.1061 -0.1489
  181SLPC  H18X20800   6.148   5.033   8.292 -1.2916  1.6423 -1.3240
  181SLPC  H18Y20801   6.290   5.101   8.374 -0.4898  0.2731  2.5899
  181SLPC  H18Z20802   6.142   5.201   8.353  0.2015  0.7819  2.2388
  182SLPC     N20803   1.945   4.467  11.113 -0.0568 -0.1656  0.2483
  182SLPC   C1320804   1.819   4.406  11.164  0.3826 -0.3887 -0.2381
  182SLPC  H13A20805   1.794   4.445  11.262 -2.2762 -2.0876 -0.1392
  182SLPC  H13B20806   1.731   4.423  11.104 -0.4784 -1.3589  0.7007
  182SLPC  H13C20807   1.818   4.300  11.185 -1.7995 -0.2645  0.5888
  182SLPC   C1420808   2.058   4.442  11.207 -0.3699  0.4347 -0.4440
  182SLPC  H14A20809   2.142   4.507  11.188 -1.3325  1.1719 -2.3877
  182SLPC  H14B20810   2.034   4.461  11.311 -0.9386 -1.7422 -0.1383
  182SLPC  H14C20811   2.100   4.343  11.199 -1.3591 -0.1293  0.9450
  182SLPC   C1520812   1.931   4.623  11.105 -0.4104  0.7188  0.4948
  182SLPC  H15A20813   2.029   4.668  11.096  0.0262 -0.5084 -1.4571
  182SLPC  H15B20814   1.867   4.643  11.020 -0.2757 -1.5645 -0.2063
  182SLPC  H15C20815   1.887   4.661  11.196  1.1258  1.9016  0.7867
  182SLPC   C1220816   1.977   4.399  10.980  0.7184  0.1358 -0.5019
  182SLPC  H12A20817   1.893   4.416  10.914 -0.7081  1.4551  1.5246
  182SLPC  H12B20818   1.984   4.291  10.984 -0.9367  0.0285  0.6577
  182SLPC   C1120819   2.100   4.447  10.900  0.5270  0.5670 -0.2913
  182SLPC  H11A20820   2.105   4.558  10.895  1.8129  0.5944  0.8654
  182SLPC  H11B20821   2.091   4.422  10.792 -0.1536  0.2638 -0.1652
  182SLPC     P20822   2.282   4.252  10.913  0.3453  0.0900 -0.0546
  182SLPC   O1320823   2.422   4.240  10.961 -0.1936 -0.0648 -0.8616
  182SLPC   O1420824   2.189   4.148  10.966  0.3558 -0.2304 -0.1678
  182SLPC   O1220825   2.229   4.393  10.951 -0.1135 -0.2318  0.2805
  182SLPC   O1120826   2.267   4.260  10.757  0.5566  1.2093 -0.0826
  182SLPC    C120827   2.381   4.252  10.670  0.0077  0.3006  0.4638
  182SLPC    HA20828   2.481   4.271  10.715  0.0109  1.8207 -0.1183
  182SLPC    HB20829   2.381   4.153  10.619 -2.1581 -0.8127  2.4527
  182SLPC    C220830   2.351   4.360  10.568 -0.6854 -0.4651  0.6557
  182SLPC    HS20831   2.243   4.363  10.543 -0.0689 -0.5538 -2.3842
  182SLPC   O2120832   2.417   4.327  10.440 -0.6827  0.1704  0.4292
  182SLPC   C2120833   2.364   4.233  10.364 -0.4607 -0.2350 -0.2544
  182SLPC   O2220834   2.256   4.186  10.392  0.2525  0.1471  0.7720
  182SLPC   C2220835   2.456   4.196  10.248 -0.1869  0.4968 -0.5725
  182SLPC   H2R20836   2.528   4.278  10.224 -0.4257  1.6276  2.1731
  182SLPC   H2S20837   2.526   4.121  10.291 -0.9641 -0.2032 -0.5039
  182SLPC    C320838   2.392   4.504  10.614  0.1159  0.0887  0.0862
  182SLPC    HX20839   2.496   4.498  10.651  0.6401 -0.7697 -1.4360
  182SLPC    HY20840   2.330   4.534  10.702  0.0619 -2.4610  1.0030
  182SLPC   O3120841   2.381   4.596  10.507 -0.8172 -0.2055  0.3492
  182SLPC   C3120842   2.263   4.654  10.489 -0.1175  0.3870 -0.8620
  182SLPC   O3220843   2.164   4.627  10.560 -0.2799  0.1332  0.2007
  182SLPC   C3220844   2.261   4.742  10.367  0.4160 -0.2106 -0.2342
  182SLPC   H2X20845   2.261   4.848  10.401  1.4166  0.0674 -1.0320
  182SLPC   H2Y20846   2.157   4.726  10.332  0.0990  0.6010  0.2878
  182SLPC   C2320847   2.380   4.153  10.118  0.4663 -0.8177 -0.8347
  182SLPC   H3R20848   2.313   4.065  10.132  0.8822 -1.1146 -0.6904
  182SLPC   H3S20849   2.449   4.118  10.039 -0.7228 -1.1034 -1.7741
  182SLPC   C2420850   2.292   4.263  10.062 -0.0839 -0.7139 -0.1149
  182SLPC   H4R20851   2.347   4.356  10.037  1.4121 -0.8477  2.3480
  182SLPC   H4S20852   2.218   4.288  10.141 -0.9759  3.9363 -2.1050
  182SLPC   C2520853   2.205   4.223   9.941 -0.6007  0.1214 -0.6408
  182SLPC   H5R20854   2.133   4.147   9.978  0.4291 -1.2409 -1.3414
  182SLPC   H5S20855   2.270   4.172   9.867  0.9119  0.2395  0.5577
  182SLPC   C2620856   2.135   4.339   9.874  0.8177  0.3161  0.5200
  182SLPC   H6R20857   2.212   4.418   9.861  0.7563  0.3188  0.1583
  182SLPC   H6S20858   2.047   4.363   9.937  0.5825 -1.8743  1.1113
  182SLPC   C2720859   2.088   4.302   9.722  0.2190  0.5512 -0.3648
  182SLPC   H7R20860   2.075   4.192   9.727  2.6928  0.1153 -1.9498
  182SLPC   H7S20861   2.166   4.318   9.644  0.3788  1.7583  0.0181
  182SLPC   C2820862   1.949   4.360   9.675  0.5818 -0.0132 -0.3128
  182SLPC   H8R20863   1.965   4.434   9.594 -2.0738 -0.1262 -1.0083
  182SLPC   H8S20864   1.915   4.414   9.766  1.6430  1.8178 -0.9358
  182SLPC   C2920865   1.848   4.257   9.643 -0.0002 -0.3074  0.6758
  182SLPC   H9R20866   1.809   4.188   9.720 -2.6780  2.3568  1.9251
  182SLPC  C21020867   1.800   4.235   9.517  0.6950  0.4034 -0.2522
  182SLPC  H10R20868   1.721   4.160   9.507  0.9252 -0.2848  2.4347
  182SLPC  C21120869   1.836   4.317   9.401  0.6082  0.1261  0.3273
  182SLPC  H11R20870   1.844   4.424   9.428 -0.9484 -0.0854  1.7533
  182SLPC  H11S20871   1.753   4.314   9.327 -0.0757 -0.9370  1.1042
  182SLPC  C21220872   1.968   4.281   9.345 -0.2714  0.7349 -0.0964
  182SLPC  H12R20873   2.037   4.221   9.406 -0.9081  1.0942  1.0001
  182SLPC  C21320874   2.010   4.302   9.219  0.1283  0.2473  0.2050
  182SLPC  H13R20875   2.109   4.267   9.186 -0.8194 -0.6494 -1.8284
  182SLPC  C21420876   1.940   4.371   9.108 -0.3810  0.4079  1.0647
  182SLPC  H14R20877   1.842   4.402   9.149 -0.1995  1.3253  0.8307
  182SLPC  H14S20878   1.914   4.304   9.023 -1.0387 -0.2206  1.7582
  182SLPC  C21520879   2.000   4.506   9.054  0.2909  0.9651  0.0197
  182SLPC  H15R20880   2.099   4.479   9.010 -1.1638  0.1819 -3.0488
  182SLPC  H15S20881   1.999   4.579   9.137 -5.4673  1.2590  0.1016
  182SLPC  C21620882   1.908   4.559   8.944 -0.2546  0.1219  0.1507
  182SLPC  H16R20883   1.803   4.559   8.979 -0.4248  1.3675 -0.2869
  182SLPC  H16S20884   1.914   4.503   8.848  1.2734  0.3833  0.0663
  182SLPC  C21720885   1.939   4.698   8.890 -0.2967 -0.0098 -0.1932
  182SLPC  H17R20886   1.974   4.767   8.970 -1.4759 -0.1497  0.4615
  182SLPC  H17S20887   1.846   4.748   8.853  1.1177  3.7536  0.8714
  182SLPC  C21820888   2.047   4.702   8.782  0.5976 -0.3661 -0.0975
  182SLPC  H18R20889   2.013   4.650   8.690  3.1024 -0.4806 -1.0369
  182SLPC  H18S20890   2.151   4.669   8.807  0.8458 -1.4864 -2.3780
  182SLPC  H18T20891   2.051   4.806   8.744 -0.9254  0.0962  0.9114
  182SLPC   C3320892   2.377   4.711  10.270  0.7872  0.0580 -1.0727
  182SLPC   H3X20893   2.395   4.601  10.275  1.0856  0.1303 -0.4034
  182SLPC   H3Y20894   2.465   4.762  10.314  0.4627  1.1836 -1.6995
  182SLPC   C3420895   2.335   4.746  10.128 -0.6846  0.3030  0.9444
  182SLPC   H4X20896   2.311   4.854  10.122 -0.0004  0.3777 -2.6615
  182SLPC   H4Y20897   2.238   4.699  10.099 -0.7732  1.3472 -0.5904
  182SLPC   C3520898   2.438   4.703  10.016 -0.2514 -0.1059  0.5983
  182SLPC   H5X20899   2.449   4.593  10.009  0.1344  0.0089 -0.8571
  182SLPC   H5Y20900   2.533   4.758  10.037 -0.5203  0.3398  0.6476
  182SLPC   C3620901   2.393   4.754   9.877  0.4221  0.5048 -0.8708
  182SLPC   H6X20902   2.352   4.855   9.901 -1.3532 -0.4739  0.4948
  182SLPC   H6Y20903   2.301   4.693   9.861  1.0527 -0.5052 -0.6926
  182SLPC   C3720904   2.498   4.756   9.769  0.2459 -0.2168 -0.6837
  182SLPC   H7X20905   2.532   4.651   9.756 -2.2518 -1.4533  1.7688
  182SLPC   H7Y20906   2.577   4.822   9.809 -0.1766 -0.0706 -0.0784
  182SLPC   C3820907   2.442   4.813   9.637 -0.6487 -0.0020  0.0665
  182SLPC   H8X20908   2.393   4.910   9.660 -1.5948  0.0668 -2.0897
  182SLPC   H8Y20909   2.374   4.749   9.578  0.9565 -1.4659 -0.2841
  182SLPC   C3920910   2.563   4.855   9.552  0.5584 -0.1850 -0.2258
  182SLPC   H9X20911   2.643   4.902   9.614  0.7976 -1.6186  0.6184
  182SLPC   H9Y20912   2.527   4.928   9.477  2.5697 -0.2821 -1.3786
  182SLPC  C31020913   2.620   4.736   9.463 -0.4072  0.1725 -0.2708
  182SLPC  H10X20914   2.540   4.695   9.397 -0.0821  0.7323 -1.0337
  182SLPC  H10Y20915   2.654   4.659   9.535 -0.9182 -0.4178 -0.6435
  182SLPC  C31120916   2.740   4.774   9.375  0.3947 -0.1787  0.1960
  182SLPC  H11X20917   2.823   4.798   9.445  0.5204 -1.1002  0.3751
  182SLPC  H11Y20918   2.718   4.864   9.313  2.0078 -0.3005 -0.6042
  182SLPC  C31220919   2.775   4.664   9.278 -0.6843 -0.5851 -0.2448
  182SLPC  H12X20920   2.679   4.623   9.240 -1.2675 -0.1490  0.7222
  182SLPC  H12Y20921   2.819   4.576   9.330 -0.2769 -0.7005 -0.7749
  182SLPC  C31320922   2.866   4.714   9.164 -0.0553  0.2782  0.2373
  182SLPC  H13X20923   2.952   4.771   9.207 -0.5424  1.8383 -0.7732
  182SLPC  H13Y20924   2.810   4.785   9.099 -1.3269  0.3402  1.3553
  182SLPC  C31420925   2.919   4.600   9.067  0.3545 -0.1964 -0.2859
  182SLPC  H14X20926   2.831   4.552   9.019 -0.3640 -2.2303  2.7420
  182SLPC  H14Y20927   2.970   4.529   9.136 -0.9446 -1.1956 -0.3007
  182SLPC  C31520928   3.008   4.656   8.959  0.0718  0.0892  0.6665
  182SLPC  H15X20929   3.110   4.667   9.002  1.0009 -1.7575 -0.8657
  182SLPC  H15Y20930   2.962   4.755   8.938 -2.7997 -0.9435  1.6238
  182SLPC  C31620931   3.014   4.558   8.833 -0.3440 -0.2808 -0.1053
  182SLPC  H16X20932   2.948   4.610   8.760 -0.3787 -0.8477 -0.4785
  182SLPC  H16Y20933   2.970   4.458   8.850 -0.2718 -0.3682 -0.4415
  182SLPC  C31720934   3.157   4.552   8.770  0.5972 -0.1742 -0.4600
  182SLPC  H17X20935   3.228   4.507   8.843  0.4786 -2.8062 -1.8457
  182SLPC  H17Y20936   3.182   4.657   8.745 -1.1410  1.4936  3.7333
  182SLPC  C31820937   3.158   4.463   8.645  0.1742 -0.0939 -0.5717
  182SLPC  H18X20938   3.102   4.370   8.670 -0.4906  0.1338 -1.1602
  182SLPC  H18Y20939   3.258   4.444   8.602 -0.4143  0.7307 -2.4529
  182SLPC  H18Z20940   3.099   4.510   8.563 -2.6011 -0.7502  0.9069
  183SLPC     N20941   5.139   5.917  11.093  0.3830 -0.1621  0.0142
  183SLPC   C1320942   5.161   5.950  11.238  0.5844 -0.0594 -0.4578
  183SLPC  H13A20943   5.109   6.039  11.268  0.6316 -0.2216  0.1325
  183SLPC  H13B20944   5.133   5.867  11.302  0.4783 -0.6336 -1.2369
  183SLPC  H13C20945   5.264   5.976  11.256 -0.0904  1.5476  1.3974
  183SLPC   C1420946   5.177   6.025  10.992 -0.1975 -0.6220 -0.0176
  183SLPC  H14A20947   5.123   6.114  11.023  1.0367 -0.0178  0.4737
  183SLPC  H14B20948   5.281   6.051  11.004 -0.3999  1.8110 -2.5645
  183SLPC  H14C20949   5.147   6.005  10.890  0.0795 -1.2959  0.0300
  183SLPC   C1520950   4.991   5.882  11.075  1.6383 -0.1732  0.5484
  183SLPC  H15A20951   4.967   5.785  11.117  0.5220  0.5550  1.6666
  183SLPC  H15B20952   4.917   5.956  11.101 -1.1509 -2.1196 -1.3233
  183SLPC  H15C20953   4.965   5.864  10.972  1.1856  2.5704  0.1151
  183SLPC   C1220954   5.220   5.788  11.060  0.2919  0.2947 -0.0421
  183SLPC  H12A20955   5.200   5.767  10.956 -0.2389  2.0203 -0.3304
  183SLPC  H12B20956   5.165   5.706  11.104 -1.2335  1.0680 -0.4358
  183SLPC   C1120957   5.372   5.781  11.084 -0.4686 -0.0775  0.2201
  183SLPC  H11A20958   5.388   5.671  11.088 -1.4128 -0.1982  1.4192
  183SLPC  H11B20959   5.400   5.825  11.183  0.8863 -1.2647  0.4083
  183SLPC     P20960   5.468   5.768  10.838  0.0381 -0.3018 -0.1328
  183SLPC   O1320961   5.577   5.671  10.864  0.1802  0.3003 -0.3283
  183SLPC   O1420962   5.343   5.719  10.783  0.3527 -1.0477  0.1101
  183SLPC   O1220963   5.437   5.842  10.979 -0.1153 -0.3411  0.1143
  183SLPC   O1120964   5.525   5.892  10.756  0.1101 -0.8849 -0.6327
  183SLPC    C120965   5.434   5.974  10.688 -0.1310 -0.0697  0.0543
  183SLPC    HA20966   5.331   5.976  10.731  0.6952 -1.5362  2.2493
  183SLPC    HB20967   5.471   6.079  10.687  0.2674 -0.2048  0.5458
  183SLPC    C220968   5.421   5.933  10.539 -0.5490 -0.1025 -0.4866
  183SLPC    HS20969   5.450   5.826  10.540 -0.6134 -0.1216  0.3040
  183SLPC   O2120970   5.504   6.021  10.457 -0.2348  0.8649 -0.1771
  183SLPC   C2120971   5.628   5.979  10.431 -0.6090 -0.2544  0.3201
  183SLPC   O2220972   5.678   5.877  10.477  0.3038 -0.1442  0.7817
  183SLPC   C2220973   5.699   6.090  10.364  0.4160  0.3012 -0.1036
  183SLPC   H2R20974   5.660   6.184  10.408 -0.0787  0.6880 -1.3117
  183SLPC   H2S20975   5.809   6.075  10.372  0.5532 -1.3731 -3.1687
  183SLPC    C320976   5.284   5.953  10.479  0.2662 -0.2395 -0.2503
  183SLPC    HX20977   5.261   6.062  10.482  1.3461  0.0084 -0.5601
  183SLPC    HY20978   5.211   5.895  10.539  0.4597 -1.1640 -0.8952
  183SLPC   O3120979   5.281   5.916  10.335 -0.5020 -0.1475 -0.0227
  183SLPC   C3120980   5.166   5.875  10.280  0.2139 -0.0235 -0.9059
  183SLPC   O3220981   5.055   5.884  10.325 -0.1306 -0.0455  0.0217
  183SLPC   C3220982   5.197   5.831  10.140  0.3355  0.5353 -0.0453
  183SLPC   H2X20983   5.267   5.746  10.146 -0.1728  0.1936  1.3706
  183SLPC   H2Y20984   5.250   5.908  10.080  0.0638  0.0733 -0.8981
  183SLPC   C2320985   5.667   6.070  10.208 -0.5107  0.1289  0.0365
  183SLPC   H3R20986   5.691   6.164  10.155 -2.5373  1.1919  0.9077
  183SLPC   H3S20987   5.561   6.043  10.188 -0.0653 -0.0295 -2.4850
  183SLPC   C2420988   5.764   5.968  10.138 -0.7362  0.1346  0.3168
  183SLPC   H4R20989   5.756   5.869  10.188  1.8214  0.5142  1.6446
  183SLPC   H4S20990   5.867   6.007  10.154 -0.7602  0.7719 -0.9310
  183SLPC   C2520991   5.737   5.965   9.987  0.9799  0.4705 -0.0772
  183SLPC   H5R20992   5.820   5.916   9.933 -0.6743 -0.5200 -1.8523
  183SLPC   H5S20993   5.737   6.071   9.954  2.2014  0.1967 -1.0278
  183SLPC   C2620994   5.603   5.895   9.963 -0.1522  0.2333  0.3404
  183SLPC   H6R20995   5.523   5.931  10.032 -0.4502  0.7794 -0.2793
  183SLPC   H6S20996   5.611   5.787   9.990 -1.5484  0.1481  0.4978
  183SLPC   C2720997   5.555   5.907   9.814 -0.2128  0.0131  0.0823
  183SLPC   H7R20998   5.552   6.015   9.789  0.0570 -0.2760 -1.2872
  183SLPC   H7S20999   5.451   5.868   9.815  0.0261 -0.6358  1.5046
  183SLPC   C2821000   5.640   5.822   9.716  0.3751  0.8300  0.5700
  183SLPC   H8R21001   5.613   5.716   9.732  1.2962  0.4420 -0.2859
  183SLPC   H8S21002   5.748   5.822   9.745  1.0760  0.3965 -1.8550
  183SLPC   C2921003   5.630   5.874   9.576 -0.0822 -0.6093 -0.1554
  183SLPC   H9R21004   5.606   5.980   9.564  1.1110 -0.2323  0.5569
  183SLPC  C21021005   5.662   5.789   9.478 -0.6222  1.1086  0.3094
  183SLPC  H10R21006   5.647   5.826   9.375  1.1044 -1.4693 -0.9954
  183SLPC  C21121007   5.710   5.643   9.495  0.9177  0.0138 -0.6280
  183SLPC  H11R21008   5.677   5.585   9.406  1.7087  0.5350 -1.2827
  183SLPC  H11S21009   5.645   5.601   9.575  0.8477  0.5084 -0.4248
  183SLPC  C21221010   5.848   5.623   9.545  0.1728  0.1212 -0.0441
  183SLPC  H12R21011   5.848   5.552   9.630  0.2802 -2.3852 -2.0024
  183SLPC  C21321012   5.968   5.670   9.494  0.2810 -0.4209 -0.5453
  183SLPC  H13R21013   6.058   5.645   9.552 -0.6741  3.0030  2.7935
  183SLPC  C21421014   5.984   5.761   9.376 -0.3749  0.4156 -0.0107
  183SLPC  H14R21015   6.061   5.837   9.398 -0.9671  1.5034 -1.5374
  183SLPC  H14S21016   5.895   5.824   9.352 -0.1959  0.5813 -0.2361
  183SLPC  C21521017   6.024   5.677   9.248  0.0664 -1.1428 -0.3822
  183SLPC  H15R21018   6.109   5.610   9.276  0.7061 -0.8862 -1.6496
  183SLPC  H15S21019   6.066   5.740   9.166  1.1170  1.4776  1.9626
  183SLPC  C21621020   5.908   5.589   9.181  0.0290 -0.2307 -0.6334
  183SLPC  H16R21021   5.826   5.658   9.152  0.3864  0.2497 -0.5158
  183SLPC  H16S21022   5.875   5.516   9.258  1.1413 -1.9250 -1.6779
  183SLPC  C21721023   5.966   5.514   9.060 -0.0332  0.0583  0.3662
  183SLPC  H17R21024   5.880   5.458   9.019  0.6527 -0.8981  0.2059
  183SLPC  H17S21025   6.058   5.456   9.084  0.0114 -0.3407 -0.7342
  183SLPC  C21821026   6.001   5.604   8.943 -0.2516 -0.2078  0.6513
  183SLPC  H18R21027   5.926   5.681   8.916  2.3927  2.6103  0.7322
  183SLPC  H18S21028   6.032   5.545   8.854 -0.1635  0.9854 -0.1371
  183SLPC  H18T21029   6.090   5.665   8.973  0.0240  1.2386 -2.6358
  183SLPC   C3321030   5.073   5.775  10.068 -0.5600 -0.4570  0.4770
  183SLPC   H3X21031   4.993   5.852  10.069  0.9317  1.1779  0.8378
  183SLPC   H3Y21032   5.040   5.682  10.119  1.0548 -0.7644  1.0268
  183SLPC   C3421033   5.105   5.751   9.921 -1.2227  0.0575 -0.7619
  183SLPC   H4X21034   5.014   5.703   9.880 -2.8000  3.3013 -1.3364
  183SLPC   H4Y21035   5.184   5.672   9.916  0.6008  1.8716 -2.8165
  183SLPC   C3521036   5.143   5.872   9.829  1.3455 -0.8489  0.8813
  183SLPC   H5X21037   5.241   5.918   9.854  0.5680  1.5192 -0.1983
  183SLPC   H5Y21038   5.072   5.956   9.820  0.1968 -1.7328  1.4607
  183SLPC   C3621039   5.171   5.818   9.682 -0.1609  0.7256 -0.2866
  183SLPC   H6X21040   5.082   5.772   9.635 -0.3042  0.4006  0.2877
  183SLPC   H6Y21041   5.241   5.734   9.700 -0.1611  0.4408 -1.5637
  183SLPC   C3721042   5.241   5.909   9.579  0.3889 -0.2244 -0.2183
  183SLPC   H7X21043   5.332   5.950   9.628  1.1543 -0.9955 -0.9479
  183SLPC   H7Y21044   5.176   5.998   9.562 -1.8931 -1.5375  1.0957
  183SLPC   C3821045   5.261   5.832   9.449 -0.4287 -0.3002 -0.1310
  183SLPC   H8X21046   5.164   5.788   9.420 -0.8763 -1.0092  2.2522
  183SLPC   H8Y21047   5.333   5.748   9.463 -0.8911 -0.7094 -0.1803
  183SLPC   C3921048   5.295   5.927   9.329  0.7815 -0.1585  0.1040
  183SLPC   H9X21049   5.385   5.986   9.356 -0.7011  2.1300  0.3006
  183SLPC   H9Y21050   5.207   5.994   9.320  0.5771 -0.4159  0.1486
  183SLPC  C31021051   5.320   5.865   9.191 -0.2427 -0.3120 -0.7168
  183SLPC  H10X21052   5.227   5.815   9.156  0.1091 -0.3275 -1.6667
  183SLPC  H10Y21053   5.400   5.788   9.200  0.4236  0.3472 -0.8829
  183SLPC  C31121054   5.377   5.969   9.093 -0.2328 -0.5998 -0.4554
  183SLPC  H11X21055   5.484   5.983   9.118 -0.6520 -0.1002  1.2116
  183SLPC  H11Y21056   5.335   6.065   9.131 -0.0123 -0.5328 -0.3805
  183SLPC  C31221057   5.374   5.933   8.940 -0.0634 -0.8736 -0.4373
  183SLPC  H12X21058   5.271   5.893   8.925 -1.3767  1.2992  2.0640
  183SLPC  H12Y21059   5.460   5.866   8.917  1.0528  0.2702  0.3059
  183SLPC  C31321060   5.386   6.052   8.844 -0.1683 -0.1496 -0.3537
  183SLPC  H13X21061   5.488   6.092   8.865 -0.7213  1.0046  0.2216
  183SLPC  H13Y21062   5.317   6.132   8.879  0.7110  1.7139 -2.6211
  183SLPC  C31421063   5.371   6.011   8.696  0.1717  0.3762  0.7537
  183SLPC  H14X21064   5.265   5.982   8.676  0.2518 -1.1749  2.2995
  183SLPC  H14Y21065   5.438   5.924   8.678 -1.2629 -0.7322  0.5395
  183SLPC  C31521066   5.409   6.112   8.585 -0.1022 -0.4873 -0.1436
  183SLPC  H15X21067   5.351   6.202   8.616  1.4712  0.0893  1.2342
  183SLPC  H15Y21068   5.373   6.078   8.486  2.7384  0.8013 -1.7435
  183SLPC  C31621069   5.554   6.156   8.575  0.4712 -0.1086  0.0068
  183SLPC  H16X21070   5.579   6.219   8.664 -0.4202 -2.1677  1.8119
  183SLPC  H16Y21071   5.563   6.215   8.482  2.1817 -0.7905 -0.2791
  183SLPC  C31721072   5.664   6.051   8.593  0.0453  0.4468  0.1392
  183SLPC  H17X21073   5.648   5.963   8.527 -1.5767 -0.3517  1.5426
  183SLPC  H17Y21074   5.644   6.019   8.697 -0.2783 -1.0588 -0.3517
  183SLPC  C31821075   5.807   6.099   8.588 -0.0902  1.0599 -0.3884
  183SLPC  H18X21076   5.838   6.116   8.483  1.8933 -2.7434 -0.5902
  183SLPC  H18Y21077   5.883   6.029   8.631 -0.9254  1.3595  1.7327
  183SLPC  H18Z21078   5.817   6.197   8.639  0.9485  2.3315 -2.9034
  184SLPC     N21079   1.334   5.469  10.974 -0.0350 -0.1070  0.5438
  184SLPC   C1321080   1.340   5.469  11.131 -0.3496  0.3835 -0.0181
  184SLPC  H13A21081   1.435   5.465  11.183 -0.5617 -0.6633  0.3047
  184SLPC  H13B21082   1.289   5.554  11.175 -1.2517  0.5684 -1.3796
  184SLPC  H13C21083   1.286   5.385  11.173  0.0655  0.1802  0.1098
  184SLPC   C1421084   1.397   5.591  10.919 -0.6101 -0.6828 -0.0884
  184SLPC  H14A21085   1.412   5.579  10.812  0.6172  1.7769 -0.2672
  184SLPC  H14B21086   1.356   5.689  10.937  0.2776  0.2999 -2.7951
  184SLPC  H14C21087   1.494   5.596  10.965 -1.4047  1.5220  1.5056
  184SLPC   C1521088   1.183   5.470  10.945  0.0948 -0.4848 -0.2124
  184SLPC  H15A21089   1.136   5.382  10.986 -0.2984  0.2184  0.9139
  184SLPC  H15B21090   1.138   5.561  10.983  1.6879 -1.3917  4.5722
  184SLPC  H15C21091   1.169   5.451  10.840 -2.7148  0.1759 -0.0380
  184SLPC   C1221092   1.391   5.343  10.919  0.3030  0.4100 -0.0371
  184SLPC  H12A21093   1.326   5.260  10.942 -1.7135  2.0271  0.3725
  184SLPC  H12B21094   1.491   5.323  10.954  0.4897 -0.4570 -1.0164
  184SLPC   C1121095   1.399   5.332  10.769 -0.8276 -0.4091  0.4533
  184SLPC  H11A21096   1.297   5.350  10.729 -0.9135 -0.1007  0.8109
  184SLPC  H11B21097   1.424   5.229  10.734 -2.0841  0.1094 -2.2573
  184SLPC     P21098   1.646   5.400  10.704  0.2857 -0.0243 -0.4141
  184SLPC   O1321099   1.713   5.507  10.616  0.5729 -0.8538  0.1386
  184SLPC   O1421100   1.698   5.383  10.846 -0.4964 -0.3218 -0.6856
  184SLPC   O1221101   1.492   5.425  10.710  0.1924 -0.1184  0.0276
  184SLPC   O1121102   1.649   5.261  10.631  0.5073 -0.1056 -0.0623
  184SLPC    C121103   1.612   5.251  10.493  0.0821 -1.1961 -1.2432
  184SLPC    HA21104   1.506   5.283  10.480  0.6392  0.5164 -1.8910
  184SLPC    HB21105   1.665   5.327  10.432  0.4617 -0.6130 -0.2027
  184SLPC    C221106   1.623   5.108  10.458 -0.2949 -0.2970  1.0171
  184SLPC    HS21107   1.592   5.052  10.548 -3.1945  0.5985  0.6989
  184SLPC   O2121108   1.755   5.079  10.407  0.2978 -0.4408  0.4666
  184SLPC   C2121109   1.785   4.955  10.387 -0.5431  0.5325 -0.0732
  184SLPC   O2221110   1.721   4.858  10.408 -0.0574  0.2017  0.5203
  184SLPC   C2221111   1.925   4.947  10.322 -0.2547 -0.5363 -0.1186
  184SLPC   H2R21112   1.997   4.984  10.398  1.1272 -1.3950 -0.9790
  184SLPC   H2S21113   1.952   4.840  10.306 -0.1224 -0.7773  1.5428
  184SLPC    C321114   1.519   5.080  10.343 -0.1250  0.0618 -0.2712
  184SLPC    HX21115   1.418   5.085  10.389  0.3999 -1.7297  1.2197
  184SLPC    HY21116   1.521   4.973  10.311 -0.6668  0.5900 -2.2198
  184SLPC   O3121117   1.541   5.151  10.227  0.4406  0.5863 -0.4234
  184SLPC   C3121118   1.441   5.213  10.166 -0.1169  0.1670  1.2152
  184SLPC   O3221119   1.326   5.223  10.210  0.0502 -0.8072 -0.0891
  184SLPC   C3221120   1.488   5.270  10.032 -0.7880 -0.3492  0.1686
  184SLPC   H2X21121   1.394   5.287   9.975 -0.5580  2.0077  0.3947
  184SLPC   H2Y21122   1.562   5.204   9.982  0.6073 -0.2580  1.9862
  184SLPC   C2321123   1.940   5.039  10.196  0.1950 -0.2225  0.2668
  184SLPC   H3R21124   2.047   5.025  10.170 -0.1047 -0.4000 -0.9335
  184SLPC   H3S21125   1.919   5.145  10.221 -1.3022 -0.3455 -0.3046
  184SLPC   C2421126   1.843   5.004  10.076 -1.1991  0.0103  0.2357
  184SLPC   H4R21127   1.745   5.002  10.129 -1.3207  2.3726  0.1950
  184SLPC   H4S21128   1.869   4.900  10.047  0.3018 -0.3486  2.5498
  184SLPC   C2521129   1.850   5.108   9.974  0.0834 -0.9011  0.4871
  184SLPC   H5R21130   1.953   5.121   9.936 -0.5040 -1.7799 -1.5609
  184SLPC   H5S21131   1.808   5.205  10.011  0.1716 -0.3687 -0.7326
  184SLPC   C2621132   1.767   5.063   9.855  0.1212 -0.4789  0.0139
  184SLPC   H6R21133   1.671   5.022   9.895 -0.0181 -2.2343 -1.9295
  184SLPC   H6S21134   1.830   4.988   9.803  2.3827  1.7812 -0.6795
  184SLPC   C2721135   1.728   5.177   9.755  0.5843 -0.1029 -0.2572
  184SLPC   H7R21136   1.828   5.221   9.733  0.4338 -0.1459 -1.0437
  184SLPC   H7S21137   1.662   5.255   9.797  0.5303  0.5837 -1.5754
  184SLPC   C2821138   1.672   5.129   9.621  0.4805  0.8506 -0.1612
  184SLPC   H8R21139   1.726   5.039   9.584 -0.6841  0.0301  0.1019
  184SLPC   H8S21140   1.674   5.204   9.539  2.7175 -0.8172 -1.7569
  184SLPC   C2921141   1.524   5.102   9.646  0.2381  0.2854  0.2358
  184SLPC   H9R21142   1.508   5.027   9.725 -1.2463  1.9758  1.6158
  184SLPC  C21021143   1.407   5.139   9.581 -0.0138 -0.0057 -0.2297
  184SLPC  H10R21144   1.312   5.118   9.633 -0.8027  3.4083 -0.0438
  184SLPC  C21121145   1.397   5.233   9.463  0.0922 -0.1279  0.2920
  184SLPC  H11R21146   1.302   5.208   9.411 -0.8040  3.1151  0.1553
  184SLPC  H11S21147   1.470   5.213   9.381 -0.2490  2.9152 -0.8769
  184SLPC  C21221148   1.378   5.379   9.484  0.0378 -0.1645 -0.3190
  184SLPC  H12R21149   1.362   5.411   9.588 -1.5617  0.8669 -0.8306
  184SLPC  C21321150   1.363   5.477   9.390 -0.3336  0.2756  0.2255
  184SLPC  H13R21151   1.344   5.581   9.420  0.4479  0.5334 -0.1255
  184SLPC  C21421152   1.351   5.453   9.234 -0.0564  0.2044  0.5014
  184SLPC  H14R21153   1.399   5.357   9.208 -1.2488 -0.5490  1.0201
  184SLPC  H14S21154   1.412   5.531   9.184  0.7397 -0.6440  0.1297
  184SLPC  C21521155   1.200   5.449   9.188  0.0779  0.3585 -0.2702
  184SLPC  H15R21156   1.151   5.543   9.219 -0.7553  0.4327 -1.7097
  184SLPC  H15S21157   1.145   5.367   9.239 -0.9384  0.0052 -1.8557
  184SLPC  C21621158   1.184   5.424   9.035 -0.2985  0.1876  0.4371
  184SLPC  H16R21159   1.252   5.341   9.007 -1.5269 -0.8935  0.5816
  184SLPC  H16S21160   1.223   5.515   8.985 -1.8952  1.1613  0.8655
  184SLPC  C21721161   1.046   5.399   8.978  0.4956 -0.1856 -0.4227
  184SLPC  H17R21162   0.970   5.468   9.021  0.5148 -0.0304 -0.6326
  184SLPC  H17S21163   1.011   5.295   8.994 -2.3339  0.6033 -0.8572
  184SLPC  C21821164   1.045   5.416   8.825  0.3062  0.0005 -0.2452
  184SLPC  H18R21165   0.957   5.380   8.768  2.1263 -1.3791 -2.3427
  184SLPC  H18S21166   1.129   5.350   8.793  0.5995 -0.3823  1.2222
  184SLPC  H18T21167   1.061   5.521   8.793  2.2936 -0.3160 -0.4471
  184SLPC   C3321168   1.561   5.401  10.070 -0.2305 -0.0186  0.3832
  184SLPC   H3X21169   1.661   5.378  10.112  0.1642 -0.8068 -0.9402
  184SLPC   H3Y21170   1.504   5.459  10.146 -0.0765  0.4599  0.1353
  184SLPC   C3421171   1.579   5.499   9.946 -0.0824  0.5612  0.0095
  184SLPC   H4X21172   1.495   5.490   9.874  0.1577 -0.9339 -0.1117
  184SLPC   H4Y21173   1.665   5.464   9.885  1.8740 -0.1315  2.9474
  184SLPC   C3521174   1.607   5.644   9.988  0.5656 -0.6350  0.0898
  184SLPC   H5X21175   1.682   5.646  10.069 -1.4146  1.2325  2.0182
  184SLPC   H5Y21176   1.519   5.683  10.043  1.0062 -1.1350  1.1807
  184SLPC   C3621177   1.648   5.750   9.872 -0.6443 -0.2615  0.4670
  184SLPC   H6X21178   1.756   5.752   9.849 -0.1729 -0.7449  2.4364
  184SLPC   H6Y21179   1.630   5.852   9.914 -0.2621 -0.7105  1.7554
  184SLPC   C3721180   1.562   5.742   9.738  0.6449  0.0060 -0.2303
  184SLPC   H7X21181   1.458   5.755   9.775 -0.0167 -1.1118 -1.6289
  184SLPC   H7Y21182   1.579   5.645   9.686 -0.5085 -0.7023  0.6676
  184SLPC   C3821183   1.593   5.857   9.646  0.8272 -0.0972  0.9807
  184SLPC   H8X21184   1.702   5.849   9.627  0.5744  0.1238 -0.6490
  184SLPC   H8Y21185   1.571   5.957   9.688 -0.0878  0.8709 -1.6020
  184SLPC   C3921186   1.523   5.858   9.512 -0.1341  0.2465  0.0178
  184SLPC   H9X21187   1.415   5.872   9.537  0.2905 -1.2681  3.3169
  184SLPC   H9Y21188   1.532   5.754   9.474  0.4781 -0.0241  0.8762
  184SLPC  C31021189   1.575   5.967   9.419 -0.6594 -0.6114 -0.2039
  184SLPC  H10X21190   1.679   5.941   9.390 -0.1068  0.1400  1.0077
  184SLPC  H10Y21191   1.568   6.066   9.470 -0.8605 -0.6654 -0.1283
  184SLPC  C31121192   1.480   5.982   9.299  0.2418  0.2595  0.4573
  184SLPC  H11X21193   1.504   6.077   9.246  2.0637 -1.5475 -2.1662
  184SLPC  H11Y21194   1.379   6.008   9.339 -0.3990 -0.0597 -0.9081
  184SLPC  C31221195   1.482   5.874   9.200  0.3635 -0.4285  0.3042
  184SLPC  H12X21196   1.403   5.800   9.225 -1.9082  1.4512 -0.9619
  184SLPC  H12Y21197   1.586   5.835   9.195  0.5135  0.1270 -1.6393
  184SLPC  C31321198   1.454   5.915   9.053 -0.2062 -0.8345  0.1103
  184SLPC  H13X21199   1.508   6.004   9.015 -3.1338  0.8160 -0.4744
  184SLPC  H13Y21200   1.346   5.941   9.049  0.1785  0.9631  0.4706
  184SLPC  C31421201   1.468   5.784   8.970  0.4717 -1.2494  0.8800
  184SLPC  H14X21202   1.407   5.701   9.013 -3.1117 -0.0630 -1.4187
  184SLPC  H14Y21203   1.577   5.762   8.962  0.5799 -0.4814  0.1004
  184SLPC  C31521204   1.411   5.794   8.826  0.5997 -0.4279 -0.0164
  184SLPC  H15X21205   1.475   5.874   8.784  1.4503 -0.4736  1.1453
  184SLPC  H15Y21206   1.313   5.846   8.821  1.1685  0.5159 -2.3970
  184SLPC  C31621207   1.416   5.667   8.740  0.2718 -0.6103  0.4536
  184SLPC  H16X21208   1.340   5.596   8.777  1.1208 -1.6051  0.3430
  184SLPC  H16Y21209   1.518   5.625   8.752  0.4247  0.0528  1.5938
  184SLPC  C31721210   1.358   5.698   8.595  0.3983 -0.4303 -0.1510
  184SLPC  H17X21211   1.417   5.776   8.542 -0.0551  1.7710  2.3661
  184SLPC  H17Y21212   1.257   5.739   8.618  0.7403  0.3081  0.0746
  184SLPC  C31821213   1.350   5.566   8.511  0.1541 -0.0453 -0.0714
  184SLPC  H18X21214   1.415   5.480   8.537 -0.4914 -0.9468 -1.3421
  184SLPC  H18Y21215   1.360   5.592   8.403 -0.2354  0.4107 -0.0040
  184SLPC  H18Z21216   1.247   5.526   8.505  0.7112 -1.4255 -0.6837
  185SLPC     N21217   2.355   2.332   6.456  0.1645 -0.2485  0.2226
  185SLPC   C1321218   2.260   2.314   6.342  0.7877 -0.3561 -0.0179
  185SLPC  H13A21219   2.315   2.274   6.258  0.9220 -2.0140  0.8130
  185SLPC  H13B21220   2.174   2.251   6.362  1.0394 -0.5368  0.5229
  185SLPC  H13C21221   2.230   2.414   6.315  1.3152  0.2978  1.6896
  185SLPC   C1421222   2.419   2.202   6.482 -0.1213  0.1737  0.6144
  185SLPC  H14A21223   2.342   2.128   6.497 -1.3663  1.1433 -0.7037
  185SLPC  H14B21224   2.486   2.166   6.406  0.1750  0.5200  0.7097
  185SLPC  H14C21225   2.480   2.200   6.571  2.5775 -1.1571 -1.1211
  185SLPC   C1521226   2.285   2.369   6.580 -0.3557  0.0036 -0.4997
  185SLPC  H15A21227   2.346   2.390   6.667 -1.5103  0.1968  0.2827
  185SLPC  H15B21228   2.222   2.454   6.557  0.5255  0.2585 -2.1001
  185SLPC  H15C21229   2.214   2.294   6.611 -2.1041  1.2530 -1.3245
  185SLPC   C1221230   2.456   2.432   6.415 -0.0967 -0.2718  0.3620
  185SLPC  H12A21231   2.517   2.395   6.334  0.2448 -0.4621  0.7036
  185SLPC  H12B21232   2.530   2.450   6.492  0.9728 -0.4753 -0.6046
  185SLPC   C1121233   2.409   2.567   6.367  0.6550  0.1904 -0.0959
  185SLPC  H11A21234   2.341   2.618   6.439 -0.7088 -2.4894  0.6749
  185SLPC  H11B21235   2.336   2.552   6.284 -0.9840  0.6946  1.1914
  185SLPC     P21236   2.611   2.726   6.424 -0.0810  0.0361 -0.1726
  185SLPC   O1321237   2.710   2.637   6.487 -0.0411  0.7221 -0.2649
  185SLPC   O1421238   2.680   2.838   6.355 -0.0124 -0.1540  0.2058
  185SLPC   O1221239   2.518   2.642   6.325 -0.2935 -0.5462 -0.1943
  185SLPC   O1121240   2.521   2.791   6.539 -0.1414  0.0422 -0.2351
  185SLPC    C121241   2.568   2.824   6.668 -1.1581 -0.0199  0.4646
  185SLPC    HA21242   2.480   2.854   6.729 -0.1140  3.0001  0.6874
  185SLPC    HB21243   2.618   2.737   6.716 -1.4277  0.5532  1.8337
  185SLPC    C221244   2.677   2.935   6.681  0.6361  0.4468  0.9208
  185SLPC    HS21245   2.763   2.903   6.619  0.2946 -0.0041  0.6736
  185SLPC   O2121246   2.715   2.934   6.818 -0.1897  0.2305 -0.0408
  185SLPC   C2121247   2.834   2.983   6.850 -0.5519  0.3568  0.1873
  185SLPC   O2221248   2.904   3.051   6.776  0.4166 -0.1499 -0.0277
  185SLPC   C2221249   2.860   2.931   6.986  0.2881  0.2629  0.0385
  185SLPC   H2R21250   2.849   2.820   6.990  1.6208  0.1121  0.1231
  185SLPC   H2S21251   2.966   2.960   7.001 -0.2412  1.1878  2.4723
  185SLPC    C321252   2.628   3.080   6.634  0.7107 -0.2333  0.2426
  185SLPC    HX21253   2.615   3.079   6.524 -1.3523  1.3459  0.4005
  185SLPC    HY21254   2.707   3.155   6.658  1.9148  0.2825 -4.4306
  185SLPC   O3121255   2.499   3.109   6.693 -0.3283 -0.6967  0.6419
  185SLPC   C3121256   2.498   3.188   6.800 -0.3554 -0.3907 -0.0533
  185SLPC   O3221257   2.589   3.250   6.847  0.3241 -0.4522  0.0829
  185SLPC   C3221258   2.354   3.197   6.855 -0.6167 -0.2653 -0.1675
  185SLPC   H2X21259   2.311   3.095   6.871 -0.3224 -0.4848 -0.7093
  185SLPC   H2Y21260   2.296   3.250   6.776  0.8386  2.2434  0.3437
  185SLPC   C2321261   2.769   3.008   7.086 -1.0709 -0.2769 -0.4345
  185SLPC   H3R21262   2.658   2.995   7.091 -0.9992 -0.5296  0.6263
  185SLPC   H3S21263   2.798   3.115   7.079  1.3782 -0.7181  1.6245
  185SLPC   C2421264   2.809   2.969   7.227 -0.6775  0.8564  0.5977
  185SLPC   H4R21265   2.918   2.971   7.250 -0.8883 -1.7063  2.3246
  185SLPC   H4S21266   2.800   2.858   7.226 -1.6079  0.8601  2.7991
  185SLPC   C2521267   2.730   3.033   7.335  0.1995  0.3048  0.6199
  185SLPC   H5R21268   2.635   3.073   7.293  0.0585 -0.6542 -0.0035
  185SLPC   H5S21269   2.780   3.124   7.375  0.3006  1.9036 -2.8079
  185SLPC   C2621270   2.708   2.935   7.455  0.4518 -0.3737  0.8311
  185SLPC   H6R21271   2.804   2.886   7.484  1.7391 -0.1068 -2.5191
  185SLPC   H6S21272   2.642   2.854   7.418 -2.4821  1.4772  1.7620
  185SLPC   C2721273   2.643   3.003   7.578  0.3726  0.0551  0.1348
  185SLPC   H7R21274   2.540   3.031   7.548  0.7936  1.6641  0.1099
  185SLPC   H7S21275   2.692   3.095   7.616 -1.5198  0.5679  1.4777
  185SLPC   C2821276   2.621   2.905   7.700  1.4720 -0.0657  0.3310
  185SLPC   H8R21277   2.717   2.854   7.723  2.1222 -0.1955 -2.3848
  185SLPC   H8S21278   2.561   2.818   7.669 -0.0227  0.5287  1.4651
  185SLPC   C2921279   2.564   2.988   7.818  0.1047  0.1569  0.1768
  185SLPC   H9R21280   2.493   3.069   7.794  0.1842  0.6258  1.4191
  185SLPC  C21021281   2.582   2.962   7.948 -0.0321  0.3362 -0.7370
  185SLPC  H10R21282   2.512   3.004   8.022 -1.4243 -0.7141 -1.4077
  185SLPC  C21121283   2.681   2.862   8.000  0.0778  0.2287 -0.7302
  185SLPC  H11R21284   2.774   2.917   8.025 -0.0196  0.3338 -0.5991
  185SLPC  H11S21285   2.714   2.792   7.920  3.0437 -0.3479  0.8428
  185SLPC  C21221286   2.621   2.776   8.106  0.0639  0.2831  0.8067
  185SLPC  H12R21287   2.563   2.691   8.066  1.3636  0.7294 -2.3315
  185SLPC  C21321288   2.659   2.777   8.237 -0.0531 -0.2138  0.5565
  185SLPC  H13R21289   2.621   2.693   8.298 -1.4304  1.0019  1.4236
  185SLPC  C21421290   2.752   2.875   8.309 -0.1343  0.3136  0.6757
  185SLPC  H14R21291   2.710   2.913   8.405 -2.8862  0.2146 -0.4027
  185SLPC  H14S21292   2.764   2.970   8.253 -0.0063  0.7722  1.4682
  185SLPC  C21521293   2.899   2.821   8.319  0.8538 -0.4676 -0.3472
  185SLPC  H15R21294   2.947   2.806   8.220  0.1772 -1.0554 -0.5960
  185SLPC  H15S21295   2.893   2.724   8.371  0.9564  0.0817  0.7150
  185SLPC  C21621296   2.996   2.921   8.389  0.4452 -0.6310  0.0540
  185SLPC  H16R21297   2.978   3.024   8.354 -0.5320  0.3076  3.0434
  185SLPC  H16S21298   3.103   2.899   8.366  0.7256 -1.4936  2.0061
  185SLPC  C21721299   2.984   2.912   8.538 -0.1972  0.7734  0.5479
  185SLPC  H17R21300   2.997   2.804   8.561  0.2849 -0.2937 -3.9689
  185SLPC  H17S21301   2.882   2.947   8.566 -0.8259  0.5787 -1.4142
  185SLPC  C21821302   3.087   2.995   8.617 -0.2079 -0.2257 -0.1989
  185SLPC  H18R21303   3.067   3.000   8.727 -0.1105  1.0948 -0.2308
  185SLPC  H18S21304   3.098   3.099   8.582  1.3134 -1.1385 -2.6754
  185SLPC  H18T21305   3.185   2.946   8.601 -0.2337 -0.2575 -0.2573
  185SLPC   C3321306   2.329   3.269   6.994 -0.5319  1.0832  0.3017
  185SLPC   H3X21307   2.230   3.319   6.996 -2.2276 -2.0187  0.8005
  185SLPC   H3Y21308   2.401   3.353   7.003  0.5360  0.3971 -1.4644
  185SLPC   C3421309   2.335   3.176   7.117  0.3370 -0.3070  0.1440
  185SLPC   H4X21310   2.432   3.124   7.130 -0.1790 -1.8558 -1.6835
  185SLPC   H4Y21311   2.266   3.089   7.114 -0.3679  0.1477  1.8655
  185SLPC   C3521312   2.299   3.255   7.251  0.3474 -0.0398  0.3818
  185SLPC   H5X21313   2.193   3.289   7.248 -0.0747 -1.3272  0.1070
  185SLPC   H5Y21314   2.354   3.351   7.251 -0.3811  0.4122 -1.1525
  185SLPC   C3621315   2.320   3.189   7.391  0.3397 -0.1719 -0.3373
  185SLPC   H6X21316   2.429   3.171   7.405  0.0424 -2.1573 -0.3347
  185SLPC   H6Y21317   2.271   3.090   7.400 -0.3447  0.2568  0.8204
  185SLPC   C3721318   2.264   3.269   7.509  0.0695 -0.1796  0.0667
  185SLPC   H7X21319   2.154   3.283   7.499  0.1677 -0.3074 -1.4972
  185SLPC   H7Y21320   2.294   3.375   7.499 -1.6287  0.2062 -1.5845
  185SLPC   C3821321   2.303   3.196   7.641 -0.5300  0.1842  0.0925
  185SLPC   H8X21322   2.413   3.196   7.654 -0.4961 -1.2758 -0.0355
  185SLPC   H8Y21323   2.269   3.091   7.638  2.5405 -1.0512  2.6063
  185SLPC   C3921324   2.243   3.276   7.758 -0.2698  0.0875 -0.3752
  185SLPC   H9X21325   2.133   3.279   7.739 -0.6805  3.1384  1.7078
  185SLPC   H9Y21326   2.286   3.378   7.748  0.2465 -0.3135 -3.0747
  185SLPC  C31021327   2.270   3.211   7.896  0.6903 -0.1844  0.1606
  185SLPC  H10X21328   2.378   3.212   7.920  0.7250  2.1854  0.1822
  185SLPC  H10Y21329   2.241   3.104   7.886 -0.8710  0.3158 -1.2003
  185SLPC  C31121330   2.180   3.286   7.996 -0.5578  0.4867  0.0198
  185SLPC  H11X21331   2.074   3.265   7.969 -0.4279  0.2221 -0.2998
  185SLPC  H11Y21332   2.197   3.395   8.001 -3.9896  1.0705  1.8132
  185SLPC  C31221333   2.209   3.238   8.136 -0.5556  0.0352 -0.2235
  185SLPC  H12X21334   2.311   3.263   8.171  0.1616 -1.5184 -1.0794
  185SLPC  H12Y21335   2.213   3.127   8.134  0.4799  0.0515  0.3918
  185SLPC  C31321336   2.099   3.268   8.239  0.0750 -0.3403 -0.4111
  185SLPC  H13X21337   1.999   3.233   8.206 -1.5329  1.6032  1.9669
  185SLPC  H13Y21338   2.099   3.379   8.243 -0.9067 -0.2745 -1.7488
  185SLPC  C31421339   2.111   3.202   8.380 -0.7226 -0.3103  0.0331
  185SLPC  H14X21340   2.210   3.232   8.421 -0.3019 -0.0976 -1.1123
  185SLPC  H14Y21341   2.113   3.091   8.375 -0.1526 -0.4380  2.0131
  185SLPC  C31521342   2.011   3.255   8.492  0.7937 -0.7007 -0.6763
  185SLPC  H15X21343   1.908   3.230   8.458 -1.0600  1.2401  2.9522
  185SLPC  H15Y21344   2.010   3.366   8.496  0.8825 -0.6945 -0.8290
  185SLPC  C31621345   2.024   3.184   8.623 -0.2745  0.3733 -0.7162
  185SLPC  H16X21346   2.111   3.227   8.678  0.2869  0.5647 -1.7266
  185SLPC  H16Y21347   2.046   3.076   8.615  3.3167  0.7416  1.8100
  185SLPC  C31721348   1.901   3.212   8.705 -0.4382 -1.0044  0.3753
  185SLPC  H17X21349   1.812   3.172   8.653  0.1439  0.2080 -1.6952
  185SLPC  H17Y21350   1.876   3.320   8.718  2.2691 -0.1136 -0.9331
  185SLPC  C31821351   1.912   3.151   8.843  0.1653 -0.6077  0.3190
  185SLPC  H18X21352   1.818   3.153   8.903  0.4717 -2.6931  0.9773
  185SLPC  H18Y21353   2.000   3.194   8.895  0.8338  1.3111 -2.2145
  185SLPC  H18Z21354   1.919   3.042   8.823  0.0707 -0.8560  1.5784
  186SLPC     N21355   1.098   2.720   5.766  0.0546 -0.3748 -0.4883
  186SLPC   C1321356   0.976   2.722   5.674  0.2042 -0.5410 -0.4656
  186SLPC  H13A21357   0.983   2.791   5.592 -0.9567 -0.2300 -0.3300
  186SLPC  H13B21358   0.969   2.624   5.631  1.3553 -1.7984  1.9834
  186SLPC  H13C21359   0.888   2.740   5.734 -0.9043 -2.2142 -1.5207
  186SLPC   C1421360   1.220   2.678   5.684  0.3473  0.1985  0.1446
  186SLPC  H14A21361   1.234   2.740   5.596 -0.8474 -0.3449 -0.4546
  186SLPC  H14B21362   1.300   2.672   5.756 -0.4710 -0.8693  0.9965
  186SLPC  H14C21363   1.194   2.577   5.657  0.1352  0.1475  0.5357
  186SLPC   C1521364   1.071   2.620   5.871  0.0124 -0.4806 -0.4255
  186SLPC  H15A21365   1.150   2.616   5.945 -0.9341  0.8221  0.6916
  186SLPC  H15B21366   0.982   2.655   5.920  0.3651  0.1226 -0.2036
  186SLPC  H15C21367   1.053   2.522   5.830  0.6919 -0.3538 -1.0559
  186SLPC   C1221368   1.112   2.865   5.819 -0.4016  0.3040 -0.1225
  186SLPC  H12A21369   1.018   2.897   5.861 -1.0351  0.0643 -1.3197
  186SLPC  H12B21370   1.120   2.936   5.738 -1.1309  1.8498  1.1071
  186SLPC   C1121371   1.220   2.898   5.929  0.0333  0.0790  0.1001
  186SLPC  H11A21372   1.223   3.008   5.943 -0.4841  0.4179 -2.1229
  186SLPC  H11B21373   1.319   2.880   5.882  0.1321 -0.5242  0.5331
  186SLPC     P21374   1.128   2.882   6.164 -0.1461 -0.1060  0.1352
  186SLPC   O1321375   1.001   2.930   6.112  0.8309  0.6739 -0.9135
  186SLPC   O1421376   1.127   2.782   6.271 -0.2082  0.1377  0.5028
  186SLPC   O1221377   1.222   2.837   6.051  0.1837  0.1806  0.1082
  186SLPC   O1121378   1.211   3.012   6.209 -0.8823 -0.8779 -0.3133
  186SLPC    C121379   1.352   3.029   6.202 -0.9892  0.3778 -0.7366
  186SLPC    HA21380   1.411   2.936   6.187 -0.6976  0.6243 -1.1091
  186SLPC    HB21381   1.378   3.102   6.122  0.9547  0.6317  0.0852
  186SLPC    C221382   1.424   3.083   6.330 -0.2222 -0.3158  0.0396
  186SLPC    HS21383   1.411   3.004   6.407 -0.4888 -0.6683 -0.3592
  186SLPC   O2121384   1.354   3.205   6.364  0.6162 -0.1279 -0.1841
  186SLPC   C2121385   1.322   3.212   6.495  0.8345  0.4188  0.2102
  186SLPC   O2221386   1.362   3.140   6.585  0.2510  0.4223 -0.2818
  186SLPC   C2221387   1.227   3.336   6.514  0.0756  0.2273  0.1266
  186SLPC   H2R21388   1.279   3.387   6.597  0.9146 -1.8377  0.9446
  186SLPC   H2S21389   1.233   3.390   6.417 -1.4124  0.8467  0.3605
  186SLPC    C321390   1.565   3.117   6.296  0.1951 -0.3091 -0.2691
  186SLPC    HX21391   1.575   3.195   6.217  3.2124  0.5097  0.7567
  186SLPC    HY21392   1.626   3.030   6.263 -0.0755 -0.8356  0.5878
  186SLPC   O3121393   1.638   3.163   6.416  1.0382 -0.0271 -0.0441
  186SLPC   C3121394   1.713   3.268   6.414  0.5070  0.3463  0.9822
  186SLPC   O3221395   1.719   3.351   6.325  0.2343 -0.6233  0.1479
  186SLPC   C3221396   1.782   3.271   6.549  0.0250  0.3522 -0.0268
  186SLPC   H2X21397   1.857   3.189   6.545 -0.7876 -0.5306  1.5722
  186SLPC   H2Y21398   1.714   3.252   6.635  2.4328 -1.2881  1.6503
  186SLPC   C2321399   1.078   3.311   6.550  0.4369 -0.1289  0.0749
  186SLPC   H3R21400   1.055   3.230   6.622  0.2323  0.8699  1.1777
  186SLPC   H3S21401   1.028   3.276   6.457  0.5680 -1.2841  0.4254
  186SLPC   C2421402   1.005   3.437   6.604 -0.1020 -0.2619  0.2010
  186SLPC   H4R21403   0.900   3.417   6.635  0.3007 -2.6311  0.1706
  186SLPC   H4S21404   1.004   3.515   6.524 -0.5124 -1.0105 -0.5395
  186SLPC   C2521405   1.068   3.503   6.734  0.6888 -0.4315 -0.3468
  186SLPC   H5R21406   1.166   3.546   6.704 -0.1472  1.1164 -1.0021
  186SLPC   H5S21407   1.085   3.425   6.811  0.4732 -0.6785 -0.5476
  186SLPC   C2621408   0.970   3.612   6.789 -0.5280 -0.2618  0.3003
  186SLPC   H6R21409   0.971   3.603   6.900  1.9256  0.0208  0.3606
  186SLPC   H6S21410   0.865   3.594   6.758 -0.5040  0.1061 -0.0031
  186SLPC   C2721411   1.009   3.754   6.760 -0.1384  0.0788 -0.2520
  186SLPC   H7R21412   0.999   3.768   6.650 -0.3491 -2.0107 -0.5375
  186SLPC   H7S21413   1.117   3.750   6.786  0.4813 -0.7584 -2.6332
  186SLPC   C2821414   0.932   3.861   6.843 -0.7797  0.5491 -0.6802
  186SLPC   H8R21415   0.929   3.819   6.946  1.6224 -0.6830 -1.0363
  186SLPC   H8S21416   0.829   3.879   6.806 -2.5478 -3.8272  1.4053
  186SLPC   C2921417   1.009   3.995   6.833  0.5808  0.4774  0.3476
  186SLPC   H9R21418   1.080   4.004   6.749  0.3274  4.4453  0.3579
  186SLPC  C21021419   0.993   4.099   6.914 -0.6289 -0.4007 -1.3202
  186SLPC  H10R21420   1.058   4.186   6.901  1.0252 -1.3130  0.4213
  186SLPC  C21121421   0.900   4.104   7.035  0.2669 -0.3664 -0.3345
  186SLPC  H11R21422   0.949   4.052   7.120  1.9270  2.2833  0.4587
  186SLPC  H11S21423   0.811   4.040   7.015  0.0387  0.2984 -1.5166
  186SLPC  C21221424   0.857   4.234   7.090 -0.5172  0.6055  0.0261
  186SLPC  H12R21425   0.774   4.287   7.042 -0.4159 -0.0139 -0.8583
  186SLPC  C21321426   0.916   4.295   7.187  0.0763 -0.4651 -0.6321
  186SLPC  H13R21427   0.880   4.398   7.205  1.8042  0.2681 -1.1411
  186SLPC  C21421428   1.045   4.254   7.259 -0.0034  0.4680  0.6739
  186SLPC  H14R21429   1.123   4.222   7.186  0.2926  0.1701  1.1215
  186SLPC  H14S21430   1.019   4.175   7.332  0.4240 -0.9022 -0.6130
  186SLPC  C21521431   1.119   4.374   7.319  0.5837  0.0760  0.4561
  186SLPC  H15R21432   1.198   4.334   7.387 -1.5150 -0.8707  2.4729
  186SLPC  H15S21433   1.046   4.424   7.386  2.4177 -1.1904  3.6714
  186SLPC  C21621434   1.174   4.485   7.229  0.4659 -0.0304  0.4953
  186SLPC  H16R21435   1.106   4.507   7.144  1.9992  0.5910 -0.6087
  186SLPC  H16S21436   1.267   4.441   7.188 -0.2763 -2.3184  1.1322
  186SLPC  C21721437   1.201   4.623   7.296 -0.1625 -0.4789  0.8389
  186SLPC  H17R21438   1.265   4.614   7.386 -0.4669  0.4027  1.1615
  186SLPC  H17S21439   1.107   4.671   7.329  0.4693  1.6569 -0.2379
  186SLPC  C21821440   1.260   4.723   7.197 -1.2348 -0.5825  0.2782
  186SLPC  H18R21441   1.350   4.684   7.144 -0.4865  0.9869  0.3235
  186SLPC  H18S21442   1.279   4.811   7.262  2.8612 -1.9233  1.2152
  186SLPC  H18T21443   1.188   4.734   7.113  0.4779 -1.1876 -1.3447
  186SLPC   C3321444   1.868   3.400   6.559  0.4604  0.2648  0.8027
  186SLPC   H3X21445   1.802   3.489   6.554  0.0821  0.2137  3.5366
  186SLPC   H3Y21446   1.948   3.400   6.482  1.4078 -1.1392  1.7446
  186SLPC   C3421447   1.955   3.410   6.691 -0.2785 -0.2625  0.5038
  186SLPC   H4X21448   2.019   3.501   6.687  2.5665 -2.1800 -0.4788
  186SLPC   H4Y21449   2.022   3.322   6.702 -0.5581 -0.2134  2.9965
  186SLPC   C3521450   1.871   3.409   6.811 -0.2223 -0.1424 -0.3933
  186SLPC   H5X21451   1.822   3.309   6.815  0.0267 -0.3580 -2.0556
  186SLPC   H5Y21452   1.802   3.496   6.805  0.6657  0.9654  2.9625
  186SLPC   C3621453   1.952   3.431   6.936 -0.3439  0.0812  0.3624
  186SLPC   H6X21454   2.028   3.511   6.923 -0.7482  0.7166  1.7471
  186SLPC   H6Y21455   2.016   3.341   6.946  2.0077  1.6517  0.2107
  186SLPC   C3721456   1.859   3.451   7.046  0.2339  0.3372 -0.6330
  186SLPC   H7X21457   1.783   3.369   7.040  0.9679 -0.5668  1.4553
  186SLPC   H7Y21458   1.822   3.553   7.026  2.0738  1.3364  0.7595
  186SLPC   C3821459   1.919   3.446   7.182 -0.2648  0.2633  0.3832
  186SLPC   H8X21460   1.998   3.525   7.187  2.5725 -2.4238  1.4459
  186SLPC   H8Y21461   1.976   3.351   7.188  0.4090  0.5910 -0.5259
  186SLPC   C3921462   1.817   3.468   7.291  0.3595  0.6791  0.2510
  186SLPC   H9X21463   1.748   3.381   7.282  2.2033 -0.9204  0.7938
  186SLPC   H9Y21464   1.754   3.559   7.280 -2.8125 -1.4599 -0.4863
  186SLPC  C31021465   1.876   3.470   7.438  0.1406  0.1138  0.7286
  186SLPC  H10X21466   1.951   3.552   7.433 -0.1695  0.3782  0.3872
  186SLPC  H10Y21467   1.947   3.385   7.445 -0.4852 -0.5551 -0.6045
  186SLPC  C31121468   1.777   3.479   7.548 -0.6979 -0.2279  0.4166
  186SLPC  H11X21469   1.716   3.386   7.549 -1.2819  0.1031 -1.3749
  186SLPC  H11Y21470   1.710   3.564   7.521  0.1162 -0.4153 -2.4237
  186SLPC  C31221471   1.850   3.492   7.672 -0.9277  0.5310 -1.1001
  186SLPC  H12X21472   1.903   3.589   7.663  1.7846 -0.4695  2.1630
  186SLPC  H12Y21473   1.913   3.404   7.696 -1.7614  0.1400 -0.2944
  186SLPC  C31321474   1.760   3.502   7.793  1.0223 -0.6862 -0.2525
  186SLPC  H13X21475   1.687   3.418   7.784 -0.6700  0.9158 -2.8750
  186SLPC  H13Y21476   1.695   3.590   7.779  0.6571 -0.9771 -0.4091
  186SLPC  C31421477   1.838   3.515   7.931 -0.2775 -0.3129  0.8150
  186SLPC  H14X21478   1.918   3.592   7.933  1.8962 -2.2342 -2.8881
  186SLPC  H14Y21479   1.893   3.419   7.936 -1.7540 -1.5484 -2.9917
  186SLPC  C31521480   1.754   3.523   8.049  0.0918 -0.2479  0.3272
  186SLPC  H15X21481   1.681   3.441   8.034 -2.6896  2.1404 -0.1529
  186SLPC  H15Y21482   1.706   3.623   8.044  2.0366  0.6942 -1.0962
  186SLPC  C31621483   1.829   3.539   8.187 -0.3862 -0.1848 -0.1187
  186SLPC  H16X21484   1.906   3.619   8.185  0.8498 -1.3034  1.2013
  186SLPC  H16Y21485   1.880   3.442   8.204 -2.4257 -0.9665  2.0401
  186SLPC  C31721486   1.734   3.554   8.305  0.2867 -0.1617 -0.5302
  186SLPC  H17X21487   1.662   3.470   8.310 -0.7911  0.7538 -0.4710
  186SLPC  H17Y21488   1.665   3.637   8.279 -1.1231 -1.2527 -0.3812
  186SLPC  C31821489   1.816   3.596   8.433 -0.1456 -0.2469 -0.1830
  186SLPC  H18X21490   1.899   3.666   8.410 -0.3144 -0.0376 -0.1551
  186SLPC  H18Y21491   1.836   3.500   8.486 -2.4548 -1.4747 -1.4126
  186SLPC  H18Z21492   1.746   3.657   8.494  1.0927  0.2518  0.7896
  187SLPC     N21493   5.928   1.055   6.359  0.5341 -0.2591  0.2373
  187SLPC   C1321494   5.861   0.984   6.479  0.0272  0.7653  0.4240
  187SLPC  H13A21495   5.862   1.046   6.567  0.6219  3.5935 -1.4500
  187SLPC  H13B21496   5.758   0.959   6.456 -0.2608 -1.4736  3.4904
  187SLPC  H13C21497   5.908   0.895   6.516  0.9622  1.4331  0.8693
  187SLPC   C1421498   5.927   0.960   6.244 -0.3551 -0.1590 -0.9309
  187SLPC  H14A21499   5.991   0.991   6.162  0.9405 -0.0779  0.0848
  187SLPC  H14B21500   5.967   0.868   6.284 -1.7783  0.6503  2.7505
  187SLPC  H14C21501   5.827   0.942   6.209  0.2661  0.8075 -3.4632
  187SLPC   C1521502   6.071   1.097   6.390 -0.3198  0.3752 -0.1523
  187SLPC  H15A21503   6.079   1.129   6.493  1.5081 -1.2620  0.2754
  187SLPC  H15B21504   6.142   1.017   6.375  1.4251  1.7348  0.5041
  187SLPC  H15C21505   6.092   1.187   6.335 -1.2356  0.5287 -0.2687
  187SLPC   C1221506   5.846   1.179   6.332  0.0521  0.2825 -0.3882
  187SLPC  H12A21507   5.751   1.138   6.305 -0.1557 -0.2098  0.9733
  187SLPC  H12B21508   5.880   1.216   6.236 -0.0006 -0.5051 -0.7111
  187SLPC   C1121509   5.819   1.283   6.441  0.3101 -0.6615 -0.0202
  187SLPC  H11A21510   5.800   1.383   6.396  0.8389 -0.3558  0.4296
  187SLPC  H11B21511   5.916   1.295   6.493  0.5325  0.6149 -0.6825
  187SLPC     P21512   5.566   1.274   6.489 -0.1182 -0.2149 -0.2667
  187SLPC   O1321513   5.535   1.209   6.360  0.2364  0.1324  0.3361
  187SLPC   O1421514   5.484   1.224   6.602 -0.8193 -0.4690 -0.1442
  187SLPC   O1221515   5.717   1.236   6.524  0.2305 -0.4952  0.5103
  187SLPC   O1121516   5.557   1.433   6.484  0.3400  0.5792 -0.1818
  187SLPC    C121517   5.509   1.526   6.582 -0.3564  0.1300 -0.2425
  187SLPC    HA21518   5.466   1.608   6.521 -0.1413  0.9295  0.6576
  187SLPC    HB21519   5.429   1.491   6.650  0.4665  1.9531  1.7947
  187SLPC    C221520   5.630   1.582   6.676  0.5781 -0.9111  0.5175
  187SLPC    HS21521   5.704   1.632   6.610  1.2002 -0.4717  1.5259
  187SLPC   O2121522   5.686   1.466   6.737  0.0357  0.1118  0.4902
  187SLPC   C2121523   5.816   1.461   6.742  0.1130  0.6054 -0.8676
  187SLPC   O2221524   5.890   1.553   6.717  0.2678 -0.0631  0.0929
  187SLPC   C2221525   5.865   1.324   6.803 -0.4836  0.5850 -0.0777
  187SLPC   H2R21526   5.793   1.281   6.875 -0.1184  0.0360 -0.0383
  187SLPC   H2S21527   5.865   1.250   6.720  3.1546  0.9697 -0.5858
  187SLPC    C321528   5.580   1.687   6.788  0.0663  0.8502 -0.6761
  187SLPC    HX21529   5.477   1.650   6.809  0.6464  0.1128  0.9968
  187SLPC    HY21530   5.569   1.788   6.743 -0.9407  2.0777  2.1100
  187SLPC   O3121531   5.661   1.686   6.903  0.0320  0.2499 -0.2147
  187SLPC   C3121532   5.740   1.797   6.907  1.3461  0.4109 -0.0042
  187SLPC   O3221533   5.757   1.875   6.814  0.5621 -0.2297 -0.3945
  187SLPC   C3221534   5.805   1.806   7.043 -0.0702  0.4496 -0.1182
  187SLPC   H2X21535   5.842   1.911   7.053  2.9099 -0.5613  0.3360
  187SLPC   H2Y21536   5.892   1.738   7.039 -1.3158 -1.3222  1.3106
  187SLPC   C2321537   6.010   1.330   6.858 -1.0723 -0.1611 -0.9207
  187SLPC   H3R21538   6.067   1.415   6.816 -1.2657  0.6093  0.3222
  187SLPC   H3S21539   6.056   1.233   6.827  1.7334  1.1632 -1.2450
  187SLPC   C2421540   6.014   1.339   7.016 -0.2835  0.3130  0.0349
  187SLPC   H4R21541   6.115   1.304   7.045 -1.6138 -2.5829  1.4954
  187SLPC   H4S21542   5.958   1.253   7.057 -2.1467  1.6009  0.3130
  187SLPC   C2521543   5.987   1.479   7.067 -0.2315 -0.7862  0.0858
  187SLPC   H5R21544   5.885   1.498   7.028 -0.0283 -1.0117 -0.5711
  187SLPC   H5S21545   6.058   1.548   7.015  0.2465 -1.2332  0.1321
  187SLPC   C2621546   5.982   1.494   7.219  0.4547 -0.1245  0.0867
  187SLPC   H6R21547   5.907   1.419   7.252  0.3464  0.6157  1.5982
  187SLPC   H6S21548   5.941   1.591   7.255 -1.8381 -2.3124  4.0340
  187SLPC   C2721549   6.105   1.462   7.302  0.0863 -0.2293 -0.1939
  187SLPC   H7R21550   6.179   1.544   7.308 -0.5394  0.2545  1.4963
  187SLPC   H7S21551   6.165   1.377   7.262  2.6864  1.3660  0.0989
  187SLPC   C2821552   6.066   1.426   7.448 -0.3849  0.6156  0.0373
  187SLPC   H8R21553   6.008   1.332   7.436  3.0046 -1.4621 -1.7947
  187SLPC   H8S21554   6.003   1.507   7.491  0.4537  2.2627 -1.6835
  187SLPC   C2921555   6.185   1.423   7.543  0.1563 -0.5007  0.5596
  187SLPC   H9R21556   6.284   1.411   7.498 -0.2647 -0.7226 -0.3308
  187SLPC  C21021557   6.187   1.434   7.677 -0.1252  0.1670  0.1208
  187SLPC  H10R21558   6.284   1.408   7.722  0.4385 -1.2462 -1.7850
  187SLPC  C21121559   6.067   1.449   7.772 -0.6728  0.0420  0.7421
  187SLPC  H11R21560   6.040   1.351   7.816  2.2273 -0.9930  0.4019
  187SLPC  H11S21561   5.977   1.483   7.716  0.0434  1.8921  0.6240
  187SLPC  C21221562   6.098   1.556   7.870 -0.2334  0.3197 -0.7315
  187SLPC  H12R21563   6.158   1.641   7.836 -0.1357  1.2037  1.4406
  187SLPC  C21321564   6.071   1.553   8.002 -0.6134 -0.0736  0.8525
  187SLPC  H13R21565   6.124   1.621   8.070 -1.0273  0.8334  0.2877
  187SLPC  C21421566   5.995   1.448   8.073  0.2192 -0.0251  0.2044
  187SLPC  H14R21567   5.942   1.375   8.009 -0.0304 -0.5460  0.9828
  187SLPC  H14S21568   5.915   1.507   8.122  0.4248  0.5208 -0.1108
  187SLPC  C21521569   6.078   1.368   8.179  0.4625 -0.1108  0.1791
  187SLPC  H15R21570   6.012   1.315   8.251  0.0324  1.8539  1.3172
  187SLPC  H15S21571   6.132   1.446   8.236 -0.4593 -0.6248  1.8006
  187SLPC  C21621572   6.176   1.277   8.108  0.1996  0.0208  0.1524
  187SLPC  H16R21573   6.219   1.343   8.030  0.0003 -0.4944 -0.3947
  187SLPC  H16S21574   6.125   1.193   8.057 -0.0038  0.7370 -0.8404
  187SLPC  C21721575   6.285   1.217   8.199  0.1816  0.0953  0.2856
  187SLPC  H17R21576   6.344   1.303   8.238 -0.7247  0.5073  0.7608
  187SLPC  H17S21577   6.353   1.145   8.149  0.0992  1.2674 -1.6225
  187SLPC  C21821578   6.221   1.147   8.320  0.0091 -0.6653  0.2292
  187SLPC  H18R21579   6.288   1.065   8.351  0.0828 -0.4510  0.6480
  187SLPC  H18S21580   6.118   1.123   8.285 -0.6373  2.1308 -0.0386
  187SLPC  H18T21581   6.211   1.209   8.412 -1.6108 -1.3625  0.5657
  187SLPC   C3321582   5.707   1.778   7.159  0.2552 -0.0359  0.1343
  187SLPC   H3X21583   5.745   1.768   7.263  0.4161  1.4582  0.2403
  187SLPC   H3Y21584   5.662   1.678   7.141  1.9322 -0.3621 -2.8397
  187SLPC   C3421585   5.579   1.863   7.160 -0.1554  0.3538 -0.3730
  187SLPC   H4X21586   5.512   1.838   7.245 -0.5695  0.5426 -0.6409
  187SLPC   H4Y21587   5.511   1.842   7.074 -0.7107 -0.4546  0.2567
  187SLPC   C3521588   5.606   2.012   7.147 -0.4249  0.4879 -0.3365
  187SLPC   H5X21589   5.509   2.065   7.162  0.0673  0.5054  4.3077
  187SLPC   H5Y21590   5.647   2.038   7.047  0.4409  0.3356 -0.0336
  187SLPC   C3621591   5.700   2.059   7.258  0.1413 -0.2019 -0.2181
  187SLPC   H6X21592   5.706   2.170   7.248 -1.8731  0.1654  1.8340
  187SLPC   H6Y21593   5.801   2.013   7.256  0.0669 -0.6879  2.6404
  187SLPC   C3721594   5.648   2.055   7.405  0.2186  0.4395 -0.1266
  187SLPC   H7X21595   5.546   2.099   7.396  0.1731  0.9192  2.1991
  187SLPC   H7Y21596   5.629   1.954   7.448  1.3875  0.5284  0.6373
  187SLPC   C3821597   5.732   2.126   7.509 -0.0592  0.0616  0.2783
  187SLPC   H8X21598   5.655   2.142   7.587 -1.8054 -0.2742 -1.2896
  187SLPC   H8Y21599   5.760   2.232   7.491  1.7176  0.0153  2.4185
  187SLPC   C3921600   5.848   2.052   7.569 -0.0777 -0.4907  0.3992
  187SLPC   H9X21601   5.939   2.075   7.509 -1.4431  0.5909 -1.3732
  187SLPC   H9Y21602   5.829   1.943   7.579 -1.7942 -0.3470 -0.7869
  187SLPC  C31021603   5.877   2.106   7.715 -0.4098  0.4114 -0.2651
  187SLPC  H10X21604   5.792   2.081   7.782 -1.0322  0.7078 -0.9310
  187SLPC  H10Y21605   5.887   2.217   7.722 -2.4265  0.6169 -0.0377
  187SLPC  C31121606   6.007   2.034   7.765 -1.0365  0.4382  0.5443
  187SLPC  H11X21607   6.081   2.056   7.686 -1.0392 -0.6267  0.2215
  187SLPC  H11Y21608   5.986   1.925   7.761 -1.9166  0.6222 -0.4973
  187SLPC  C31221609   6.058   2.073   7.903  1.0376  0.1447  0.3252
  187SLPC  H12X21610   6.154   2.019   7.916  1.1087  0.1487 -0.1579
  187SLPC  H12Y21611   5.983   2.043   7.979 -1.5559  1.7204 -1.4416
  187SLPC  C31321612   6.088   2.220   7.921 -0.0160 -0.2093 -0.2088
  187SLPC  H13X21613   6.007   2.294   7.906 -0.8100 -0.8017  1.0465
  187SLPC  H13Y21614   6.169   2.232   7.845  1.3132 -2.8085  0.6424
  187SLPC  C31421615   6.147   2.256   8.060 -0.6443  0.7544 -0.5145
  187SLPC  H14X21616   6.232   2.189   8.084 -1.7626 -0.6175 -0.2835
  187SLPC  H14Y21617   6.071   2.253   8.140  1.8319 -0.4562  1.9827
  187SLPC  C31521618   6.203   2.398   8.056  0.8519 -0.0559  0.1638
  187SLPC  H15X21619   6.115   2.465   8.050  1.8891  1.2488 -3.2636
  187SLPC  H15Y21620   6.261   2.418   7.963 -1.6594  0.5058 -1.3694
  187SLPC  C31621621   6.270   2.431   8.187 -0.0588 -0.7244 -0.7403
  187SLPC  H16X21622   6.294   2.538   8.208  0.5555 -1.3184  2.0425
  187SLPC  H16Y21623   6.370   2.386   8.168  0.7999  1.5803 -2.2727
  187SLPC  C31721624   6.192   2.383   8.310  0.7649 -0.5518 -0.1997
  187SLPC  H17X21625   6.169   2.274   8.314 -1.1172 -0.1627  1.3789
  187SLPC  H17Y21626   6.091   2.429   8.316  0.5101 -0.8863 -1.6769
  187SLPC  C31821627   6.254   2.403   8.448  0.1894 -0.0324  0.0137
  187SLPC  H18X21628   6.194   2.364   8.533  1.7661  0.3609  1.3726
  187SLPC  H18Y21629   6.285   2.508   8.471  0.2086 -0.1039  0.3155
  187SLPC  H18Z21630   6.348   2.345   8.449  0.3868  0.2109 -1.7494
  188SLPC     N21631   6.304   2.148   5.986  0.2907  0.4310  0.3329
  188SLPC   C1321632   6.444   2.112   5.967  0.5750  0.1294  0.4286
  188SLPC  H13A21633   6.518   2.190   5.981  3.3232 -1.8322 -1.9451
  188SLPC  H13B21634   6.468   2.031   6.034  0.2026  0.4929  1.0105
  188SLPC  H13C21635   6.464   2.075   5.867 -0.7375  1.0631 -0.2134
  188SLPC   C1421636   6.227   2.022   5.969 -0.4823  0.2194  1.1424
  188SLPC  H14A21637   6.268   1.938   6.024  0.8208 -0.4171 -0.7202
  188SLPC  H14B21638   6.123   2.028   5.998 -1.1952  1.3989 -1.4083
  188SLPC  H14C21639   6.229   1.980   5.870 -3.3189  1.6131  0.3884
  188SLPC   C1521640   6.252   2.247   5.889 -0.2091 -0.2022 -0.2703
  188SLPC  H15A21641   6.265   2.217   5.786 -2.7361 -0.4578 -0.5853
  188SLPC  H15B21642   6.149   2.277   5.894 -0.6057 -1.2022 -1.6913
  188SLPC  H15C21643   6.307   2.338   5.906  0.8446 -0.9452  0.3996
  188SLPC   C1221644   6.285   2.190   6.132  0.3573 -0.3419 -0.4178
  188SLPC  H12A21645   6.194   2.240   6.161 -0.6795 -0.5583 -3.0370
  188SLPC  H12B21646   6.355   2.271   6.147  0.1212 -0.5789  2.6076
  188SLPC   C1121647   6.322   2.091   6.253 -0.8890  0.6001 -0.0122
  188SLPC  H11A21648   6.251   2.008   6.272  0.0122  0.0798  1.2287
  188SLPC  H11B21649   6.294   2.151   6.342 -3.0499 -1.3739  0.7363
  188SLPC     P21650   6.577   2.141   6.323 -0.4227 -0.1476  0.1551
  188SLPC   O1321651   6.672   2.186   6.218 -0.1915 -0.0142  0.3248
  188SLPC   O1421652   6.513   2.255   6.405 -0.1922 -0.4862  0.7481
  188SLPC   O1221653   6.464   2.053   6.257  0.6730 -0.5500 -0.0433
  188SLPC   O1121654   6.647   2.025   6.407  0.5157  0.1770  0.1759
  188SLPC    C121655   6.584   1.978   6.527 -0.3857 -0.4696  0.4446
  188SLPC    HA21656   6.478   2.009   6.527  0.4409  2.7826 -0.7167
  188SLPC    HB21657   6.574   1.867   6.521 -1.5479 -0.5896  3.3361
  188SLPC    C221658   6.657   2.025   6.661  0.1947  0.0818 -0.7577
  188SLPC    HS21659   6.691   2.129   6.640  0.0986 -0.0183 -1.4270
  188SLPC   O2121660   6.764   1.933   6.697 -0.2894  0.1911  0.4926
  188SLPC   C2121661   6.737   1.810   6.731 -0.7822 -0.6363 -0.5103
  188SLPC   O2221662   6.628   1.758   6.724  0.9446 -0.1683 -0.5288
  188SLPC   C2221663   6.871   1.738   6.779  0.0683  0.0039  0.2409
  188SLPC   H2R21664   6.912   1.670   6.701  3.1326  2.7403 -0.7613
  188SLPC   H2S21665   6.939   1.823   6.799  1.1738 -0.8281  0.1279
  188SLPC    C321666   6.566   2.034   6.783 -0.1565  0.1139  0.4531
  188SLPC    HX21667   6.510   1.939   6.799  0.8524 -0.5033  0.3588
  188SLPC    HY21668   6.492   2.105   6.739 -0.5022 -0.8960 -0.6509
  188SLPC   O3121669   6.627   2.077   6.907 -0.4639  0.4425  0.1119
  188SLPC   C3121670   6.655   2.202   6.918 -0.2884 -0.5200 -0.3784
  188SLPC   O3221671   6.632   2.292   6.837 -0.5014  0.1117 -0.2444
  188SLPC   C3221672   6.716   2.219   7.057 -0.0954  0.9129  0.6265
  188SLPC   H2X21673   6.754   2.322   7.072  1.4078  0.4041  0.4527
  188SLPC   H2Y21674   6.794   2.140   7.070 -1.2401 -0.3045  0.3571
  188SLPC   C2321675   6.843   1.647   6.899  0.1469 -0.4038 -0.0878
  188SLPC   H3R21676   6.923   1.570   6.909 -0.1467 -0.5549  1.2036
  188SLPC   H3S21677   6.755   1.580   6.886 -0.7606  0.8663 -0.6709
  188SLPC   C2421678   6.819   1.724   7.028 -0.2516 -0.7103 -0.0368
  188SLPC   H4R21679   6.795   1.658   7.114 -0.1704  0.1231  0.6349
  188SLPC   H4S21680   6.734   1.794   7.011 -0.0142 -0.0894  1.2609
  188SLPC   C2521681   6.939   1.814   7.074  0.0258 -0.8797  0.1285
  188SLPC   H5R21682   6.926   1.908   7.017 -1.1139 -0.8966  0.3497
  188SLPC   H5S21683   7.040   1.787   7.035  0.5120  0.8564  0.0989
  188SLPC   C2621684   6.952   1.833   7.222  0.6668  0.2457  0.3581
  188SLPC   H6R21685   7.053   1.872   7.246  0.6608  0.7310 -0.3562
  188SLPC   H6S21686   6.951   1.727   7.255  0.1912  0.4972  1.1939
  188SLPC   C2721687   6.841   1.895   7.296  0.5365  0.3442 -0.3705
  188SLPC   H7R21688   6.749   1.848   7.255  1.4587 -0.5603 -1.4369
  188SLPC   H7S21689   6.837   2.004   7.274 -3.5384  0.7952  1.6092
  188SLPC   C2821690   6.845   1.890   7.458 -0.9717  0.1888  1.0581
  188SLPC   H8R21691   6.773   1.966   7.492 -0.6467  1.0087 -0.0294
  188SLPC   H8S21692   6.947   1.923   7.488 -0.0171 -2.5169  1.0705
  188SLPC   C2921693   6.803   1.761   7.526 -0.8714  0.2193 -0.4004
  188SLPC   H9R21694   6.780   1.677   7.459  0.2780 -0.3771 -0.0742
  188SLPC  C21021695   6.804   1.751   7.658  0.1909  0.6889 -0.9898
  188SLPC  H10R21696   6.773   1.657   7.706 -0.5959  0.5896 -1.6674
  188SLPC  C21121697   6.840   1.855   7.758 -0.1605 -0.3738  0.0787
  188SLPC  H11R21698   6.764   1.861   7.839 -0.5501  0.1380 -0.3114
  188SLPC  H11S21699   6.817   1.951   7.707 -3.5381 -1.7124 -1.2372
  188SLPC  C21221700   6.986   1.854   7.793  0.3925 -0.8716 -0.4495
  188SLPC  H12R21701   7.053   1.926   7.745  1.6102 -0.8695  1.1821
  188SLPC  C21321702   7.051   1.763   7.875  0.1892  0.0452  0.1067
  188SLPC  H13R21703   7.158   1.787   7.883 -0.1063  2.7576 -2.5209
  188SLPC  C21421704   6.988   1.652   7.954  0.6291 -0.0993  0.5330
  188SLPC  H14R21705   6.878   1.654   7.937  0.7777 -1.9858 -1.0470
  188SLPC  H14S21706   7.002   1.661   8.064 -2.0421  0.7333  0.8796
  188SLPC  C21521707   7.031   1.519   7.892 -0.0353  0.1096 -0.4824
  188SLPC  H15R21708   7.142   1.514   7.890  0.0864  1.2898  1.3856
  188SLPC  H15S21709   6.994   1.509   7.787 -2.2900  0.1494  0.2488
  188SLPC  C21621710   6.978   1.393   7.963 -0.6157 -0.6628  0.0204
  188SLPC  H16R21711   6.869   1.378   7.948 -1.0897  2.5705 -0.5520
  188SLPC  H16S21712   6.990   1.415   8.072  0.8949  0.5437 -0.3493
  188SLPC  C21721713   7.052   1.274   7.926 -0.7479  0.5927  0.2475
  188SLPC  H17R21714   7.151   1.307   7.888 -0.8339  1.1208  0.4740
  188SLPC  H17S21715   6.996   1.230   7.840 -0.8961  2.1510 -0.5057
  188SLPC  C21821716   7.067   1.167   8.025  0.2448  0.3301 -0.1374
  188SLPC  H18R21717   7.080   1.070   7.972 -1.7292 -0.1117  0.1266
  188SLPC  H18S21718   6.973   1.153   8.083  0.0918  0.7382 -0.2898
  188SLPC  H18T21719   7.145   1.195   8.099 -0.7629  3.2815 -0.0743
  188SLPC   C3321720   6.615   2.214   7.172  0.4307 -0.2760 -0.0147
  188SLPC   H3X21721   6.570   2.113   7.186 -1.1091  0.1240 -1.6894
  188SLPC   H3Y21722   6.521   2.267   7.147 -0.4139 -2.1735 -1.0758
  188SLPC   C3421723   6.686   2.270   7.303 -0.9416 -0.1975  0.3529
  188SLPC   H4X21724   6.677   2.381   7.292  0.6354  0.0726  1.4971
  188SLPC   H4Y21725   6.792   2.239   7.300 -1.1098 -0.7331 -1.5908
  188SLPC   C3521726   6.634   2.220   7.439  0.1850 -0.4246  0.4182
  188SLPC   H5X21727   6.628   2.109   7.439  0.3489 -0.4555 -1.1025
  188SLPC   H5Y21728   6.528   2.252   7.443  0.1334 -0.6252  0.6463
  188SLPC   C3621729   6.703   2.271   7.561  0.3875  0.6849  0.1037
  188SLPC   H6X21730   6.704   2.382   7.554 -0.1733  0.7557  1.0467
  188SLPC   H6Y21731   6.804   2.226   7.564  0.5482  1.1046  2.4855
  188SLPC   C3721732   6.626   2.230   7.686 -0.2465  0.0255 -0.0744
  188SLPC   H7X21733   6.595   2.124   7.672  2.0728 -0.8361  0.8379
  188SLPC   H7Y21734   6.534   2.292   7.688  1.0647  2.1337 -1.1512
  188SLPC   C3821735   6.696   2.250   7.826  0.8904  0.3817 -0.3177
  188SLPC   H8X21736   6.698   2.356   7.859  0.3426 -0.3042  2.1306
  188SLPC   H8Y21737   6.801   2.214   7.822  0.7843 -0.4021  1.9993
  188SLPC   C3921738   6.627   2.170   7.932  0.7811 -0.0782 -0.5051
  188SLPC   H9X21739   6.654   2.066   7.903 -0.7942 -0.6164 -0.1111
  188SLPC   H9Y21740   6.518   2.186   7.924  0.9109  0.6114 -0.9488
  188SLPC  C31021741   6.675   2.189   8.080  0.2565 -0.2558 -0.0265
  188SLPC  H10X21742   6.614   2.111   8.131 -2.4404  2.0652  0.5126
  188SLPC  H10Y21743   6.637   2.290   8.106  0.8423  0.4170 -1.6274
  188SLPC  C31121744   6.822   2.179   8.101 -0.0450  0.3385  0.1004
  188SLPC  H11X21745   6.882   2.263   8.059  1.2944 -0.8408 -0.4194
  188SLPC  H11Y21746   6.851   2.087   8.047  0.8196  1.9150 -2.2743
  188SLPC  C31221747   6.860   2.164   8.253 -0.6298 -0.3811 -0.0685
  188SLPC  H12X21748   6.786   2.099   8.303  0.9212 -0.7621  1.8734
  188SLPC  H12Y21749   6.843   2.259   8.308  0.2818 -0.3734  0.2172
  188SLPC  C31321750   7.000   2.127   8.276 -0.3426  0.8620 -0.0613
  188SLPC  H13X21751   7.027   2.155   8.380 -0.3828 -0.3079  0.2796
  188SLPC  H13Y21752   7.054   2.191   8.203  2.0059  0.7108  1.4298
  188SLPC  C31421753   7.037   1.983   8.242  0.4325  0.3507 -0.3817
  188SLPC  H14X21754   7.148   1.979   8.248  0.5329 -1.7177 -2.4078
  188SLPC  H14Y21755   7.004   1.953   8.141 -1.4385 -1.3815  0.6575
  188SLPC  C31521756   6.982   1.883   8.349 -0.4409  0.6109  0.2276
  188SLPC  H15X21757   7.000   1.785   8.300  2.1166  0.5524  1.1257
  188SLPC  H15Y21758   6.872   1.899   8.357 -0.2965  1.9588 -0.3543
  188SLPC  C31621759   7.052   1.878   8.487 -0.4580 -0.2794  0.0127
  188SLPC  H16X21760   7.000   1.951   8.553  0.6899 -1.0437  1.8110
  188SLPC  H16Y21761   7.154   1.915   8.462 -1.3286  1.4369 -1.2599
  188SLPC  C31721762   7.063   1.754   8.574  0.3255  1.2780  0.0326
  188SLPC  H17X21763   6.959   1.716   8.569 -0.0599  2.3238 -0.1907
  188SLPC  H17Y21764   7.079   1.772   8.682  1.3684 -0.7183  0.2406
  188SLPC  C31821765   7.162   1.647   8.505 -0.6231  0.1077 -0.7761
  188SLPC  H18X21766   7.266   1.676   8.533 -0.7536  0.9508 -1.1227
  188SLPC  H18Y21767   7.157   1.635   8.395  0.1070 -1.4715 -0.6549
  188SLPC  H18Z21768   7.163   1.545   8.549  1.5915  0.2069 -0.4785
  189SLPC     N21769   1.632   5.695   6.284 -0.2141  0.2339  0.4121
  189SLPC   C1321770   1.545   5.603   6.199 -1.3308 -0.0170 -0.1820
  189SLPC  H13A21771   1.568   5.629   6.097 -1.4766  0.7604 -0.0261
  189SLPC  H13B21772   1.567   5.499   6.221  2.6503  0.7385  0.0074
  189SLPC  H13C21773   1.441   5.621   6.221 -1.0985  1.1387  0.0388
  189SLPC   C1421774   1.611   5.829   6.223 -1.1689 -0.0911 -0.2000
  189SLPC  H14A21775   1.627   5.820   6.117 -0.8846 -0.8699 -0.1011
  189SLPC  H14B21776   1.514   5.870   6.245 -0.4325  0.7889  1.6062
  189SLPC  H14C21777   1.682   5.908   6.243 -2.7293  1.2598  0.1763
  189SLPC   C1521778   1.777   5.663   6.272  0.1944  0.5077 -0.4296
  189SLPC  H15A21779   1.835   5.746   6.308  0.9037  0.4934 -1.4764
  189SLPC  H15B21780   1.803   5.567   6.313  0.5978  1.5868  2.0144
  189SLPC  H15C21781   1.803   5.662   6.167  0.3386  1.8671 -0.4205
  189SLPC   C1221782   1.591   5.704   6.430  1.0706  0.0303 -0.3860
  189SLPC  H12A21783   1.632   5.793   6.477  0.0512  0.3251 -0.0245
  189SLPC  H12B21784   1.638   5.626   6.488  2.5610  0.0646 -1.4930
  189SLPC   C1121785   1.436   5.708   6.461 -0.0633 -0.0555  0.3757
  189SLPC  H11A21786   1.419   5.727   6.569  0.6963 -1.3465  0.7427
  189SLPC  H11B21787   1.398   5.604   6.448  0.0604  0.1010 -1.5542
  189SLPC     P21788   1.212   5.810   6.357 -0.3542 -0.3760 -0.5063
  189SLPC   O1321789   1.182   5.937   6.289  0.0511 -0.0024  0.1021
  189SLPC   O1421790   1.156   5.688   6.296  0.3169 -0.0255  0.1377
  189SLPC   O1221791   1.369   5.796   6.368  0.6431 -0.5935 -0.2275
  189SLPC   O1121792   1.166   5.815   6.503  0.5791 -0.0050 -0.1698
  189SLPC    C121793   1.218   5.922   6.584 -0.0396 -0.2027  0.0621
  189SLPC    HA21794   1.221   5.885   6.688  1.3001  0.1596  0.1843
  189SLPC    HB21795   1.325   5.943   6.562  0.9791 -1.5561  3.2639
  189SLPC    C221796   1.129   6.048   6.575  0.2800  0.1137  0.3386
  189SLPC    HS21797   1.166   6.100   6.485  1.9648  0.2909  1.1029
  189SLPC   O2121798   1.135   6.125   6.693 -0.2942 -0.5536 -0.5159
  189SLPC   C2121799   1.253   6.177   6.706 -0.0629  0.3936 -0.3292
  189SLPC   O2221800   1.346   6.175   6.622  0.4468  0.6530 -0.0576
  189SLPC   C2221801   1.278   6.245   6.842  0.5701 -0.4660  0.3559
  189SLPC   H2R21802   1.388   6.227   6.851  1.1055  0.8238 -2.4414
  189SLPC   H2S21803   1.265   6.355   6.831  0.1539 -0.6317 -1.1111
  189SLPC    C321804   0.975   6.015   6.558 -0.0820  0.1354  0.4686
  189SLPC    HX21805   0.960   5.954   6.467  1.8499 -1.6966  1.3054
  189SLPC    HY21806   0.934   6.118   6.557  1.3691  0.7805  1.8302
  189SLPC   O3121807   0.917   5.948   6.677  0.2301  0.3346 -0.4445
  189SLPC   C3121808   0.788   5.911   6.662  0.3032 -0.2216 -0.4302
  189SLPC   O3221809   0.733   5.910   6.557  0.4330 -0.8186  0.4945
  189SLPC   C3221810   0.732   5.857   6.790  0.3924 -0.8606 -0.2782
  189SLPC   H2X21811   0.748   5.748   6.779 -1.6943 -1.0947 -1.5981
  189SLPC   H2Y21812   0.623   5.875   6.798  1.0037  2.7942  2.0369
  189SLPC   C2321813   1.173   6.190   6.943 -0.3457 -0.1699 -0.6798
  189SLPC   H3R21814   1.181   6.079   6.945  0.6153 -0.1019  1.0583
  189SLPC   H3S21815   1.075   6.231   6.910 -1.1043 -2.6706 -1.8224
  189SLPC   C2421816   1.214   6.256   7.074  0.1423  0.1353 -0.5971
  189SLPC   H4R21817   1.222   6.367   7.073 -1.0489  0.2604 -2.2502
  189SLPC   H4S21818   1.312   6.206   7.079  0.7927  1.0936 -2.6626
  189SLPC   C2521819   1.135   6.202   7.191  0.6589  0.3276  0.3830
  189SLPC   H5R21820   1.190   6.108   7.214  0.6361  0.5308  1.3103
  189SLPC   H5S21821   1.035   6.170   7.156  0.1782 -0.1399  2.1057
  189SLPC   C2621822   1.129   6.297   7.310  0.0438 -0.3516 -0.4620
  189SLPC   H6R21823   1.066   6.380   7.274  1.7406  0.1602 -2.4689
  189SLPC   H6S21824   1.235   6.328   7.323  0.6170 -1.9025 -1.2069
  189SLPC   C2721825   1.072   6.234   7.433 -0.1122  0.8014  0.0904
  189SLPC   H7R21826   1.134   6.144   7.456  1.6641  2.0478  0.3455
  189SLPC   H7S21827   0.964   6.207   7.425  0.3008 -0.6612 -1.0213
  189SLPC   C2821828   1.087   6.335   7.549  0.5544 -0.1749 -0.4961
  189SLPC   H8R21829   1.024   6.425   7.532 -0.9231 -1.1675 -0.5266
  189SLPC   H8S21830   1.189   6.377   7.557  0.0236  1.0350  0.1755
  189SLPC   C2921831   1.051   6.278   7.684 -0.5237 -0.3878  0.5039
  189SLPC   H9R21832   1.016   6.174   7.690 -1.3922 -0.3518 -2.2001
  189SLPC  C21021833   1.046   6.355   7.792 -0.9372 -0.0674 -0.4575
  189SLPC  H10R21834   1.039   6.303   7.889  0.6061 -2.1614 -1.4076
  189SLPC  C21121835   1.065   6.502   7.797  0.2269  0.1932 -0.4377
  189SLPC  H11R21836   1.113   6.544   7.706  1.4710 -0.4005 -0.0692
  189SLPC  H11S21837   1.136   6.524   7.879 -1.0441  0.3968  0.6421
  189SLPC  C21221838   0.935   6.582   7.816  0.1783  0.2302  0.5049
  189SLPC  H12R21839   0.879   6.592   7.722 -2.3904  0.9561  2.0257
  189SLPC  C21321840   0.875   6.603   7.934 -0.1297 -0.1632  0.0588
  189SLPC  H13R21841   0.777   6.652   7.938  0.7524  1.6458  0.3423
  189SLPC  C21421842   0.932   6.570   8.068 -0.0081  0.4048 -0.3537
  189SLPC  H14R21843   1.018   6.500   8.058  1.1484  1.6582  0.5494
  189SLPC  H14S21844   0.858   6.512   8.127 -0.8406  1.3756 -0.4080
  189SLPC  C21521845   0.958   6.687   8.157  0.0527 -0.5440  0.0589
  189SLPC  H15R21846   0.997   6.646   8.253  2.1123  2.0180  0.4352
  189SLPC  H15S21847   0.870   6.753   8.166 -0.8534 -1.3041 -2.3968
  189SLPC  C21621848   1.070   6.786   8.102 -0.1205  0.2243  0.4308
  189SLPC  H16R21849   1.043   6.835   8.006 -0.0335 -1.4440 -0.4850
  189SLPC  H16S21850   1.153   6.714   8.081  0.7291  1.0416  0.9003
  189SLPC  C21721851   1.103   6.902   8.205 -0.7444  0.6294 -0.5163
  189SLPC  H17R21852   1.013   6.933   8.262  0.0333 -1.1990  1.8263
  189SLPC  H17S21853   1.146   6.989   8.150  2.9153 -1.4507 -1.2772
  189SLPC  C21821854   1.219   6.867   8.302 -0.0379  0.3757  0.3780
  189SLPC  H18R21855   1.197   6.774   8.358  0.6333 -0.2983 -0.4485
  189SLPC  H18S21856   1.235   6.954   8.370  0.5872  0.8712 -0.3686
  189SLPC  H18T21857   1.319   6.845   8.257  0.8252  1.3689  1.7297
  189SLPC   C3321858   0.797   5.915   6.920  0.3958 -0.3200  0.0170
  189SLPC   H3X21859   0.823   6.021   6.898  2.3881 -0.5306  1.1485
  189SLPC   H3Y21860   0.891   5.859   6.936 -1.0333 -2.1899  2.7029
  189SLPC   C3421861   0.723   5.892   7.050 -0.3490 -0.3250  0.4492
  189SLPC   H4X21862   0.688   5.786   7.049  0.3722 -0.5651  0.0765
  189SLPC   H4Y21863   0.625   5.943   7.031 -0.4427 -0.5311  0.3741
  189SLPC   C3521864   0.801   5.941   7.170  0.3596  0.9399  0.7345
  189SLPC   H5X21865   0.815   6.051   7.163 -0.0198  0.8715 -2.6118
  189SLPC   H5Y21866   0.898   5.889   7.184  1.2018  1.8897 -1.1241
  189SLPC   C3621867   0.714   5.919   7.296 -1.0205 -0.5413 -0.2248
  189SLPC   H6X21868   0.695   5.810   7.291 -1.5659 -0.4332 -0.7113
  189SLPC   H6Y21869   0.616   5.972   7.290 -0.6771 -0.0231 -1.9069
  189SLPC   C3721870   0.791   5.961   7.424 -0.1543 -0.1975 -0.3158
  189SLPC   H7X21871   0.788   6.071   7.439 -1.3143 -0.4459  1.4719
  189SLPC   H7Y21872   0.900   5.936   7.426 -0.3109 -0.9019 -0.2884
  189SLPC   C3821873   0.735   5.899   7.549  0.6578  0.8193 -0.1341
  189SLPC   H8X21874   0.779   5.798   7.551 -2.6515 -0.7890 -1.2939
  189SLPC   H8Y21875   0.624   5.892   7.545  0.7830 -1.6878 -0.2852
  189SLPC   C3921876   0.783   5.975   7.676  0.8400  0.6276  0.8003
  189SLPC   H9X21877   0.770   6.085   7.669 -0.5190  0.5523  1.7337
  189SLPC   H9Y21878   0.892   5.965   7.656  0.2568  0.4924 -3.3360
  189SLPC  C31021879   0.730   5.915   7.811 -0.6143 -0.1022 -0.1151
  189SLPC  H10X21880   0.770   5.812   7.818 -0.2080 -0.0027 -0.8737
  189SLPC  H10Y21881   0.620   5.902   7.810 -0.4409 -1.9710  0.9945
  189SLPC  C31121882   0.764   5.999   7.935  0.7943 -0.1312  0.0300
  189SLPC  H11X21883   0.861   6.051   7.923  1.0238 -0.7765 -1.0602
  189SLPC  H11Y21884   0.761   5.937   8.027 -2.4867  0.0066  0.1282
  189SLPC  C31221885   0.655   6.101   7.960  0.2734 -0.0360  0.4993
  189SLPC  H12X21886   0.553   6.058   7.945  1.0996 -2.1849  0.6698
  189SLPC  H12Y21887   0.675   6.189   7.896  1.8891 -0.3525  0.5283
  189SLPC  C31321888   0.660   6.168   8.097 -0.5559  0.0354  0.1600
  189SLPC  H13X21889   0.579   6.244   8.095 -1.2433 -0.6863  0.0933
  189SLPC  H13Y21890   0.757   6.221   8.111 -0.7898  0.2530  0.9968
  189SLPC  C31421891   0.643   6.090   8.226 -0.4628 -0.4975 -0.0827
  189SLPC  H14X21892   0.647   6.168   8.305 -2.0084  0.6114 -1.0416
  189SLPC  H14Y21893   0.733   6.027   8.245  0.3921  0.6971 -0.0122
  189SLPC  C31521894   0.515   6.010   8.225 -0.5769 -0.8943  0.1579
  189SLPC  H15X21895   0.481   5.974   8.126 -2.6191  2.8207 -0.7010
  189SLPC  H15Y21896   0.436   6.079   8.264  1.4324  0.7210  1.5555
  189SLPC  C31621897   0.527   5.898   8.319 -0.1467 -0.6983  0.0353
  189SLPC  H16X21898   0.571   5.926   8.417  0.3211 -0.6724 -0.1779
  189SLPC  H16Y21899   0.601   5.831   8.270  1.8584  0.3055  1.5184
  189SLPC  C31721900   0.386   5.838   8.343  0.2015 -0.2610 -0.1676
  189SLPC  H17X21901   0.357   5.807   8.241  0.1687  0.6333 -0.4381
  189SLPC  H17Y21902   0.328   5.928   8.374  0.9265  0.5778 -1.1769
  189SLPC  C31821903   0.374   5.730   8.443  0.0453  0.2111 -0.3038
  189SLPC  H18X21904   0.449   5.648   8.436  0.1486  0.2819 -0.0491
  189SLPC  H18Y21905   0.279   5.677   8.421  0.8388 -1.1429 -0.6445
  189SLPC  H18Z21906   0.381   5.761   8.549 -0.7400 -0.0854 -0.1562
  190SLPC     N21907   5.032   5.877   5.902 -0.2734  0.0730 -0.1313
  190SLPC   C1321908   5.165   5.931   5.867 -0.0148 -0.1380 -0.3187
  190SLPC  H13A21909   5.228   5.908   5.952  1.0426  0.1499 -1.0044
  190SLPC  H13B21910   5.209   5.889   5.778  2.3956  3.6382 -1.1203
  190SLPC  H13C21911   5.160   6.038   5.857 -1.0006 -0.1546 -0.0594
  190SLPC   C1421912   4.941   5.896   5.787  1.2111  0.3108 -0.7000
  190SLPC  H14A21913   4.983   5.863   5.693  0.4360 -2.6389 -0.1453
  190SLPC  H14B21914   4.844   5.850   5.799  1.5602 -0.0600  0.9202
  190SLPC  H14C21915   4.935   6.002   5.773  1.1333  0.4733  0.4256
  190SLPC   C1521916   4.978   5.949   6.020 -0.3216  0.1485  0.1601
  190SLPC  H15A21917   4.899   5.897   6.073 -2.6151  0.9091 -2.3090
  190SLPC  H15B21918   5.057   5.969   6.091  0.8390 -0.3180 -0.9593
  190SLPC  H15C21919   4.950   6.049   5.993 -2.0517 -0.5810 -0.9163
  190SLPC   C1221920   5.049   5.728   5.933 -0.1496 -0.3022  1.0014
  190SLPC  H12A21921   5.093   5.685   5.845 -0.5857  3.0672 -1.0672
  190SLPC  H12B21922   4.950   5.691   5.956  0.3835 -1.3688  1.6335
  190SLPC   C1121923   5.127   5.690   6.057  0.0912  0.1074 -0.4000
  190SLPC  H11A21924   5.123   5.580   6.071  2.6750  0.1850  1.8328
  190SLPC  H11B21925   5.079   5.735   6.148  2.7000 -1.3922  1.8726
  190SLPC     P21926   5.378   5.660   5.990 -0.0831  0.0897 -0.0321
  190SLPC   O1321927   5.341   5.572   5.877  0.2379  0.0537 -0.2207
  190SLPC   O1421928   5.497   5.749   5.973 -0.0228  0.0056 -0.0075
  190SLPC   O1221929   5.255   5.744   6.050 -0.4829 -0.4751  0.0611
  190SLPC   O1121930   5.400   5.570   6.117  0.0371  0.7492 -0.3587
  190SLPC    C121931   5.438   5.637   6.242 -0.2580  0.3582  0.7958
  190SLPC    HA21932   5.502   5.726   6.226  0.5679 -0.5652 -1.3626
  190SLPC    HB21933   5.347   5.677   6.293 -0.6856 -1.3501  1.4420
  190SLPC    C221934   5.511   5.535   6.338  0.5215  0.0184  0.3192
  190SLPC    HS21935   5.594   5.491   6.278 -0.2155 -0.3536 -0.4528
  190SLPC   O2121936   5.408   5.435   6.376  0.0728 -0.7520 -0.4264
  190SLPC   C2121937   5.454   5.329   6.427  0.5201  0.6400 -0.6919
  190SLPC   O2221938   5.567   5.282   6.441  0.3123 -0.1918  0.4397
  190SLPC   C2221939   5.331   5.264   6.494 -0.0462  0.1996 -0.6150
  190SLPC   H2R21940   5.239   5.325   6.479 -0.4223  0.2170  1.4482
  190SLPC   H2S21941   5.331   5.164   6.445  0.8542 -1.0737  1.8122
  190SLPC    C321942   5.561   5.610   6.466  0.1641 -0.6853 -0.3746
  190SLPC    HX21943   5.476   5.664   6.511  0.1673 -0.4644 -0.6298
  190SLPC    HY21944   5.627   5.689   6.421 -0.0577 -0.2069  0.1339
  190SLPC   O3121945   5.626   5.531   6.561  0.4386 -0.2765 -0.3336
  190SLPC   C3121946   5.753   5.495   6.549  0.4139  0.6675  0.4181
  190SLPC   O3221947   5.824   5.531   6.457 -0.8319  0.0608  0.0445
  190SLPC   C3221948   5.797   5.388   6.652  0.0385 -0.0961  1.1704
  190SLPC   H2X21949   5.908   5.383   6.647  0.2102  2.3126  1.1780
  190SLPC   H2Y21950   5.751   5.289   6.632  0.4389 -0.5182  2.2870
  190SLPC   C2321951   5.350   5.225   6.641  0.2074 -0.1849 -0.1896
  190SLPC   H3R21952   5.443   5.164   6.646 -0.3538 -1.0750 -0.3835
  190SLPC   H3S21953   5.270   5.156   6.675  0.3719 -0.9768 -1.3437
  190SLPC   C2421954   5.355   5.337   6.744  1.0032  0.4593 -0.4683
  190SLPC   H4R21955   5.260   5.392   6.759  0.5837  0.0498 -1.5370
  190SLPC   H4S21956   5.423   5.420   6.712  0.0885  1.8688  1.0824
  190SLPC   C2521957   5.411   5.276   6.882 -0.4041 -0.7384  0.1928
  190SLPC   H5R21958   5.428   5.361   6.952 -0.4531  0.4502 -1.1942
  190SLPC   H5S21959   5.514   5.243   6.855 -1.0453 -1.5461 -1.3774
  190SLPC   C2621960   5.326   5.164   6.947  0.5957  0.4364  0.0680
  190SLPC   H6R21961   5.310   5.073   6.884  1.6635 -1.3772  2.2723
  190SLPC   H6S21962   5.225   5.208   6.958  0.0094 -0.2244 -2.0953
  190SLPC   C2721963   5.366   5.098   7.084 -0.3710  0.3498  0.2042
  190SLPC   H7R21964   5.457   5.040   7.057  1.7301  3.3077  0.4555
  190SLPC   H7S21965   5.281   5.032   7.110 -0.8302  0.3000 -1.3516
  190SLPC   C2821966   5.405   5.191   7.201  0.1687 -0.5227 -0.3975
  190SLPC   H8R21967   5.491   5.247   7.158 -0.4138 -0.6731 -1.8011
  190SLPC   H8S21968   5.450   5.127   7.280  1.3525  0.4318 -0.2651
  190SLPC   C2921969   5.299   5.280   7.256 -0.6639  0.2398 -0.8655
  190SLPC   H9R21970   5.231   5.318   7.178 -0.9232 -1.0221 -1.2716
  190SLPC  C21021971   5.268   5.300   7.384 -0.1378 -0.7942  0.2512
  190SLPC  H10R21972   5.187   5.370   7.409 -0.9863 -0.4344 -3.0652
  190SLPC  C21121973   5.340   5.243   7.506  0.1330 -0.1445  0.0280
  190SLPC  H11R21974   5.359   5.323   7.580 -0.3245  1.8633 -1.9210
  190SLPC  H11S21975   5.438   5.199   7.477 -0.0838 -1.7419  1.5449
  190SLPC  C21221976   5.262   5.129   7.564 -0.7196 -0.1180  0.9423
  190SLPC  H12R21977   5.236   5.049   7.493  0.7322  0.4130 -0.2401
  190SLPC  C21321978   5.237   5.095   7.691 -0.1945 -0.0499  0.1390
  190SLPC  H13R21979   5.164   5.013   7.702 -3.5113  2.5740 -0.8164
  190SLPC  C21421980   5.265   5.177   7.810  0.7079  0.0267 -0.0828
  190SLPC  H14R21981   5.174   5.201   7.868 -1.1247 -1.4901 -2.1744
  190SLPC  H14S21982   5.301   5.277   7.775 -0.7770  0.6513  0.0958
  190SLPC  C21521983   5.369   5.103   7.884  0.1194  0.2548  0.3115
  190SLPC  H15R21984   5.448   5.078   7.810 -0.2644  0.6599 -0.2398
  190SLPC  H15S21985   5.322   5.021   7.943  0.4607 -1.1886 -1.3349
  190SLPC  C21621986   5.433   5.191   7.997  0.7907 -0.2278  0.2621
  190SLPC  H16R21987   5.463   5.292   7.961  2.6396 -0.2616  1.5420
  190SLPC  H16S21988   5.523   5.134   8.030  1.0252 -0.6269 -1.0067
  190SLPC  C21721989   5.326   5.223   8.113 -0.4271 -0.5703  0.0706
  190SLPC  H17R21990   5.285   5.123   8.139  1.3118 -2.2449 -3.0308
  190SLPC  H17S21991   5.229   5.256   8.071  0.2955 -0.9793 -2.0490
  190SLPC  C21821992   5.382   5.298   8.231 -0.3611 -0.1601  0.0688
  190SLPC  H18R21993   5.458   5.232   8.277 -1.2406 -0.1545  1.5882
  190SLPC  H18S21994   5.305   5.316   8.309  0.3293  1.0858  0.4939
  190SLPC  H18T21995   5.425   5.392   8.190 -0.9515  0.4575  0.8443
  190SLPC   C3321996   5.758   5.428   6.796 -0.1268 -0.8645  0.3367
  190SLPC   H3X21997   5.648   5.440   6.809  0.3588  3.6511  2.0677
  190SLPC   H3Y21998   5.796   5.532   6.810 -0.6891 -0.4967 -0.6977
  190SLPC   C3421999   5.807   5.328   6.891 -0.4625  0.8288 -0.2445
  190SLPC   H4X22000   5.917   5.313   6.890 -0.3148  1.8054  0.0229
  190SLPC   H4Y22001   5.761   5.231   6.862 -0.4571 -0.0618  2.5180
  190SLPC   C3522002   5.759   5.358   7.035 -0.3614  0.3552 -0.7036
  190SLPC   H5X22003   5.651   5.336   7.048 -0.3151 -0.6654 -1.9402
  190SLPC   H5Y22004   5.777   5.462   7.070 -0.5319 -0.8625  3.7310
  190SLPC   C3622005   5.823   5.265   7.149 -0.2677 -0.0232 -0.0514
  190SLPC   H6X22006   5.932   5.284   7.148  0.1833 -2.3187  0.7563
  190SLPC   H6Y22007   5.804   5.159   7.121  2.1442 -1.2626  2.5179
  190SLPC   C3722008   5.748   5.288   7.280  0.4084  0.2434 -0.1705
  190SLPC   H7X22009   5.639   5.310   7.273  0.4654  0.2682 -1.1926
  190SLPC   H7Y22010   5.792   5.377   7.328 -2.2362  0.8761  1.3065
  190SLPC   C3822011   5.776   5.179   7.387  0.1028  0.9092 -0.2567
  190SLPC   H8X22012   5.884   5.159   7.376 -0.2988 -2.5800  0.8826
  190SLPC   H8Y22013   5.713   5.097   7.346  2.5063 -0.4841 -1.3937
  190SLPC   C3922014   5.739   5.226   7.529  0.5937 -0.4428  0.4524
  190SLPC   H9X22015   5.630   5.245   7.534  0.6929 -0.1820  2.1713
  190SLPC   H9Y22016   5.799   5.317   7.553  1.4782 -0.7168 -0.5942
  190SLPC  C31022017   5.797   5.123   7.624  0.0433 -0.9933 -0.2010
  190SLPC  H10X22018   5.907   5.112   7.610  0.1981 -1.6414  1.3554
  190SLPC  H10Y22019   5.754   5.028   7.584  0.5037 -0.8880 -0.9751
  190SLPC  C31122020   5.757   5.165   7.766 -0.6552 -0.2461  0.0567
  190SLPC  H11X22021   5.775   5.087   7.844  1.7175  1.2695  1.1526
  190SLPC  H11Y22022   5.654   5.205   7.763 -0.5759 -0.1264 -1.3123
  190SLPC  C31222023   5.847   5.272   7.833 -0.2008  0.6099 -0.2736
  190SLPC  H12X22024   5.839   5.368   7.777  1.4288  1.0815  0.2481
  190SLPC  H12Y22025   5.953   5.243   7.823 -0.1566  1.0570 -1.2040
  190SLPC  C31322026   5.808   5.298   7.976  0.0906  0.5429  0.0784
  190SLPC  H13X22027   5.827   5.204   8.033  2.6439  1.4573  0.8973
  190SLPC  H13Y22028   5.698   5.313   7.971  0.0975  0.3833 -0.5743
  190SLPC  C31422029   5.874   5.423   8.033  0.3795 -0.2863  0.1324
  190SLPC  H14X22030   5.855   5.505   7.960 -0.9286 -0.6474  0.0301
  190SLPC  H14Y22031   5.985   5.418   8.032  0.6815  2.6882  2.2681
  190SLPC  C31522032   5.826   5.465   8.172 -0.2958 -0.3237 -0.4724
  190SLPC  H15X22033   5.719   5.495   8.175  0.1206  1.1933  0.0975
  190SLPC  H15Y22034   5.883   5.557   8.200  1.6194 -0.8676 -2.2940
  190SLPC  C31622035   5.854   5.361   8.279 -0.3351  0.1458  0.1009
  190SLPC  H16X22036   5.897   5.413   8.367 -2.7187  0.2781  1.2923
  190SLPC  H16Y22037   5.921   5.282   8.238  2.5392  2.5722 -0.1980
  190SLPC  C31722038   5.721   5.302   8.329 -0.0720  0.0923 -0.2717
  190SLPC  H17X22039   5.664   5.263   8.242 -4.5030  2.1119  1.4039
  190SLPC  H17Y22040   5.660   5.389   8.362  1.2680  1.7913 -2.0413
  190SLPC  C31822041   5.739   5.196   8.437  0.2087  0.1387 -0.0243
  190SLPC  H18X22042   5.769   5.224   8.540 -0.9104  2.6424 -0.3108
  190SLPC  H18Y22043   5.807   5.111   8.413  0.9914 -0.2683  3.1670
  190SLPC  H18Z22044   5.651   5.130   8.451  1.8673 -1.8885  1.6441
  191SLPC     N22045   1.819   0.082   5.521  0.2078 -0.3369  0.2777
  191SLPC   C1322046   1.944  -0.004   5.558 -0.1080  1.1201  0.2359
  191SLPC  H13A22047   1.958   0.018   5.663 -0.1403 -1.2678  0.7938
  191SLPC  H13B22048   1.922  -0.109   5.543  0.2677  1.1120 -0.3150
  191SLPC  H13C22049   2.028   0.023   5.495 -0.2032  0.6624 -0.0959
  191SLPC   C1422050   1.699   0.045   5.597  0.3064 -0.3742 -0.0055
  191SLPC  H14A22051   1.619   0.102   5.552 -0.1474 -0.9966  0.0050
  191SLPC  H14B22052   1.676  -0.058   5.574 -0.8911  0.0803 -0.9222
  191SLPC  H14C22053   1.725   0.062   5.700  0.2969 -1.6257  0.2178
  191SLPC   C1522054   1.790   0.059   5.377 -0.2661 -0.0258  0.6265
  191SLPC  H15A22055   1.689   0.090   5.351 -0.2952  0.8218  1.6629
  191SLPC  H15B22056   1.861   0.116   5.319  0.1838 -1.6268 -0.4579
  191SLPC  H15C22057   1.800  -0.046   5.353  1.6100  0.5441 -1.2902
  191SLPC   C1222058   1.851   0.234   5.556  0.5309  0.2280  0.0916
  191SLPC  H12A22059   1.768   0.300   5.537  0.1892  0.3833  1.9204
  191SLPC  H12B22060   1.928   0.258   5.484 -0.1145  2.2594  0.0180
  191SLPC   C1122061   1.902   0.266   5.695 -0.4808 -0.3621 -0.1094
  191SLPC  H11A22062   1.957   0.362   5.684 -0.2439 -0.6047 -1.1733
  191SLPC  H11B22063   1.988   0.208   5.735 -0.8889 -0.8061  0.1354
  191SLPC     P22064   1.782   0.357   5.912  0.4965 -0.1582  0.0403
  191SLPC   O1322065   1.875   0.471   5.911  0.2594 -0.5826  0.3824
  191SLPC   O1422066   1.635   0.391   5.916 -0.5031  0.0410  0.0620
  191SLPC   O1222067   1.793   0.272   5.787  0.2843  0.1867 -0.1708
  191SLPC   O1122068   1.823   0.272   6.036 -0.0740  0.1497 -0.3193
  191SLPC    C122069   1.879   0.146   6.027 -0.4804  0.4398 -0.7981
  191SLPC    HA22070   1.851   0.081   5.941 -1.4916 -1.2588  0.7559
  191SLPC    HB22071   1.990   0.153   6.029 -0.4242 -0.4757 -0.4392
  191SLPC    C222072   1.850   0.051   6.150 -0.1729  0.7737 -0.2688
  191SLPC    HS22073   1.743   0.020   6.156  0.3305 -0.9361  0.3897
  191SLPC   O2122074   1.904   0.114   6.266  0.3916  1.2812 -0.7551
  191SLPC   C2122075   1.835   0.113   6.382  0.4693  0.3689 -0.4178
  191SLPC   O2222076   1.729   0.057   6.394  0.2550 -0.2346  0.6010
  191SLPC   C2222077   1.897   0.203   6.484 -0.1974 -0.5871 -1.3778
  191SLPC   H2R22078   1.989   0.253   6.447  0.1227 -0.9787 -1.1192
  191SLPC   H2S22079   1.823   0.287   6.488 -1.6025 -1.7468 -2.0331
  191SLPC    C322080   1.923  -0.081   6.138  0.7044  0.4257  0.6734
  191SLPC    HX22081   2.030  -0.064   6.158  0.4111  0.5544  2.2845
  191SLPC    HY22082   1.909  -0.126   6.038 -1.5276  2.1688  0.1297
  191SLPC   O3122083   1.887  -0.177   6.238  0.9529  0.3208 -0.0929
  191SLPC   C3122084   1.969  -0.287   6.236 -0.9607 -0.5441  0.0792
  191SLPC   O3222085   2.027  -0.329   6.136  0.0120 -0.1243 -0.4970
  191SLPC   C3222086   1.975  -0.339   6.376  0.1305 -0.1540  0.1843
  191SLPC   H2X22087   1.882  -0.394   6.400 -1.9156  3.1303  0.3282
  191SLPC   H2Y22088   1.976  -0.259   6.453  1.6677 -0.9133  1.0072
  191SLPC   C2322089   1.927   0.153   6.624 -0.5002  0.1845 -0.2535
  191SLPC   H3R22090   1.845   0.083   6.648 -2.0216  2.0875  0.3234
  191SLPC   H3S22091   1.921   0.245   6.687  3.1502  0.0632  0.5028
  191SLPC   C2422092   2.071   0.083   6.633 -0.1740 -0.3686 -0.3796
  191SLPC   H4R22093   2.145   0.156   6.594  0.0753 -0.0531  0.6608
  191SLPC   H4S22094   2.073  -0.004   6.564 -1.3146 -0.5763 -0.1773
  191SLPC   C2522095   2.094   0.012   6.768 -0.4619 -0.2175 -0.2335
  191SLPC   H5R22096   2.184  -0.053   6.761 -0.8488 -1.1661  2.3155
  191SLPC   H5S22097   1.997  -0.040   6.787 -1.6694  2.1640  0.5534
  191SLPC   C2622098   2.101   0.108   6.887 -0.2010 -0.7212  0.3696
  191SLPC   H6R22099   2.013   0.176   6.889  0.3453  0.1657 -2.3613
  191SLPC   H6S22100   2.185   0.178   6.868  0.3263 -1.9577 -2.4260
  191SLPC   C2722101   2.129   0.030   7.017  0.0153  0.5491 -0.8082
  191SLPC   H7R22102   2.240   0.027   7.025 -0.0694 -1.0522  0.2301
  191SLPC   H7S22103   2.076  -0.067   7.005 -1.4820  1.3622 -1.0936
  191SLPC   C2822104   2.069   0.086   7.141 -0.1852  0.1458 -0.0016
  191SLPC   H8R22105   2.067   0.009   7.221  0.0560  0.5615  0.4076
  191SLPC   H8S22106   1.962   0.111   7.119  0.1903  1.3173 -0.5736
  191SLPC   C2922107   2.136   0.204   7.196  0.7158 -1.0278 -0.3623
  191SLPC   H9R22108   2.138   0.285   7.121 -0.4862 -0.6925 -0.0573
  191SLPC  C21022109   2.187   0.230   7.322 -0.5600 -0.0285  0.1646
  191SLPC  H10R22110   2.220   0.331   7.352  1.0017 -0.8539  1.3598
  191SLPC  C21122111   2.169   0.138   7.438  0.0745 -0.3927  0.1697
  191SLPC  H11R22112   2.146   0.034   7.405  1.7670 -0.3535 -1.2595
  191SLPC  H11S22113   2.076   0.175   7.487 -1.4509  0.0221 -2.7939
  191SLPC  C21222114   2.271   0.142   7.539  0.2849 -0.3152 -0.5630
  191SLPC  H12R22115   2.367   0.184   7.506  0.9479  0.6318  2.2640
  191SLPC  C21322116   2.255   0.122   7.672 -0.0063  0.3879  0.1574
  191SLPC  H13R22117   2.343   0.130   7.739 -0.0599  3.0146  0.0072
  191SLPC  C21422118   2.125   0.068   7.727  0.5402  0.3268 -0.0603
  191SLPC  H14R22119   2.033   0.103   7.675  0.8381 -0.8206 -1.3851
  191SLPC  H14S22120   2.117   0.105   7.832 -1.3434 -0.6327  0.1794
  191SLPC  C21522121   2.115  -0.089   7.735 -0.2417  0.1060  0.2309
  191SLPC  H15R22122   2.150  -0.119   7.634 -0.6937  0.2660  0.0266
  191SLPC  H15S22123   2.007  -0.112   7.740  0.1894 -1.9604  1.0132
  191SLPC  C21622124   2.193  -0.163   7.843 -0.1392  0.1098  0.1615
  191SLPC  H16R22125   2.295  -0.120   7.839 -0.3228  0.7563  1.6776
  191SLPC  H16S22126   2.194  -0.273   7.830 -2.2542 -0.2452  2.3264
  191SLPC  C21722127   2.149  -0.136   7.994  0.3373 -0.9868 -0.0405
  191SLPC  H17R22128   2.113  -0.031   8.001  0.2301 -1.0127 -0.1915
  191SLPC  H17S22129   2.241  -0.139   8.055  0.4583  0.9788 -0.0681
  191SLPC  C21822130   2.037  -0.223   8.033  0.4584 -0.2367  0.0726
  191SLPC  H18R22131   2.020  -0.222   8.142  0.9626  1.1598  0.1581
  191SLPC  H18S22132   2.054  -0.328   8.000  0.0876 -0.4573  0.5665
  191SLPC  H18T22133   1.949  -0.183   7.979  0.5976  1.0524  0.7549
  191SLPC   C3322134   2.108  -0.411   6.409  0.3786  0.9252 -0.5334
  191SLPC   H3X22135   2.193  -0.339   6.408  0.5238  0.7640 -0.1476
  191SLPC   H3Y22136   2.131  -0.489   6.333  2.0107  1.8225 -0.9967
  191SLPC   C3422137   2.103  -0.465   6.545 -0.1064 -0.1239 -1.2375
  191SLPC   H4X22138   2.205  -0.480   6.587 -1.6198 -4.4170  1.4683
  191SLPC   H4Y22139   2.056  -0.565   6.535 -0.0486 -0.2960  0.1158
  191SLPC   C3522140   2.019  -0.395   6.652 -1.1214  0.1171  0.2860
  191SLPC   H5X22141   1.912  -0.406   6.622 -0.9305 -0.6433 -0.1334
  191SLPC   H5Y22142   2.034  -0.285   6.654  0.3354 -0.0725  0.6093
  191SLPC   C3622143   2.040  -0.444   6.799 -0.3567  0.2383  0.4334
  191SLPC   H6X22144   2.138  -0.402   6.829 -0.1317  0.3517 -0.4439
  191SLPC   H6Y22145   2.046  -0.555   6.800 -0.1156  0.2544  0.9841
  191SLPC   C3722146   1.945  -0.376   6.897 -0.0577 -0.2922  0.1523
  191SLPC   H7X22147   1.839  -0.410   6.901 -0.0224 -0.5329 -0.7970
  191SLPC   H7Y22148   1.937  -0.270   6.864 -1.5552 -0.7508 -1.1068
  191SLPC   C3822149   1.996  -0.373   7.038 -0.0183 -0.0172  0.6425
  191SLPC   H8X22150   2.095  -0.323   7.045  1.1741 -2.3135  1.2310
  191SLPC   H8Y22151   1.987  -0.473   7.086  1.0748 -0.2225  0.4515
  191SLPC   C3922152   1.913  -0.287   7.126  0.0565 -0.0385 -0.3149
  191SLPC   H9X22153   1.810  -0.307   7.092  0.3510 -1.3873 -0.4376
  191SLPC   H9Y22154   1.930  -0.177   7.122  0.7142  0.0385  2.6069
  191SLPC  C31022155   1.928  -0.316   7.278  0.3346 -0.1468  0.1939
  191SLPC  H10X22156   2.034  -0.290   7.298 -0.1367  2.0684  0.0934
  191SLPC  H10Y22157   1.902  -0.420   7.310 -1.4553 -0.1456 -1.0936
  191SLPC  C31122158   1.828  -0.226   7.355  0.8683 -0.1016 -0.0731
  191SLPC  H11X22159   1.726  -0.250   7.318 -0.3050  0.4184  2.6119
  191SLPC  H11Y22160   1.853  -0.119   7.338  0.5123 -0.0853 -0.5043
  191SLPC  C31222161   1.842  -0.269   7.502 -0.0232  0.1479  0.3439
  191SLPC  H12X22162   1.935  -0.222   7.541  0.7179 -2.0675  1.3693
  191SLPC  H12Y22163   1.840  -0.379   7.509 -2.7122  0.1898  1.5264
  191SLPC  C31322164   1.717  -0.216   7.571  0.0572 -0.5816 -0.5481
  191SLPC  H13X22165   1.627  -0.267   7.531  1.1253 -1.6679 -1.6729
  191SLPC  H13Y22166   1.706  -0.107   7.554 -1.0160  0.4501  4.7864
  191SLPC  C31422167   1.724  -0.248   7.721  0.2340  0.3752 -0.4510
  191SLPC  H14X22168   1.798  -0.185   7.775  1.1786 -1.3270  0.3131
  191SLPC  H14Y22169   1.772  -0.348   7.726 -1.6385 -0.5039  2.3692
  191SLPC  C31522170   1.585  -0.230   7.791  0.6558 -0.4033  0.3426
  191SLPC  H15X22171   1.503  -0.294   7.751 -0.8440  1.5433  0.1155
  191SLPC  H15Y22172   1.540  -0.131   7.766  0.6503  0.0435  1.9733
  191SLPC  C31622173   1.597  -0.241   7.940  1.1958 -0.4991 -0.5701
  191SLPC  H16X22174   1.665  -0.160   7.972  1.3214  0.2419 -2.6098
  191SLPC  H16Y22175   1.633  -0.337   7.982 -1.9140 -1.4077  0.2983
  191SLPC  C31722176   1.457  -0.228   8.008  0.1138  0.9401 -0.5577
  191SLPC  H17X22177   1.401  -0.316   7.971  0.5951 -1.0875  3.0833
  191SLPC  H17Y22178   1.418  -0.135   7.962 -2.8344  0.9923  1.7757
  191SLPC  C31822179   1.459  -0.221   8.161 -0.1476  0.2988  0.2009
  191SLPC  H18X22180   1.356  -0.203   8.199  0.3745  1.3801  1.1930
  191SLPC  H18Y22181   1.515  -0.132   8.198  0.9479 -0.6542  0.8928
  191SLPC  H18Z22182   1.501  -0.314   8.204  1.3603 -0.6168 -2.8942
  192SLPC     N22183   1.508   1.617   6.485  0.3112 -0.3802  0.3667
  192SLPC   C1322184   1.481   1.721   6.387  0.2977  0.4204 -0.4075
  192SLPC  H13A22185   1.393   1.780   6.408  0.3128  0.2278  0.2246
  192SLPC  H13B22186   1.558   1.792   6.360 -2.4667  4.2106  0.7544
  192SLPC  H13C22187   1.456   1.676   6.292 -1.3176 -1.4992  0.8537
  192SLPC   C1422188   1.537   1.673   6.620  0.5222 -0.1718  0.5208
  192SLPC  H14A22189   1.534   1.584   6.681  0.0164  0.3999  1.3465
  192SLPC  H14B22190   1.632   1.724   6.622  1.2495 -1.5103  1.5777
  192SLPC  H14C22191   1.462   1.742   6.656  1.4429  1.3748 -0.4152
  192SLPC   C1522192   1.641   1.556   6.452 -0.2468  0.4465  0.3513
  192SLPC  H15A22193   1.651   1.531   6.347  1.5498 -1.5389  0.9193
  192SLPC  H15B22194   1.715   1.633   6.469  1.1884 -0.4801 -1.2237
  192SLPC  H15C22195   1.652   1.460   6.499 -0.4865 -0.3888 -1.2099
  192SLPC   C1222196   1.405   1.511   6.477  0.2704 -0.7421 -0.1926
  192SLPC  H12A22197   1.394   1.465   6.380  1.7783 -0.2168 -0.6378
  192SLPC  H12B22198   1.308   1.556   6.492  1.1524  1.7507 -1.5000
  192SLPC   C1122199   1.417   1.398   6.583 -0.8622  0.3886  0.2377
  192SLPC  H11A22200   1.324   1.336   6.586 -0.2189 -0.5874  2.6360
  192SLPC  H11B22201   1.430   1.450   6.680  3.1260  1.2501 -0.6090
  192SLPC     P22202   1.527   1.178   6.495 -0.2030 -0.4455 -0.0649
  192SLPC   O1322203   1.490   1.197   6.353  0.2197 -0.5973  1.0444
  192SLPC   O1422204   1.646   1.095   6.515 -0.1061  0.3258  0.3916
  192SLPC   O1222205   1.537   1.317   6.559 -0.4797 -0.1850  0.1519
  192SLPC   O1122206   1.407   1.119   6.577 -0.4174 -0.1776 -0.5441
  192SLPC    C122207   1.417   1.114   6.720  0.6728 -0.0079  0.2006
  192SLPC    HA22208   1.520   1.090   6.752  0.9325  0.4365 -0.2905
  192SLPC    HB22209   1.372   1.202   6.770 -0.7816 -0.3262 -0.4790
  192SLPC    C222210   1.335   0.996   6.781  0.7337 -0.2172  1.0146
  192SLPC    HS22211   1.234   1.012   6.737 -0.0917  0.3964  3.0276
  192SLPC   O2122212   1.344   0.976   6.926  0.2287  0.1366  0.0919
  192SLPC   C2122213   1.235   0.996   6.990 -1.1658 -0.3160  0.3278
  192SLPC   O2222214   1.127   1.037   6.949  0.0715  0.1359  0.3061
  192SLPC   C2222215   1.267   0.953   7.130  0.0506 -0.0426  0.3109
  192SLPC   H2R22216   1.273   0.842   7.130  1.3036 -0.0002 -0.6890
  192SLPC   H2S22217   1.365   0.997   7.159  0.0205 -0.8235  1.6811
  192SLPC    C322218   1.385   0.862   6.714 -0.0560  0.0196  0.1429
  192SLPC    HX22219   1.487   0.849   6.755  0.0670  0.4811 -0.0104
  192SLPC    HY22220   1.395   0.872   6.603 -0.1354  0.7496  0.1953
  192SLPC   O3122221   1.297   0.750   6.754 -0.2585  0.1514  0.5663
  192SLPC   C3122222   1.187   0.742   6.681 -0.1145 -0.3192 -0.4046
  192SLPC   O3222223   1.165   0.817   6.587 -0.2488 -0.2961  0.1832
  192SLPC   C3222224   1.093   0.635   6.722 -1.0800  0.1806  0.2093
  192SLPC   H2X22225   1.153   0.548   6.755 -1.8152 -0.1971  0.5812
  192SLPC   H2Y22226   1.044   0.617   6.624  0.8545  2.3328 -1.2790
  192SLPC   C2322227   1.165   1.003   7.237 -0.0987 -0.1738 -0.0144
  192SLPC   H3R22228   1.076   0.939   7.219  0.4249 -0.7458 -0.6517
  192SLPC   H3S22229   1.142   1.111   7.231  2.6050  0.4287 -1.4099
  192SLPC   C2422230   1.215   0.982   7.382 -1.0093  0.5358 -0.0359
  192SLPC   H4R22231   1.296   1.053   7.406 -0.9588 -0.5518  3.6347
  192SLPC   H4S22232   1.250   0.876   7.382  0.4997  0.9871  1.6361
  192SLPC   C2522233   1.101   0.984   7.489  0.2095  0.2309  0.0493
  192SLPC   H5R22234   1.030   0.909   7.448  1.4665 -0.6440 -0.5922
  192SLPC   H5S22235   1.056   1.085   7.498  3.7615  1.7960  2.0954
  192SLPC   C2622236   1.160   0.949   7.622  0.2719  0.3571  0.1009
  192SLPC   H6R22237   1.212   1.035   7.669 -0.3956 -0.2357  1.9866
  192SLPC   H6S22238   1.244   0.877   7.609  0.3367 -0.0562  2.3552
  192SLPC   C2722239   1.052   0.896   7.723  0.0080 -0.0938  0.3701
  192SLPC   H7R22240   1.006   0.807   7.675 -2.4675  1.1699  0.2358
  192SLPC   H7S22241   0.970   0.971   7.729  0.3668  0.3487 -0.1069
  192SLPC   C2822242   1.112   0.870   7.862  0.0673 -0.0796 -0.1128
  192SLPC   H8R22243   1.169   0.959   7.895  0.8395 -1.1723  1.6022
  192SLPC   H8S22244   1.181   0.783   7.857 -0.2964 -0.3385 -0.7912
  192SLPC   C2922245   1.011   0.832   7.967  0.4344  0.2375 -0.0546
  192SLPC   H9R22246   0.959   0.736   7.953  1.4273 -0.4377  0.7001
  192SLPC  C21022247   0.971   0.909   8.066  0.3051 -0.7259  0.0981
  192SLPC  H10R22248   0.901   0.861   8.136 -1.9547  2.6314  0.3326
  192SLPC  C21122249   1.017   1.053   8.098  0.0055 -0.4081  0.1544
  192SLPC  H11R22250   0.933   1.110   8.143  0.3929  0.7091 -0.4993
  192SLPC  H11S22251   1.051   1.105   8.006  0.6529 -0.7603  0.1899
  192SLPC  C21222252   1.129   1.065   8.192  0.0513 -0.4100  0.1469
  192SLPC  H12R22253   1.174   0.969   8.217  0.7223 -0.6758 -1.8669
  192SLPC  C21322254   1.187   1.171   8.249 -0.0757  0.4074  0.3946
  192SLPC  H13R22255   1.270   1.150   8.319  0.8505 -0.7012 -0.9773
  192SLPC  C21422256   1.163   1.315   8.237 -0.7015 -0.6561  0.2338
  192SLPC  H14R22257   1.076   1.334   8.170  0.7283 -0.2254 -1.5962
  192SLPC  H14S22258   1.247   1.362   8.181 -1.6667 -2.3949 -2.9195
  192SLPC  C21522259   1.130   1.367   8.376  0.1047  0.3616 -0.1506
  192SLPC  H15R22260   1.045   1.310   8.419 -0.2123 -0.8585 -2.2456
  192SLPC  H15S22261   1.092   1.470   8.384  0.5918  0.5412 -0.1032
  192SLPC  C21622262   1.247   1.363   8.475 -0.0695  0.3074 -0.8334
  192SLPC  H16R22263   1.255   1.470   8.504  0.3740 -0.0939  0.6161
  192SLPC  H16S22264   1.336   1.319   8.427  0.0875 -0.2317 -0.0643
  192SLPC  C21722265   1.219   1.278   8.604 -0.4223 -0.3774  0.1425
  192SLPC  H17R22266   1.129   1.314   8.658  0.3798  0.7012  0.8130
  192SLPC  H17S22267   1.204   1.178   8.559  0.5070 -0.6449  0.3890
  192SLPC  C21822268   1.343   1.282   8.682 -0.1693 -0.4656  0.4174
  192SLPC  H18R22269   1.353   1.193   8.748  0.4309 -1.6010 -1.1600
  192SLPC  H18S22270   1.349   1.374   8.744 -2.1668 -0.2652  0.3984
  192SLPC  H18T22271   1.431   1.277   8.614  0.5321  0.6518  1.1995
  192SLPC   C3322272   0.999   0.684   6.831  0.2263 -1.0624 -0.2363
  192SLPC   H3X22273   0.967   0.786   6.800  1.1508 -0.0989  1.7564
  192SLPC   H3Y22274   1.042   0.709   6.931 -3.1695 -2.2653  1.6776
  192SLPC   C3422275   0.880   0.583   6.861 -0.0968 -0.6594  0.2996
  192SLPC   H4X22276   0.931   0.499   6.913  1.5104 -1.1086 -1.8513
  192SLPC   H4Y22277   0.843   0.537   6.767 -0.3453 -1.7097  0.9048
  192SLPC   C3522278   0.767   0.633   6.946  0.2927 -0.0118 -0.3614
  192SLPC   H5X22279   0.680   0.565   6.938 -1.6633  2.2679  0.0846
  192SLPC   H5Y22280   0.742   0.738   6.919  0.7927 -0.2267 -1.7078
  192SLPC   C3622281   0.809   0.632   7.095  1.3010  0.6561 -0.4684
  192SLPC   H6X22282   0.869   0.724   7.109 -0.6259  1.7993  0.7523
  192SLPC   H6Y22283   0.871   0.543   7.122  0.0497 -0.7736 -2.0735
  192SLPC   C3722284   0.679   0.647   7.174  0.2706  0.1938 -0.6565
  192SLPC   H7X22285   0.603   0.569   7.150  0.3469  0.5111 -2.0357
  192SLPC   H7Y22286   0.632   0.745   7.149  0.0979  0.4444  0.5900
  192SLPC   C3822287   0.714   0.649   7.326  0.0245 -0.3809  0.5587
  192SLPC   H8X22288   0.815   0.688   7.351 -0.3307 -0.0288  1.4636
  192SLPC   H8Y22289   0.726   0.543   7.358 -1.8697 -1.1646 -1.0720
  192SLPC   C3922290   0.619   0.725   7.419  0.0491  0.1112 -0.1676
  192SLPC   H9X22291   0.531   0.658   7.418  0.1234 -0.0362 -2.2812
  192SLPC   H9Y22292   0.595   0.821   7.368  0.5762  0.2385 -0.1852
  192SLPC  C31022293   0.675   0.738   7.556  0.0807  0.0694 -0.0134
  192SLPC  H10X22294   0.769   0.796   7.542  1.0154 -1.6176 -1.0839
  192SLPC  H10Y22295   0.699   0.639   7.600 -1.6069  0.3430  1.6543
  192SLPC  C31122296   0.579   0.804   7.654 -0.1133 -0.2056 -0.2936
  192SLPC  H11X22297   0.505   0.731   7.695 -1.2398  0.3069 -1.3551
  192SLPC  H11Y22298   0.508   0.873   7.603 -0.5997 -0.2624  0.2849
  192SLPC  C31222299   0.648   0.869   7.772 -0.6754 -0.0722  0.7031
  192SLPC  H12X22300   0.704   0.965   7.768  1.5384 -1.3265 -0.6162
  192SLPC  H12Y22301   0.720   0.793   7.811 -2.4270 -1.0808  2.1273
  192SLPC  C31322302   0.553   0.884   7.893 -0.1775 -0.1095 -0.1126
  192SLPC  H13X22303   0.503   0.788   7.916  1.0002 -0.8234 -0.4148
  192SLPC  H13Y22304   0.472   0.952   7.860  1.2430  1.6901 -0.0557
  192SLPC  C31422305   0.629   0.939   8.014  0.6037 -0.1556 -0.2733
  192SLPC  H14X22306   0.695   1.024   7.988 -0.1390  0.9908  1.3770
  192SLPC  H14Y22307   0.687   0.855   8.059  1.8382 -0.2596 -1.9733
  192SLPC  C31522308   0.532   0.989   8.127  0.1565 -0.3585  0.0018
  192SLPC  H15X22309   0.468   1.064   8.075 -0.1159  0.1087  0.9881
  192SLPC  H15Y22310   0.595   1.029   8.209 -0.4048  0.1436  0.1971
  192SLPC  C31622311   0.435   0.881   8.194  0.3090  0.6369 -0.4243
  192SLPC  H16X22312   0.347   0.855   8.131  0.0816  1.7458 -0.5821
  192SLPC  H16Y22313   0.383   0.925   8.282 -0.0017 -1.4569  0.5166
  192SLPC  C31722314   0.510   0.746   8.224  0.3304 -0.4043  0.0373
  192SLPC  H17X22315   0.612   0.768   8.260  1.1769 -2.7959 -0.7026
  192SLPC  H17Y22316   0.525   0.697   8.125 -3.1430 -3.5494  0.8248
  192SLPC  C31822317   0.442   0.651   8.320  0.3459 -0.1705  0.2012
  192SLPC  H18X22318   0.350   0.604   8.279 -0.2255  0.3827  0.8202
  192SLPC  H18Y22319   0.412   0.706   8.412  0.3612 -0.4734  0.3886
  192SLPC  H18Z22320   0.505   0.562   8.339  1.3849  0.2126 -1.2885
  193SOD    SOD22321   6.286   2.990  16.484 -0.1879 -0.3452 -0.7681
  194SOD    SOD22322   1.512   3.271  14.580 -0.4386 -0.3418  0.0102
  195SOD    SOD22323   4.509   5.691  14.243  0.9206  0.1274 -0.1203
  196SOD    SOD22324   4.756   3.376  12.800  0.2399  0.0355 -0.0057
  197SOD    SOD22325   5.727   5.216  10.805 -0.0273 -0.0760 -0.1401
  198SOD    SOD22326   2.999   2.288   5.061  0.3317 -0.0862  0.2258
  199SOD    SOD22327   1.678   0.626   5.489  0.0755 -0.2612  0.2805
  200SOD    SOD22328   0.589   0.074  12.142  0.0507 -0.4096 -0.1167
  201SOD    SOD22329   0.056   3.760   6.285 -0.8712  0.1486  0.0761
  202SOD    SOD22330   0.806   5.545   1.142 -0.1045 -0.1095 -0.1209
  203SOD    SOD22331   0.040   0.470  10.846 -0.2476  0.0890  0.0013
  204SOD    SOD22332   1.392   3.407   2.223 -0.3865 -0.1995  0.2119
  205SOD    SOD22333   5.539   4.056  10.683 -0.0518  0.0292 -0.2423
  206SOD    SOD22334   2.450   6.741   4.829  0.2664 -0.0126 -0.5348
  207SOD    SOD22335   0.215   0.423   3.585  0.1618 -0.3749 -0.1535
  208SOD    SOD22336   3.900   2.516  12.674 -0.1546 -0.7209  0.3048
  209SOD    SOD22337   0.361   4.933   4.578 -0.1399 -0.4752 -0.0091
  210SOD    SOD22338   2.892   3.037   2.499  0.4354  0.2100 -0.1357
  211SOD    SOD22339   1.931   6.123   0.565 -0.2403 -0.0908  0.0160
  212SOD    SOD22340   5.424   6.109   0.068  0.2841 -0.2727  0.4932
  213SOD    SOD22341   1.964   6.319  16.956  0.4140  0.3954  0.4608
  214SOD    SOD22342   3.193   2.671  14.389  0.4905 -0.3412  0.1485
  215SOD    SOD22343   6.125   3.490   0.384  0.7072  0.3051 -0.0244
  216SOD    SOD22344   5.715   6.345  12.205  0.1616  0.2878  0.1674
  217SOD    SOD22345   0.268   5.942   6.107 -0.0078 -0.2243 -0.4306
  218SOD    SOD22346   0.483   4.375  11.327 -0.3007 -0.2912  0.3142
  219SOD    SOD22347   2.893   1.827   0.455 -0.5232  0.6701 -0.0538
  220SOD    SOD22348   5.044   2.687   0.476  0.1444 -0.0385  0.1774
  221SOD    SOD22349   6.711   0.743   4.210 -0.2525 -0.3596 -0.9048
  222SOD    SOD22350   6.504   1.513   2.917 -0.0628 -0.3007 -0.1694
  223SOD    SOD22351   0.221   3.150   6.106 -0.0848  0.5205  0.1473
  224SOD    SOD22352   4.492   6.596   6.530  0.0343  0.0810  0.3254
  225SOD    SOD22353   4.319   6.622  13.138 -0.2418  0.0704  0.3761
  226SOD    SOD22354   2.489   5.957  13.139 -0.2647  0.0964  0.2582
  227SOD    SOD22355   2.512   4.022  10.985 -0.1597  0.0203  0.1690
  228SOD    SOD22356   2.935   2.807  16.435  0.0636 -0.0445 -0.4004
  229SOD    SOD22357   2.460   1.800   4.314 -0.3142  0.3156 -0.2142
  230SOD    SOD22358   0.080   0.089   6.271 -0.4171 -0.0258  0.1575
  231SOD    SOD22359   3.091   4.376   2.237  0.2937  0.8487  0.2052
  232SOD    SOD22360   5.048   5.692  15.125 -0.4569  0.3696  0.0246
  233SOD    SOD22361   2.002   0.222  14.732 -0.1884 -0.3290 -0.0227
  234SOD    SOD22362   5.135   4.363  11.464 -0.4541  0.9602 -0.1378
  235SOD    SOD22363   5.869   4.885   0.540 -0.2818 -0.6971 -0.4269
  236SOD    SOD22364   3.896   2.809   5.839  0.1703 -0.1087 -0.7667
  237SOD    SOD22365   3.956   6.091   3.715 -0.0989  0.1303 -0.2507
  238SOD    SOD22366   3.694   3.271  15.736  0.1203 -0.0428 -0.0903
  239SOD    SOD22367   1.569   2.297  16.761  0.1146  0.4843  0.1643
  240SOD    SOD22368   2.065   1.033  13.665 -0.2566 -0.3943  0.0002
  241SOD    SOD22369   4.010   2.981  11.927  0.2877 -0.5234 -0.4551
  242SOD    SOD22370   6.427   6.339  17.254  0.6522  0.2674 -0.2444
  243SOD    SOD22371   1.621   0.784  11.234 -0.6163  0.1106  0.0245
  244SOD    SOD22372   0.477   0.863  12.562 -0.3698 -0.5676 -0.0859
  245SOD    SOD22373   0.530   3.419   3.586 -0.3053  0.5452 -0.2581
  246SOD    SOD22374   4.807   4.361   5.345  0.0470 -0.6473 -0.0619
  247SOD    SOD22375   6.673   3.911  16.958 -0.5663  0.2713  0.4815
  248SOD    SOD22376   0.869   6.114   5.980 -0.1417 -0.1888  0.8312
  249SOD    SOD22377   3.097   6.349  11.241 -0.2006  0.0557 -0.3411
  250SOD    SOD22378   5.787   3.589   2.688  0.3245 -0.0409 -0.4777
  251SOD    SOD22379   6.146   0.165   2.394 -0.1581  0.0430  0.5372
  252SOD    SOD22380   1.424   0.461   3.592 -0.2460 -0.2811  0.0314
  253SOD    SOD22381   3.480   3.690  14.324  0.0185 -0.2071  0.2869
  254SOD    SOD22382   5.398   2.815   5.444  0.0325 -0.5693  0.2049
  255SOD    SOD22383   2.802   5.059  11.638  0.5147  0.0579 -0.4806
  256SOD    SOD22384   0.671   3.051   4.897 -0.0492  0.1156  0.1044
  257SOD    SOD22385   4.463   6.184   5.892  0.2162 -0.0940  0.1835
  258SOD    SOD22386   0.085   3.787   3.869  0.0727  0.3504 -0.1340
  259SOD    SOD22387   2.939   2.929   2.113 -0.9027  0.1637  0.2068
  260SOD    SOD22388   5.424   1.325   4.632 -0.1052 -0.4324 -0.1019
  261SOD    SOD22389   1.037   3.585  11.204  0.1595  0.0352  0.0786
  262SOD    SOD22390   4.800   2.490  13.967  0.0518  0.0088 -0.0027
  263SOD    SOD22391   3.157   0.954  13.274  0.4225 -0.2549  0.1355
  264SOD    SOD22392   3.540   1.200   1.462  0.3943  0.1684 -0.0754
  265SOD    SOD22393   4.728   5.865  12.522 -0.0860  0.0992 -0.0217
  266CLA    CLA22394   0.624   3.390   1.467  0.3016 -0.0006  0.2559
  267CLA    CLA22395   1.883   6.754  16.189 -0.4318 -0.3783  0.4081
  268CLA    CLA22396   1.207   1.417  12.512 -0.3040  0.2861  0.0557
  269CLA    CLA22397   4.446   4.448   3.050 -0.6320  0.2490 -0.0375
  270CLA    CLA22398   2.832   5.909  15.940 -0.2916 -0.0650 -0.2722
  271CLA    CLA22399   6.582   0.176   2.013 -0.0417  0.4521  0.1501
  272CLA    CLA22400   2.957   0.195   5.243  0.2997  0.2615 -0.3091
  273CLA    CLA22401   4.542   4.980   1.672  0.1265 -0.1538 -0.6844
  274CLA    CLA22402   4.451   2.945  12.949  0.0072  0.0346 -0.2873
  275CLA    CLA22403   6.267   4.813  14.766 -0.0353 -0.0879  0.0085
  276CLA    CLA22404   4.585   0.161  12.475 -0.1535 -0.1711  0.2491
  277CLA    CLA22405   4.385   4.630   3.807  0.2914 -0.1967  0.0272
  278CLA    CLA22406   3.193   4.227   5.203  0.4539  0.1303  0.2383
  279CLA    CLA22407   6.820   2.485   2.227  0.2538 -0.4338  0.1355
  280CLA    CLA22408   3.091   0.917  16.000  0.2885  0.0147  0.0673
  281CLA    CLA22409   1.309   0.191  11.485 -0.0077  0.0351  0.1328
  282CLA    CLA22410   4.385   3.839   0.472 -0.2843  0.5212 -0.4661
  283CLA    CLA22411   3.657   5.617   2.010 -0.0931  0.1946 -0.0086
  284CLA    CLA22412   0.565   6.619  13.131 -0.0001  0.3347 -0.1795
  285CLA    CLA22413   3.607   2.640   2.578  0.1710 -0.1857 -0.3563
  286CLA    CLA22414   5.350   3.265  11.654  0.2773  0.1803 -0.2830
  287CLA    CLA22415   6.094   2.057  11.595 -0.2370  0.3088  0.2212
  288CLA    CLA22416   2.381   0.642  10.920 -0.0843  0.3070  0.0676
  289CLA    CLA22417   2.495   1.708  15.385  0.2354  0.3018  0.1560
  290CLA    CLA22418   5.805   3.360   0.805  0.0749 -0.1789 -0.1603
  291CLA    CLA22419   3.721   3.541  15.855 -0.0158 -0.3887 -0.0832
  292CLA    CLA22420   0.629   6.810   4.162  0.2353 -0.3992  0.2291
  293CLA    CLA22421   1.624   5.243   0.992 -0.2431  0.1654  0.4714
  294CLA    CLA22422   0.203   2.361  16.815  0.2698 -0.1848  0.4387
  295CLA    CLA22423   2.345   1.821   0.046  0.1647 -0.1243 -0.6895
  296CLA    CLA22424   2.360   0.213   3.821  0.3345 -0.0264 -0.1880
  297CLA    CLA22425   6.607   3.500   3.071 -0.0882  0.3542  0.3298
  298CLA    CLA22426   0.262   2.420   4.845 -0.0162 -0.3407  0.1671
  299CLA    CLA22427   4.996   4.148   5.388 -0.1302 -0.2593 -0.4096
  300CLA    CLA22428   2.655   1.915   3.940 -0.0589 -0.0267 -0.6214
  301CLA    CLA22429   4.185   1.934   2.136  0.2470  0.2236  0.3395
  302CLA    CLA22430   6.331   0.199  16.888 -0.4909 -0.4595 -0.0808
  303CLA    CLA22431   3.170   6.240  11.787  0.0016 -0.1142  0.0472
  304CLA    CLA22432   3.132   5.868   1.319  0.1017  0.0194  0.1415
  305CLA    CLA22433   6.202   1.196   0.670 -0.4404  0.7484 -0.0938
  306CLA    CLA22434   1.743   1.836   3.989  0.4476 -0.4661 -0.3189
  307CLA    CLA22435   0.952   3.809  12.953  0.2094  0.2251 -0.2290
  308CLA    CLA22436   0.154   6.425  11.779  0.0510  0.0397 -0.1514
  309CLA    CLA22437   4.225   6.391   4.222 -0.0482  0.1798 -0.0861
  310CLA    CLA22438   0.780   5.943   5.118  0.0246 -0.3852  0.1798
  311CLA    CLA22439   4.732   4.397   0.830 -0.0015 -0.0847 -0.0802
  312CLA    CLA22440   3.776   5.693  12.724  0.2993 -0.3104  0.6242
  313CLA    CLA22441   6.277   4.139  16.805 -0.2891 -0.0073 -0.3384
  314CLA    CLA22442   5.570   2.280  16.028 -0.3150  0.1654 -0.0279
  315CLA    CLA22443   0.257   3.367   0.122 -0.0901  0.1573  0.3885
  316CLA    CLA22444   2.633   5.955  13.361  0.1274  0.0977  0.1046
  317CLA    CLA22445   1.775   0.305   2.741  0.0324  0.1168 -0.2373
  318CLA    CLA22446   1.968   0.428  13.114 -0.0811  0.2862  0.0298
  319TIP3   OH222447   5.332   1.513   1.041  0.2503 -0.1232 -0.1758
  319TIP3    H122448   5.283   1.491   1.121  1.6852 -1.4133  0.4051
  319TIP3    H222449   5.290   1.460   0.973  0.1804 -0.4353  0.1032
  320TIP3   OH222450   1.793   6.686  13.426 -0.2193  0.1088  0.2635
  320TIP3    H122451   1.779   6.641  13.343  0.7170  1.1840 -0.5154
  320TIP3    H222452   1.721   6.657  13.482 -0.9782 -0.4845 -0.9815
  321TIP3   OH222453   6.256   4.837   1.444 -0.4421  0.7041 -0.3362
  321TIP3    H122454   6.310   4.906   1.483  0.9936  0.4192 -1.7024
  321TIP3    H222455   6.216   4.792   1.518  0.8443  1.2250  0.7084
  322TIP3   OH222456   4.175   0.283   0.377  0.5481 -0.5211 -0.2915
  322TIP3    H122457   4.192   0.297   0.284  0.8538  0.8288 -0.0577
  322TIP3    H222458   4.172   0.188   0.387  1.9560 -0.7204 -1.4213
  323TIP3   OH222459   2.030   5.697  13.740  0.3657  0.1067  0.2958
  323TIP3    H122460   1.974   5.773  13.729  0.9092  0.8879  2.5119
  323TIP3    H222461   2.119   5.733  13.744  0.8022 -0.8366 -0.4411
  324TIP3   OH222462   6.328   3.502   3.347 -0.2147 -0.1598  0.3711
  324TIP3    H122463   6.388   3.576   3.335 -2.6684  1.6173 -2.2593
  324TIP3    H222464   6.372   3.429   3.304  0.2104  1.0452 -1.3575
  325TIP3   OH222465   2.385   5.126  16.383  0.1256 -0.3403 -0.2214
  325TIP3    H122466   2.370   5.070  16.459  0.7222  0.9649  0.9063
  325TIP3    H222467   2.442   5.196  16.416  1.9136 -0.7241 -2.3262
  326TIP3   OH222468   0.419   3.901  12.661  0.2863  0.0393 -0.5043
  326TIP3    H122469   0.450   3.844  12.732 -1.5717 -1.8172 -1.0542
  326TIP3    H222470   0.367   3.968  12.705  0.7734  0.0740  0.0283
  327TIP3   OH222471   6.204   0.650  14.187 -0.4431  0.2201  0.4816
  327TIP3    H122472   6.225   0.624  14.276 -0.0678 -0.0072  0.3300
  327TIP3    H222473   6.264   0.600  14.132 -3.4945 -3.0690 -0.2547
  328TIP3   OH222474   4.234   5.034  13.561  0.0485 -0.0488 -0.2013
  328TIP3    H122475   4.156   5.004  13.607  1.0250  0.0418  1.5974
  328TIP3    H222476   4.219   5.128  13.547 -0.5379 -0.2094 -0.6602
  329TIP3   OH222477   4.750   3.215   0.882  0.3747  0.0484 -0.7953
  329TIP3    H122478   4.840   3.221   0.852  1.1189  1.0202  1.4263
  329TIP3    H222479   4.708   3.294   0.848  0.7580  0.3198 -0.6463
  330TIP3   OH222480   2.890   2.084   2.904  0.7954  0.0404  0.4784
  330TIP3    H122481   2.966   2.027   2.917  0.3428 -0.8382 -0.5517
  330TIP3    H222482   2.843   2.045   2.831  0.0152  1.2806  0.2792
  331TIP3   OH222483   5.517   5.557   2.904 -0.0942 -0.0877 -0.3173
  331TIP3    H122484   5.526   5.575   2.811  1.5578  0.3417 -0.1177
  331TIP3    H222485   5.591   5.603   2.944 -2.1150  1.8637  1.5054
  332TIP3   OH222486   5.536   4.520  13.174  0.0136 -0.2429 -0.2672
  332TIP3    H122487   5.609   4.582  13.184 -0.9962  1.0787 -0.7967
  332TIP3    H222488   5.503   4.507  13.263  2.5632 -3.0466  0.4160
  333TIP3   OH222489   1.875   0.493  14.239 -0.9257 -0.2360 -0.5855
  333TIP3    H122490   1.845   0.577  14.273  1.1052  0.4274 -0.3285
  333TIP3    H222491   1.942   0.516  14.175  0.8468 -1.6764  0.6650
  334TIP3   OH222492   4.617   5.645  15.191 -0.3659 -0.0110 -0.2630
  334TIP3    H122493   4.694   5.629  15.136 -0.4539  0.5802 -0.5634
  334TIP3    H222494   4.653   5.651  15.280  0.0228  0.8516 -0.4671
  335TIP3   OH222495   4.589   4.645  15.505  0.7262  0.1500  0.5754
  335TIP3    H122496   4.570   4.668  15.596 -1.0839  3.2148 -0.4086
  335TIP3    H222497   4.680   4.671  15.491  0.6830  0.6614  1.2395
  336TIP3   OH222498   6.170   6.488  11.236 -0.7092  0.3166 -0.1887
  336TIP3    H122499   6.140   6.485  11.146 -0.5392 -1.4189 -0.2146
  336TIP3    H222500   6.193   6.398  11.258  1.1496  0.9846  0.9476
  337TIP3   OH222501   0.683   5.741  15.643 -0.1837  0.3003 -0.4499
  337TIP3    H122502   0.718   5.829  15.656  0.7678 -0.1030 -0.2641
  337TIP3    H222503   0.749   5.695  15.592  0.2396 -0.8806  1.0690
  338TIP3   OH222504   1.223   2.306  10.958  0.1801 -0.1371  0.3148
  338TIP3    H122505   1.175   2.224  10.942 -2.2516  1.6007 -2.3563
  338TIP3    H222506   1.301   2.298  10.902  0.7235 -1.1568  1.1760
  339TIP3   OH222507   3.191   2.342  11.669  0.1085 -0.2327 -0.3912
  339TIP3    H122508   3.211   2.432  11.694 -0.0757 -0.5460  1.0170
  339TIP3    H222509   3.216   2.336  11.577  2.2312  0.6296  0.0693
  340TIP3   OH222510   1.138   6.187   0.749  0.3437  0.0294  0.0334
  340TIP3    H122511   1.114   6.104   0.789 -0.7117 -0.1388 -0.8837
  340TIP3    H222512   1.161   6.244   0.822  1.7795 -1.2687  0.6193
  341TIP3   OH222513   2.530   3.873  12.154  0.0252 -0.4409 -0.9708
  341TIP3    H122514   2.498   3.926  12.227 -0.6116 -1.6428 -0.3421
  341TIP3    H222515   2.603   3.823  12.191 -1.4608 -2.4466 -0.5591
  342TIP3   OH222516   0.748   0.076  16.047  0.2440 -0.0807 -0.4054
  342TIP3    H122517   0.769  -0.007  16.090  0.4030 -1.0127 -2.1793
  342TIP3    H222518   0.652   0.075  16.039 -0.1924  1.6684  2.8181
  343TIP3   OH222519   5.261   6.671   4.942 -0.1248 -0.1279  0.9041
  343TIP3    H122520   5.221   6.757   4.928 -2.2336 -1.0740  0.7117
  343TIP3    H222521   5.283   6.640   4.854  0.5921  0.1793  0.9698
  344TIP3   OH222522   4.774   4.793  11.545 -0.3503 -0.2250 -0.5348
  344TIP3    H122523   4.704   4.844  11.505  0.6529 -0.2470 -2.4030
  344TIP3    H222524   4.844   4.791  11.480  0.8582 -1.3883  0.7117
  345TIP3   OH222525   0.871   3.975  10.957 -0.8600 -0.1133 -0.2180
  345TIP3    H122526   0.838   3.984  11.046 -1.2574  0.2018 -0.3982
  345TIP3    H222527   0.904   4.062  10.935 -2.2902  0.2587 -0.9889
  346TIP3   OH222528   1.090   6.781  13.387  0.5181  0.1619  0.4572
  346TIP3    H122529   1.153   6.777  13.460  1.1025  2.3091  0.1308
  346TIP3    H222530   1.036   6.857  13.407 -0.9234 -0.6811 -0.1314
  347TIP3   OH222531   1.960   4.623  16.816 -0.7204 -0.3391 -0.4642
  347TIP3    H122532   2.047   4.598  16.786 -0.1885  0.5367  0.2890
  347TIP3    H222533   1.930   4.687  16.751 -1.1629 -1.2557 -1.1812
  348TIP3   OH222534   6.790   3.202   4.139 -0.4406  0.0108 -0.0166
  348TIP3    H122535   6.824   3.275   4.088  1.2905  0.8468  2.1924
  348TIP3    H222536   6.751   3.243   4.216 -2.8890 -1.2196 -0.4821
  349TIP3   OH222537   1.214   0.705  11.205  0.0958 -0.2571  0.3599
  349TIP3    H122538   1.162   0.785  11.212  2.6330  1.7536 -1.6523
  349TIP3    H222539   1.158   0.643  11.158 -0.5684  1.8141 -1.7763
  350TIP3   OH222540   6.062   2.766  14.029  0.6218 -0.9881 -0.4042
  350TIP3    H122541   6.054   2.683  13.982  1.4499 -1.3217  0.0116
  350TIP3    H222542   6.151   2.765  14.064  0.3516 -0.3158  0.3427
  351TIP3   OH222543   2.528   0.511  15.195  0.5727 -0.6802 -0.0161
  351TIP3    H122544   2.613   0.553  15.180  0.9000 -0.2895  2.6040
  351TIP3    H222545   2.465   0.583  15.194  0.9867 -0.1610  3.2721
  352TIP3   OH222546   1.238   6.637   0.985 -0.1277 -0.1353  0.2890
  352TIP3    H122547   1.192   6.708   1.030 -0.7686 -0.9510  0.9517
  352TIP3    H222548   1.212   6.645   0.893  1.0856  1.4679  0.0431
  353TIP3   OH222549   0.817   1.952   0.063 -0.0518 -0.8816 -0.5516
  353TIP3    H122550   0.770   2.035   0.058 -0.6962 -1.2440 -0.5828
  353TIP3    H222551   0.881   1.956  -0.007  1.7098  0.6673  1.0288
  354TIP3   OH222552   5.077   5.758   0.837  0.2915 -0.4856 -0.8227
  354TIP3    H122553   5.100   5.772   0.745 -1.7012 -2.3529 -1.6840
  354TIP3    H222554   5.014   5.686   0.836 -0.1986 -0.2218  1.9781
  355TIP3   OH222555   5.285   1.558  16.613 -0.3216 -0.1418  0.4038
  355TIP3    H122556   5.360   1.581  16.668 -0.0986  1.3263 -0.4634
  355TIP3    H222557   5.210   1.557  16.673 -0.1535  1.8555  0.7232
  356TIP3   OH222558   2.412   1.826  16.667  0.1514  0.1359 -0.1199
  356TIP3    H122559   2.396   1.743  16.714  1.9283 -0.1912 -0.0262
  356TIP3    H222560   2.326   1.849  16.631 -0.7716 -0.8187  1.3317
  357TIP3   OH222561   0.368   0.843  13.586 -0.1686 -0.1229 -0.0541
  357TIP3    H122562   0.460   0.825  13.571 -0.5091 -2.2089  0.0567
  357TIP3    H222563   0.324   0.815  13.506 -0.8544 -0.5527  0.4657
  358TIP3   OH222564   4.378   4.706  15.995 -0.4300  0.3376 -0.3597
  358TIP3    H122565   4.341   4.621  16.018  0.3200 -0.1165 -0.8051
  358TIP3    H222566   4.302   4.762  15.981 -1.0252 -0.9267 -2.6265
  359TIP3   OH222567   6.431   1.532   4.912 -0.3805  0.2582  0.2748
  359TIP3    H122568   6.410   1.453   4.862  1.3623 -0.5911  0.8121
  359TIP3    H222569   6.381   1.523   4.993 -0.1393 -0.3491  0.3629
  360TIP3   OH222570   0.694   5.002  16.927 -0.1835 -0.1930 -0.1859
  360TIP3    H122571   0.776   4.953  16.918 -0.6831 -0.9261 -0.8647
  360TIP3    H222572   0.694   5.062  16.853 -1.2848 -1.7594 -1.5283
  361TIP3   OH222573   4.460   2.609  13.444 -0.1564 -0.1051  0.0290
  361TIP3    H122574   4.431   2.577  13.529  0.5199 -0.2566  0.2139
  361TIP3    H222575   4.470   2.704  13.457  1.9616 -0.3740  0.7682
  362TIP3   OH222576   1.138   5.351   5.108 -0.2933 -0.4332  0.4186
  362TIP3    H122577   1.043   5.356   5.104 -0.3806  0.1411  2.2039
  362TIP3    H222578   1.162   5.406   5.183  1.6085  1.1232 -1.2128
  363TIP3   OH222579   4.604   6.463   5.216  0.4709 -0.5868 -0.1255
  363TIP3    H122580   4.560   6.547   5.227 -0.2196 -0.7584 -1.3979
  363TIP3    H222581   4.663   6.476   5.142 -0.9385 -1.6926 -1.4992
  364TIP3   OH222582   0.082   6.327   1.514 -0.2677  0.8034 -0.0916
  364TIP3    H122583   0.087   6.385   1.590 -0.3503  1.6250 -0.7016
  364TIP3    H222584  -0.008   6.295   1.514  0.2837 -0.9342  1.3868
  365TIP3   OH222585   5.671   6.140   5.604 -0.1234  0.6659 -0.4447
  365TIP3    H122586   5.630   6.124   5.688  2.8655 -0.8633  0.8889
  365TIP3    H222587   5.742   6.076   5.599  0.0437  0.9193 -4.0023
  366TIP3   OH222588   1.021   1.296  16.999  0.4465 -0.2515  0.0287
  366TIP3    H122589   0.943   1.351  17.010  1.1357  1.0110 -1.1003
  366TIP3    H222590   0.987   1.206  17.004 -0.4328  0.0827  4.0840
  367TIP3   OH222591   1.213   2.284   1.532  0.0486 -0.2334  0.0470
  367TIP3    H122592   1.178   2.218   1.471 -0.7104 -0.2447  0.4844
  367TIP3    H222593   1.208   2.366   1.483  1.5266 -0.5606 -0.7102
  368TIP3   OH222594   4.334   5.142   5.232  0.2636 -0.2503 -0.0943
  368TIP3    H122595   4.266   5.163   5.169 -1.6969  1.2644  2.3100
  368TIP3    H222596   4.310   5.056   5.266  0.1381 -0.1753  0.0084
  369TIP3   OH222597   4.406   5.294  11.070  0.1435 -0.2866  0.3229
  369TIP3    H122598   4.420   5.273  10.978  1.4914 -0.6771  0.5992
  369TIP3    H222599   4.416   5.389  11.075  1.5243 -0.4112  0.2842
  370TIP3   OH222600   4.126   0.873   0.920  0.4984  0.2137  0.2167
  370TIP3    H122601   4.169   0.817   0.855 -0.4616  0.0990 -0.3254
  370TIP3    H222602   4.144   0.829   1.003 -0.9391 -1.3956 -0.2689
  371TIP3   OH222603   3.723   5.086   0.962  0.1310 -0.3313  0.2309
  371TIP3    H122604   3.751   5.055   1.048  0.4215 -0.3540  0.1308
  371TIP3    H222605   3.664   5.019   0.930 -0.8305  0.1896  0.8629
  372TIP3   OH222606   5.544   5.185  14.164 -0.4357 -0.5392  0.6840
  372TIP3    H122607   5.615   5.124  14.185  1.2745  1.5345  1.3282
  372TIP3    H222608   5.550   5.197  14.069 -0.4724 -1.0123  0.6203
  373TIP3   OH222609   5.294   2.995  15.573  0.4398  0.2244  0.2212
  373TIP3    H122610   5.232   3.045  15.520  0.0571 -2.0443 -1.6460
  373TIP3    H222611   5.378   3.005  15.529  0.1037 -1.7441 -1.0179
  374TIP3   OH222612   6.685   2.225  14.022 -0.5122 -0.1975 -0.6219
  374TIP3    H122613   6.663   2.317  14.010  0.0239  0.0470  0.1909
  374TIP3    H222614   6.773   2.216  13.986 -0.0858 -0.1138  0.3650
  375TIP3   OH222615   0.104   2.768   2.345  0.7079  0.5449 -0.2839
  375TIP3    H122616   0.108   2.748   2.438  0.1134  1.7224  0.0136
  375TIP3    H222617   0.110   2.683   2.302  1.8627  0.0579  0.7865
  376TIP3   OH222618   4.001   5.992   4.336 -0.1880 -0.3403 -0.8137
  376TIP3    H122619   4.086   5.958   4.366 -0.5434 -0.0284  0.6447
  376TIP3    H222620   3.953   5.914   4.310  0.3130 -0.5843 -1.0322
  377TIP3   OH222621   2.363   4.759   2.868 -0.3762 -0.2608 -0.5903
  377TIP3    H122622   2.352   4.785   2.959  3.1644  2.1737 -0.6490
  377TIP3    H222623   2.414   4.678   2.872  0.8070  0.4760 -0.3473
  378TIP3   OH222624   6.307   5.865  14.320 -0.1523  0.4328  0.3229
  378TIP3    H122625   6.312   5.856  14.416  1.4417  0.5304  0.2662
  378TIP3    H222626   6.396   5.886  14.293 -0.9314  2.1811 -1.0260
  379TIP3   OH222627   1.210   6.757  11.873  0.4427  0.2987  0.0112
  379TIP3    H122628   1.180   6.794  11.789  1.7444 -0.2866 -0.7426
  379TIP3    H222629   1.171   6.670  11.875 -0.1512  0.5649  0.3562
  380TIP3   OH222630   3.548   5.323  13.261  0.1047 -0.0204 -0.4004
  380TIP3    H122631   3.524   5.314  13.169  0.4145 -0.7546 -0.4121
  380TIP3    H222632   3.629   5.273  13.270 -0.5596 -0.9658  0.5307
  381TIP3   OH222633   4.480   5.185   1.236  0.0867  0.0564 -0.3134
  381TIP3    H122634   4.448   5.232   1.313  0.0941 -1.6981  0.8225
  381TIP3    H222635   4.403   5.170   1.183 -0.5556 -1.6081  1.0021
  382TIP3   OH222636   5.622   2.029   0.639  0.1383 -0.4467 -0.0421
  382TIP3    H122637   5.587   1.993   0.558 -2.3026  0.3767  0.5716
  382TIP3    H222638   5.637   2.122   0.620 -0.7910 -0.1660  0.4972
  383TIP3   OH222639   1.365   3.163   2.201  0.7573 -0.1239 -0.5034
  383TIP3    H122640   1.398   3.090   2.150 -1.1661  0.1030 -2.2242
  383TIP3    H222641   1.324   3.122   2.278  0.0786 -0.8546 -1.2324
  384TIP3   OH222642   0.596   5.729  15.898  0.7458 -0.7648 -0.2668
  384TIP3    H122643   0.632   5.742  15.810  0.7665 -0.8800 -0.2753
  384TIP3    H222644   0.532   5.800  15.908 -1.6725 -2.5865 -1.6501
  385TIP3   OH222645   1.278   1.274   3.832 -0.2662 -0.5404  0.9769
  385TIP3    H122646   1.346   1.307   3.890  2.2078  0.0215 -1.9936
  385TIP3    H222647   1.264   1.184   3.861  0.1566 -0.0302  2.9600
  386TIP3   OH222648   0.261   1.845  11.109 -0.2384  0.5218 -0.1766
  386TIP3    H122649   0.289   1.796  11.032 -1.1422 -0.7561  0.2705
  386TIP3    H222650   0.335   1.902  11.129  0.6507 -0.2846 -1.0351
  387TIP3   OH222651   4.860   6.777   5.189 -0.4628  0.0397 -0.0147
  387TIP3    H122652   4.847   6.729   5.271 -1.6693 -1.8901 -1.2759
  387TIP3    H222653   4.946   6.749   5.158 -0.4225  0.0252  0.1096
  388TIP3   OH222654   6.566   0.592  11.468 -0.7644  0.0383  0.0885
  388TIP3    H122655   6.494   0.632  11.419 -1.1852 -1.6428 -0.7313
  388TIP3    H222656   6.559   0.498  11.451  0.7023 -0.3382  1.2430
  389TIP3   OH222657   2.505   0.617  13.646  0.5809  0.1481  0.4976
  389TIP3    H122658   2.555   0.598  13.725  3.0300  0.0335 -0.9808
  389TIP3    H222659   2.505   0.536  13.596  2.6794  1.2360 -1.4382
  390TIP3   OH222660   6.800   0.860   2.878  0.2491  0.2522 -0.0823
  390TIP3    H122661   6.766   0.949   2.871  2.2162  0.9800 -0.9584
  390TIP3    H222662   6.890   0.870   2.908  0.0394 -1.5680  1.4142
  391TIP3   OH222663   2.801   5.884  12.382 -0.2001  0.2985 -0.9738
  391TIP3    H122664   2.832   5.907  12.470 -0.5935  1.2393 -1.0760
  391TIP3    H222665   2.820   5.790  12.374 -1.0903 -0.0365  0.5020
  392TIP3   OH222666   3.959   0.139   0.835  0.8914 -0.1866  0.8034
  392TIP3    H122667   3.975   0.148   0.929  1.7013  0.0141  0.6557
  392TIP3    H222668   3.924   0.224   0.808  1.4580  0.0396  0.7735
  393TIP3   OH222669   2.516   2.490   4.762 -0.0076 -0.5941 -0.0911
  393TIP3    H122670   2.458   2.495   4.686  0.0159  2.4707 -0.0091
  393TIP3    H222671   2.595   2.538   4.735 -0.0540  0.6575  1.8911
  394TIP3   OH222672   3.544   4.192  15.123  0.5077 -0.3576  0.0245
  394TIP3    H122673   3.485   4.267  15.114  0.3336 -0.3247  1.2317
  394TIP3    H222674   3.526   4.159  15.211  2.8229  0.1111  0.7176
  395TIP3   OH222675   1.123   1.788  13.401  0.8258 -0.0489 -0.2929
  395TIP3    H122676   1.099   1.792  13.308  0.8320  0.6035 -0.2731
  395TIP3    H222677   1.040   1.803  13.447  0.8965  0.0439 -0.1966
  396TIP3   OH222678   6.378   6.032   0.522 -0.0656  0.8042 -0.2197
  396TIP3    H122679   6.332   5.971   0.580  1.3356 -0.0941  0.0025
  396TIP3    H222680   6.375   6.116   0.568 -2.4326  1.0675 -0.7462
  397TIP3   OH222681   1.440   2.195  15.550  0.3962 -0.6812  0.2414
  397TIP3    H122682   1.459   2.225  15.461 -0.6103  0.9171  0.5201
  397TIP3    H222683   1.482   2.260  15.606 -1.9091  0.3669  0.8809
  398TIP3   OH222684   0.407   5.328  16.047 -0.0178 -0.3630  0.2510
  398TIP3    H122685   0.408   5.383  15.968 -0.0525 -0.1955  0.3685
  398TIP3    H222686   0.377   5.386  16.117  2.1956  0.1292  0.8745
  399TIP3   OH222687   1.396   0.187  10.959 -0.0460 -0.3445 -0.3121
  399TIP3    H122688   1.399   0.196  10.864 -0.6539 -1.7435 -0.4823
  399TIP3    H222689   1.336   0.114  10.975  0.3603 -0.3992  1.1346
  400TIP3   OH222690   3.977   1.895  16.171  0.7674  0.4866  0.3717
  400TIP3    H122691   3.972   1.806  16.207 -2.1486  0.7825  0.9278
  400TIP3    H222692   3.988   1.952  16.247 -0.2259  0.7554  0.3327
  401TIP3   OH222693   3.109   1.136  16.516 -0.5567 -0.2060  0.0794
  401TIP3    H122694   3.200   1.112  16.499 -0.2742 -0.9159  2.2647
  401TIP3    H222695   3.088   1.201  16.449  2.2838  1.7113  0.9037
  402TIP3   OH222696   2.144   4.075   4.747  0.1200 -0.3001  0.0461
  402TIP3    H122697   2.208   4.129   4.702 -0.1514 -0.6379 -0.7603
  402TIP3    H222698   2.185   4.055   4.831  0.9386 -0.2502 -0.3274
  403TIP3   OH222699   6.205   6.221  16.679  0.4417 -0.3007  0.3301
  403TIP3    H122700   6.216   6.131  16.711 -0.2234 -0.2500  0.7275
  403TIP3    H222701   6.154   6.264  16.748 -0.0720  0.1160 -0.3015
  404TIP3   OH222702   1.688   1.062   3.519  0.1857  0.3145  0.2420
  404TIP3    H122703   1.732   0.978   3.533 -0.2102  0.0584 -0.0188
  404TIP3    H222704   1.630   1.072   3.594 -1.0820 -0.5050 -0.5967
  405TIP3   OH222705   2.144   0.595   4.066 -0.1131  0.0320 -0.3186
  405TIP3    H122706   2.196   0.638   4.133 -0.4540 -1.0212  0.6690
  405TIP3    H222707   2.084   0.663   4.035  0.2193  0.6087  0.2676
  406TIP3   OH222708   2.523   1.101   4.284  0.0902 -0.1403 -0.5730
  406TIP3    H122709   2.572   1.050   4.220 -0.3393  0.6642 -1.5634
  406TIP3    H222710   2.485   1.035   4.343  1.6587 -0.8158 -0.2735
  407TIP3   OH222711   3.849   0.494   2.033  0.1483  0.0654  0.3145
  407TIP3    H122712   3.883   0.404   2.030  0.3814  0.1796 -0.5226
  407TIP3    H222713   3.868   0.530   1.947 -1.6792  0.2978 -0.0324
  408TIP3   OH222714   3.448   6.171  16.376  0.2631  0.0182  0.1692
  408TIP3    H122715   3.490   6.247  16.416 -1.0259  0.3904  0.8612
  408TIP3    H222716   3.378   6.208  16.321  1.1307 -0.5574 -1.3905
  409TIP3   OH222717   4.208   2.487  14.684  0.3680 -0.0656 -0.2766
  409TIP3    H122718   4.241   2.573  14.707  0.2376 -0.5992  2.2274
  409TIP3    H222719   4.286   2.436  14.661  1.0675 -0.4596  2.6112
  410TIP3   OH222720   6.705   0.329   0.581  0.0127 -0.1201 -0.2193
  410TIP3    H122721   6.637   0.317   0.514 -0.6603 -1.5940  0.6763
  410TIP3    H222722   6.661   0.375   0.652  0.9602  2.2580 -1.0937
  411TIP3   OH222723   5.852   4.146  15.363 -0.0257 -0.7548 -0.1132
  411TIP3    H122724   5.930   4.201  15.359  1.8723 -3.2778 -0.6753
  411TIP3    H222725   5.805   4.177  15.440  1.4320  0.9663  0.1653
  412TIP3   OH222726   5.943   4.090   0.109  0.1396  0.5871 -0.7357
  412TIP3    H122727   5.877   4.153   0.082 -1.2326 -0.4656  0.0487
  412TIP3    H222728   6.003   4.140   0.164 -1.6826  0.9568  1.0027
  413TIP3   OH222729   6.696   6.320   5.649 -0.2253  0.0703  0.1024
  413TIP3    H122730   6.639   6.275   5.712 -1.1792  0.3328 -0.5593
  413TIP3    H222731   6.672   6.283   5.564 -0.0143  0.7960 -0.2813
  414TIP3   OH222732   4.812   3.653   2.230  0.4647  0.1014 -0.8505
  414TIP3    H122733   4.771   3.740   2.222 -1.0123 -0.5306 -0.4419
  414TIP3    H222734   4.746   3.599   2.273  1.3932 -1.2226 -1.0280
  415TIP3   OH222735   1.962   6.024   2.320  0.5822 -0.8526 -0.4480
  415TIP3    H122736   1.927   5.976   2.395 -2.2207 -1.6789 -2.1354
  415TIP3    H222737   2.019   5.962   2.275  1.0613 -0.8515  0.1443
  416TIP3   OH222738   6.178   1.150   1.276 -0.0121  0.5784 -0.2942
  416TIP3    H122739   6.142   1.103   1.201 -0.0221  0.1152 -0.0015
  416TIP3    H222740   6.254   1.097   1.304  0.5061  1.1987 -0.5025
  417TIP3   OH222741   2.751   4.364  14.545  0.0976 -0.2797  0.1444
  417TIP3    H122742   2.788   4.411  14.470  1.7354 -1.5943  0.0756
  417TIP3    H222743   2.774   4.418  14.621  2.0525 -0.9504  0.0745
  418TIP3   OH222744   4.879   0.284   0.999 -0.2365  0.2053  0.0768
  418TIP3    H122745   4.927   0.205   1.022 -1.9899 -0.5358  1.4002
  418TIP3    H222746   4.917   0.352   1.055  0.0736 -0.0900  0.2288
  419TIP3   OH222747   1.209   2.841  11.828  0.2865  0.3075 -0.2980
  419TIP3    H122748   1.198   2.914  11.888 -0.3085  0.3892 -0.4985
  419TIP3    H222749   1.157   2.864  11.751 -0.7086 -0.7540  0.0305
  420TIP3   OH222750   5.230   6.140   1.820  0.0459 -0.3341  0.0735
  420TIP3    H122751   5.316   6.126   1.780 -0.4069 -2.2000 -0.3371
  420TIP3    H222752   5.170   6.148   1.747 -0.1598  1.1510  0.3579
  421TIP3   OH222753   5.228   2.554  12.417  0.1216 -0.5131  0.1575
  421TIP3    H122754   5.289   2.551  12.343  0.2585 -0.1431  0.2491
  421TIP3    H222755   5.266   2.620  12.476 -0.2133 -0.4954  0.3552
  422TIP3   OH222756   1.254   1.874  16.777  0.2007 -0.8445  0.1467
  422TIP3    H122757   1.160   1.861  16.783  0.3344 -1.4672  1.0822
  422TIP3    H222758   1.292   1.794  16.814  1.0841 -0.2822  0.4885
  423TIP3   OH222759   5.607   1.308   0.540 -0.3842 -0.2259 -0.0257
  423TIP3    H122760   5.536   1.255   0.505 -1.3399  1.1577 -0.2295
  423TIP3    H222761   5.672   1.310   0.469 -1.0422  0.1930 -0.6221
  424TIP3   OH222762   6.058   4.751  12.066 -0.7187 -0.0366  0.2697
  424TIP3    H122763   6.069   4.662  12.031  0.4450  0.5723 -1.0485
  424TIP3    H222764   5.989   4.789  12.012 -0.6917  0.1005  0.3324
  425TIP3   OH222765   3.545   0.953  14.876 -0.1711  0.4970  0.3395
  425TIP3    H122766   3.587   0.957  14.790 -1.3705 -0.0055 -0.2799
  425TIP3    H222767   3.451   0.956  14.858 -0.4534 -0.0731  1.6014
  426TIP3   OH222768   1.753   4.289  11.751 -0.2837 -0.1919 -0.0256
  426TIP3    H122769   1.746   4.285  11.656  0.1821 -2.7175 -0.0320
  426TIP3    H222770   1.778   4.200  11.777  0.2758  0.5916  2.4080
  427TIP3   OH222771   5.271   5.326   3.912  0.3483 -0.2529  0.1017
  427TIP3    H122772   5.207   5.255   3.912  1.3602 -1.2667  2.1733
  427TIP3    H222773   5.236   5.391   3.974 -1.4282  2.0451 -3.0225
  428TIP3   OH222774   3.830   6.718  14.751 -0.3716 -0.4469 -0.0130
  428TIP3    H122775   3.865   6.672  14.828 -0.3889 -0.6378 -0.1177
  428TIP3    H222776   3.744   6.680  14.737 -0.5774 -0.0558  0.1762
  429TIP3   OH222777   1.309   5.263  12.983  0.0429 -0.1159 -0.2230
  429TIP3    H122778   1.333   5.342  12.933 -1.1488  0.4296  0.0290
  429TIP3    H222779   1.323   5.191  12.922  2.6433  0.1021  0.0358
  430TIP3   OH222780   1.753   0.581  11.184  0.6069  0.5127  0.3657
  430TIP3    H122781   1.775   0.574  11.091 -0.3945  0.4246  0.1260
  430TIP3    H222782   1.748   0.490  11.214  0.3609  0.5227  0.3604
  431TIP3   OH222783   0.077   3.534  13.498 -0.4955  0.4060  0.0910
  431TIP3    H122784   0.028   3.601  13.546 -0.1969  0.8940 -0.2808
  431TIP3    H222785   0.010   3.472  13.468 -0.9327  1.2287 -0.6764
  432TIP3   OH222786   5.920   1.528  11.839  0.4171  0.4489  0.4326
  432TIP3    H122787   5.935   1.610  11.887  2.0496  0.0230  0.6883
  432TIP3    H222788   5.918   1.554  11.747 -0.4410  0.9446  0.5730
  433TIP3   OH222789   0.902   6.261   6.335 -0.1774 -0.0804 -0.2366
  433TIP3    H122790   0.944   6.331   6.285  1.0297 -1.2104 -0.8774
  433TIP3    H222791   0.929   6.181   6.290 -3.4246 -0.9028 -0.9770
  434TIP3   OH222792   6.290   1.940   3.279 -0.4423 -1.0113 -0.2631
  434TIP3    H122793   6.250   2.006   3.335 -0.4289 -0.3893 -0.9750
  434TIP3    H222794   6.279   1.858   3.327 -1.0882 -0.5996  0.3079
  435TIP3   OH222795   3.816   5.231   0.469  0.5332 -1.2317 -0.8762
  435TIP3    H122796   3.878   5.281   0.415  0.3834  0.6107  0.5608
  435TIP3    H222797   3.736   5.228   0.417  0.7844 -0.6175 -1.3107
  436TIP3   OH222798   2.703   0.803   5.998  0.3477 -0.7632  0.7852
  436TIP3    H122799   2.795   0.818   5.981  1.1598 -2.9769  2.6122
  436TIP3    H222800   2.689   0.836   6.087  0.3924 -3.6017  1.9659
  437TIP3   OH222801   6.274   3.058  14.535  0.2692  0.2309 -0.5002
  437TIP3    H122802   6.189   3.049  14.579  0.4293  2.3305  0.3565
  437TIP3    H222803   6.308   2.968  14.530 -0.7544 -0.3506  1.6724
  438TIP3   OH222804   0.284   2.275   0.014 -0.4282 -0.6841  0.0353
  438TIP3    H122805   0.351   2.342   0.030 -0.0143 -1.3252  1.1302
  438TIP3    H222806   0.224   2.315  -0.049  1.6527 -0.5197 -2.0270
  439TIP3   OH222807   0.723   0.919  10.566 -0.8751 -0.2059 -0.2056
  439TIP3    H122808   0.659   0.878  10.625 -0.8492 -0.8884 -0.6304
  439TIP3    H222809   0.798   0.859  10.566 -1.3549 -0.8832 -1.8558
  440TIP3   OH222810   6.524   5.314  13.190 -0.1110  0.2948  0.4116
  440TIP3    H122811   6.535   5.241  13.250  0.8592  0.8237  0.8832
  440TIP3    H222812   6.587   5.379  13.218  0.4251  0.5391 -1.2171
  441TIP3   OH222813   6.482   1.829  15.391  0.1393  0.1176 -0.1413
  441TIP3    H122814   6.444   1.766  15.452  2.4387 -0.1941  1.0749
  441TIP3    H222815   6.532   1.775  15.329 -1.5150  0.4861 -1.9066
  442TIP3   OH222816   6.387   3.355   4.678 -0.3515 -0.3265 -0.3959
  442TIP3    H122817   6.395   3.261   4.663 -0.4153 -0.5226  0.7491
  442TIP3    H222818   6.465   3.393   4.637  0.4279 -1.0280  0.4097
  443TIP3   OH222819   0.282   6.728   4.682 -0.1923 -0.0073  0.8986
  443TIP3    H122820   0.243   6.656   4.632  0.2739  0.0867  0.3896
  443TIP3    H222821   0.373   6.733   4.651  0.1355 -0.0018  1.8226
  444TIP3   OH222822   0.073   3.435   4.505 -0.6127  0.1514 -0.5373
  444TIP3    H122823   0.040   3.377   4.437 -1.0776 -0.4494  0.1780
  444TIP3    H222824   0.168   3.434   4.494 -0.5980 -0.8709 -0.4501
  445TIP3   OH222825   2.321   6.631  16.767  0.1982  0.0633  0.0657
  445TIP3    H122826   2.328   6.554  16.822  1.7315 -0.3324 -0.6323
  445TIP3    H222827   2.352   6.703  16.822 -1.4909  0.2600  0.8062
  446TIP3   OH222828   5.166   1.539  16.864 -0.5736  0.1859 -0.5235
  446TIP3    H122829   5.172   1.618  16.918 -1.2818 -0.6379  0.8095
  446TIP3    H222830   5.079   1.503  16.884 -2.0772  1.2489 -4.2336
  447TIP3   OH222831   1.565   1.585   4.032 -0.1097 -0.6974 -0.3659
  447TIP3    H122832   1.508   1.632   3.971  0.7740 -0.2750 -0.8917
  447TIP3    H222833   1.634   1.648   4.054  1.0542 -1.7075 -1.0160
  448TIP3   OH222834   5.825   1.404  15.605 -0.4697  0.6477 -0.6210
  448TIP3    H122835   5.735   1.435  15.596 -0.9425  0.0699  1.6639
  448TIP3    H222836   5.818   1.308  15.597  0.0860  0.6484 -1.2424
  449TIP3   OH222837   0.708   4.322   4.535 -0.1268  0.0665 -0.0898
  449TIP3    H122838   0.767   4.255   4.503 -0.8663 -0.8875  0.4641
  449TIP3    H222839   0.727   4.328   4.629  1.5815  2.3711 -0.4911
  450TIP3   OH222840   0.679   4.817   1.721 -0.0665  0.2569  0.5247
  450TIP3    H122841   0.624   4.895   1.734  0.4384  0.8813 -0.8266
  450TIP3    H222842   0.768   4.849   1.733  0.1706 -0.0042 -0.4432
  451TIP3   OH222843   6.748   3.952   5.204 -0.0958  0.0062 -0.1837
  451TIP3    H122844   6.826   3.947   5.260 -0.7031 -0.0262  0.6768
  451TIP3    H222845   6.772   3.904   5.125  0.7824  0.0636  0.0400
  452TIP3   OH222846   2.467   6.069  14.665  0.3199  0.3780  0.5068
  452TIP3    H122847   2.562   6.064  14.656  0.1916 -2.8586 -0.2277
  452TIP3    H222848   2.434   6.078  14.575 -0.1305  0.9049  0.7103
  453TIP3   OH222849   5.814   2.412   3.988  0.3122  0.1883 -0.3134
  453TIP3    H122850   5.845   2.432   3.899 -0.5488  0.4740 -0.5527
  453TIP3    H222851   5.743   2.474   4.003 -0.0671 -0.3837  0.2786
  454TIP3   OH222852   3.152   4.829  16.047  0.1125 -0.4418 -0.6044
  454TIP3    H122853   3.111   4.820  16.133 -1.5046  1.1769 -1.1357
  454TIP3    H222854   3.148   4.923  16.028  0.8391 -0.7033 -2.2550
  455TIP3   OH222855   3.189   5.320  11.363 -0.3002 -0.9880  0.1708
  455TIP3    H122856   3.276   5.298  11.396  0.3949  1.0321 -0.1775
  455TIP3    H222857   3.177   5.261  11.288  1.6553  0.0041 -1.0132
  456TIP3   OH222858   5.796   3.241   2.058 -0.1517  0.3190 -0.2582
  456TIP3    H122859   5.767   3.308   2.120 -0.5788  0.3746 -0.5137
  456TIP3    H222860   5.745   3.164   2.081 -0.2850  0.3298 -0.5161
  457TIP3   OH222861   6.290   6.103   1.576  0.0679  0.3426 -0.1005
  457TIP3    H122862   6.246   6.095   1.660  0.6800  1.1722  0.3098
  457TIP3    H222863   6.338   6.185   1.581 -1.7849  1.6972 -2.1380
  458TIP3   OH222864   6.214   0.945  12.114  0.4329  0.1943  0.1999
  458TIP3    H122865   6.146   0.888  12.152  1.7339 -0.5438  1.5015
  458TIP3    H222866   6.166   1.021  12.082 -1.1651 -0.8629 -0.0715
  459TIP3   OH222867   1.422   6.389   4.246  0.3407 -0.0599  0.3724
  459TIP3    H122868   1.355   6.412   4.310  1.1382  0.5602  1.0151
  459TIP3    H222869   1.488   6.458   4.254  0.4750  0.0094 -1.1124
  460TIP3   OH222870   3.895   3.626  12.821 -0.0211  0.1054 -0.3268
  460TIP3    H122871   3.897   3.562  12.893 -0.1751  0.7212  0.2328
  460TIP3    H222872   3.913   3.574  12.743 -0.3503 -0.6652  0.0938
  461TIP3   OH222873   6.231   3.601   2.840 -0.8830  0.4113 -0.5268
  461TIP3    H122874   6.253   3.692   2.858  0.1730 -0.1158  1.0538
  461TIP3    H222875   6.315   3.557   2.830 -1.3755 -0.4207 -1.1138
  462TIP3   OH222876   3.889   2.858  14.160 -0.6304 -0.0168  0.0795
  462TIP3    H122877   3.906   2.833  14.069 -0.4648 -1.2356  0.4272
  462TIP3    H222878   3.968   2.906  14.186  0.9938 -2.7134  0.6294
  463TIP3   OH222879   0.066   2.800  11.960  0.3514  0.1945  0.3296
  463TIP3    H122880  -0.014   2.789  11.909  1.3041  1.7616 -1.6134
  463TIP3    H222881   0.130   2.743  11.917  1.1805  1.5798 -0.3580
  464TIP3   OH222882   4.030   6.554   4.832  0.0603 -0.6255  0.4393
  464TIP3    H122883   4.000   6.645   4.831 -0.7978 -0.8966 -0.7222
  464TIP3    H222884   3.982   6.514   4.905 -2.4118 -0.9999 -1.2593
  465TIP3   OH222885   0.162   0.350   6.570 -0.0081 -0.0645  0.1776
  465TIP3    H122886   0.166   0.302   6.488  1.6696  0.7543 -0.2756
  465TIP3    H222887   0.241   0.403   6.570 -0.5566  0.8235  1.8012
  466TIP3   OH222888   0.958   1.518  16.583  0.4335 -1.1010 -0.2878
  466TIP3    H122889   1.008   1.494  16.661  0.0434 -0.5272  0.1552
  466TIP3    H222890   0.919   1.437  16.553 -0.5021 -1.1225  0.9110
  467TIP3   OH222891   6.538   0.975  13.308 -0.3525 -0.5093 -0.2070
  467TIP3    H122892   6.575   0.939  13.388 -1.8696 -0.6783  0.4509
  467TIP3    H222893   6.602   1.040  13.278  0.1072 -0.2415  1.2925
  468TIP3   OH222894   3.075   5.649  14.349 -0.4772  0.0421  0.3426
  468TIP3    H122895   3.158   5.659  14.396 -1.0728 -0.4137  1.5530
  468TIP3    H222896   3.068   5.728  14.296  0.7583  0.0526  0.1507
  469TIP3   OH222897   2.442   0.956   0.255 -0.0371 -0.5629 -0.1959
  469TIP3    H122898   2.401   0.942   0.341  1.7327  0.0603  0.8112
  469TIP3    H222899   2.511   0.889   0.251  0.9743  0.4539 -0.3728
  470TIP3   OH222900   1.122   4.280   2.575 -0.1606  0.0308  0.1852
  470TIP3    H122901   1.130   4.368   2.539  0.3507 -0.3172 -0.5895
  470TIP3    H222902   1.196   4.232   2.538 -1.7806 -1.3920 -1.4257
  471TIP3   OH222903   5.779   3.397   0.504  0.2552 -0.0823  0.6239
  471TIP3    H122904   5.705   3.457   0.493  0.2694 -0.0417  0.7512
  471TIP3    H222905   5.801   3.403   0.597 -1.2649 -2.0834  1.1784
  472TIP3   OH222906   1.085   4.346  16.048 -0.4352 -0.1140 -0.0798
  472TIP3    H122907   1.054   4.386  15.967 -0.8086 -0.8519 -0.3112
  472TIP3    H222908   1.011   4.295  16.080 -0.2013 -0.0499  0.5837
  473TIP3   OH222909   5.750   5.685   4.913 -0.3355 -0.3443  0.0546
  473TIP3    H122910   5.753   5.628   4.990  2.5241  0.9553  1.0451
  473TIP3    H222911   5.841   5.706   4.895 -1.1655  3.5156 -0.5324
  474TIP3   OH222912   6.189   4.432   1.455  0.5519 -0.2846  0.2210
  474TIP3    H122913   6.267   4.407   1.506  0.5469  1.0820  0.9402
  474TIP3    H222914   6.217   4.426   1.364  0.8830 -1.7466  0.3893
  475TIP3   OH222915   3.990   4.239  15.488 -0.0162  0.5582  0.2288
  475TIP3    H122916   3.942   4.300  15.543  0.3774  1.6350 -0.5954
  475TIP3    H222917   3.973   4.153  15.527  0.4761  1.3055  2.1767
  476TIP3   OH222918   3.135   5.731   6.022 -0.8243 -0.0199  0.3037
  476TIP3    H122919   3.124   5.666   6.091  0.3735  2.4485  3.0693
  476TIP3    H222920   3.223   5.766   6.036 -0.3480  0.3219 -2.8352
  477TIP3   OH222921   5.697   1.334   5.221  0.1577  0.6486  0.0821
  477TIP3    H122922   5.729   1.364   5.307 -0.3042 -0.3602  0.6250
  477TIP3    H222923   5.691   1.239   5.230 -1.2696  0.6574 -0.6115
  478TIP3   OH222924   6.278   5.156  10.833 -0.1655  0.8678 -0.2074
  478TIP3    H122925   6.228   5.229  10.871 -1.0748 -0.2949  0.9440
  478TIP3    H222926   6.216   5.083  10.831  0.7005  0.1211 -1.3876
  479TIP3   OH222927   6.334   3.938  14.897  0.2844  0.3341  0.0282
  479TIP3    H122928   6.351   3.870  14.831  0.4721 -0.2923  0.7056
  479TIP3    H222929   6.241   3.928  14.918  0.5011 -0.2984  0.7463
  480TIP3   OH222930   0.163   4.215  16.466  0.9907 -0.8065  0.0082
  480TIP3    H122931   0.172   4.224  16.371  2.4389  0.0599  0.1991
  480TIP3    H222932   0.093   4.151  16.478 -1.6826  1.6011 -1.6111
  481TIP3   OH222933   2.339   5.962   5.679 -0.1848  0.5475 -0.3603
  481TIP3    H122934   2.308   5.882   5.636  0.4637  0.1829 -0.1573
  481TIP3    H222935   2.259   6.012   5.695 -0.8364 -0.8535  1.1304
  482TIP3   OH222936   2.766   4.951   0.832 -0.5680  0.5634  0.1512
  482TIP3    H122937   2.672   4.951   0.814 -0.2721 -0.1127 -1.4925
  482TIP3    H222938   2.778   4.881   0.896 -1.0720  0.0400 -0.3150
  483TIP3   OH222939   5.677   4.579  15.998 -0.0983 -0.0383 -0.2437
  483TIP3    H122940   5.717   4.533  16.072  0.1294  0.8955  0.2400
  483TIP3    H222941   5.700   4.671  16.013  0.6370  0.0781 -1.9094
  484TIP3   OH222942   4.435   3.829  11.630  0.0004  0.3137 -0.0873
  484TIP3    H122943   4.435   3.879  11.549  0.3581  1.9136  0.8486
  484TIP3    H222944   4.517   3.780  11.628  1.5131  2.6281  0.5760
  485TIP3   OH222945   1.148   0.324   4.033  0.2044 -0.0945  0.2843
  485TIP3    H122946   1.089   0.374   3.977 -0.3481  1.8490  2.4465
  485TIP3    H222947   1.107   0.238   4.041 -0.4359  0.0598 -1.1114
  486TIP3   OH222948   5.815   3.589   2.931 -0.2484  0.4193  0.4336
  486TIP3    H122949   5.831   3.496   2.949 -0.3306  0.4240  0.5251
  486TIP3    H222950   5.839   3.634   3.012  2.5164  0.7664 -0.4682
  487TIP3   OH222951   1.293   1.136  13.405  0.1805 -0.5103 -0.0392
  487TIP3    H122952   1.358   1.081  13.448  0.4234  0.2331  0.5584
  487TIP3    H222953   1.235   1.165  13.476  1.6383  2.2129  0.1424
  488TIP3   OH222954   2.184   5.678   0.769 -0.3448  0.3466 -0.0522
  488TIP3    H122955   2.104   5.668   0.718  0.1386 -0.1055 -0.7362
  488TIP3    H222956   2.173   5.618   0.843 -0.8336  0.6423  0.1227
  489TIP3   OH222957   2.167   3.642  14.512 -0.3125 -0.0883  0.2659
  489TIP3    H122958   2.097   3.707  14.513 -1.8969 -1.6863 -0.1430
  489TIP3    H222959   2.185   3.627  14.420 -0.2310 -0.4967  0.3455
  490TIP3   OH222960   3.342   3.790   3.683 -0.3947  0.5416 -0.1712
  490TIP3    H122961   3.429   3.774   3.646 -0.1035 -2.1720  1.3927
  490TIP3    H222962   3.358   3.809   3.775 -1.3165  3.8945 -0.5757
  491TIP3   OH222963   3.790   0.858   3.138  0.4194  0.3675 -0.5903
  491TIP3    H122964   3.824   0.936   3.182 -0.2651  1.1720 -1.4597
  491TIP3    H222965   3.771   0.887   3.049  0.1494 -0.7961 -0.9213
  492TIP3   OH222966   3.507   4.140  15.395  0.0651  0.5363  0.0278
  492TIP3    H122967   3.504   4.229  15.431 -0.7300  0.7956 -0.6402
  492TIP3    H222968   3.450   4.089  15.452 -0.8157  0.8411 -0.5576
  493TIP3   OH222969   3.487   0.504  14.439  0.2938 -0.3790 -0.2865
  493TIP3    H122970   3.399   0.538  14.457  0.7703 -0.2747  2.1153
  493TIP3    H222971   3.546   0.565  14.484  1.5280 -1.1840 -0.7681
  494TIP3   OH222972   0.920   6.449  16.592 -0.3589 -0.4199  0.2995
  494TIP3    H122973   0.913   6.355  16.579  0.3243 -0.4140 -0.1594
  494TIP3    H222974   0.840   6.485  16.552 -0.3829 -0.7589  0.0423
  495TIP3   OH222975   1.958   1.662   1.291  0.1382 -0.9153 -0.5144
  495TIP3    H122976   1.880   1.608   1.286  1.4470 -2.9245 -0.5133
  495TIP3    H222977   1.985   1.656   1.383  0.3758 -0.3843 -0.5463
  496TIP3   OH222978   1.601   5.036  14.439 -0.3511 -0.0236  0.0697
  496TIP3    H122979   1.524   4.996  14.478 -1.1838  0.2126 -1.2691
  496TIP3    H222980   1.675   4.982  14.469 -1.2116 -1.2686  0.0164
  497TIP3   OH222981   1.816   0.733  14.386 -0.2585  0.4249 -0.5220
  497TIP3    H122982   1.820   0.761  14.477 -1.2617  0.2492 -0.4133
  497TIP3    H222983   1.843   0.810  14.335  1.4192  0.1853 -0.0458
  498TIP3   OH222984   0.861   0.160   5.038 -0.0490  0.6431 -0.3267
  498TIP3    H122985   0.804   0.091   5.004 -1.4936  1.5901  0.0923
  498TIP3    H222986   0.803   0.216   5.089  1.4746  1.0352  1.0566
  499TIP3   OH222987   1.697   4.734   1.208  0.0067  0.0958 -0.2652
  499TIP3    H122988   1.697   4.669   1.278 -0.5212 -1.8318 -1.9676
  499TIP3    H222989   1.627   4.795   1.232  0.1868 -0.2113  1.1226
  500TIP3   OH222990   1.981   1.218   2.015 -0.1214 -0.3483  0.4637
  500TIP3    H122991   1.917   1.221   2.086 -0.0193 -0.6542  0.5679
  500TIP3    H222992   1.935   1.175   1.943 -0.2120 -0.0735  0.3559
  501TIP3   OH222993   5.525   4.411   5.792  0.1448  0.0658 -0.0324
  501TIP3    H122994   5.522   4.499   5.829 -1.4301  0.2903 -0.5938
  501TIP3    H222995   5.520   4.425   5.697  0.7428 -0.6063 -0.1722
  502TIP3   OH222996   4.486   5.922   4.360  0.2815  0.1469 -0.6787
  502TIP3    H122997   4.562   5.865   4.349 -0.2203 -0.9260  1.0282
  502TIP3    H222998   4.411   5.862   4.360 -0.2770  0.8049  0.9968
  503TIP3   OH222999   5.623   0.000  12.321  0.0756 -0.0234 -0.3626
  503TIP3    H123000   5.580   0.056  12.257 -1.3784 -0.5863  0.0829
  503TIP3    H223001   5.570   0.008  12.400  0.9731 -0.5107  0.3108
  504TIP3   OH223002   2.509   4.564  12.808 -0.5264  0.0475 -0.3238
  504TIP3    H123003   2.414   4.569  12.807 -0.5356  0.0537  0.2556
  504TIP3    H223004   2.530   4.494  12.747 -0.9121 -0.0958 -0.2928
  505TIP3   OH223005   2.204   3.828  11.330 -0.2991 -0.4823  0.1292
  505TIP3    H123006   2.135   3.859  11.389  0.9552 -0.5809  1.7368
  505TIP3    H223007   2.199   3.732  11.336 -1.2298 -0.5443 -1.2632
  506TIP3   OH223008   5.867   1.870  11.786  0.5158 -0.6200  0.0235
  506TIP3    H123009   5.920   1.937  11.830 -0.5819  0.9138 -0.8667
  506TIP3    H223010   5.929   1.822  11.732  1.4621 -0.8587  1.2941
  507TIP3   OH223011   4.592   5.440   5.408 -0.1587 -0.0186  0.4029
  507TIP3    H123012   4.606   5.349   5.433 -2.2163 -0.3184  0.5577
  507TIP3    H223013   4.616   5.443   5.315 -1.9230 -1.1924 -0.1226
  508TIP3   OH223014   6.585   2.356   0.627  0.5666 -0.2841 -0.9454
  508TIP3    H123015   6.537   2.298   0.568 -1.6911 -0.3342  0.7858
  508TIP3    H223016   6.667   2.310   0.645 -0.8540 -2.6589 -0.1643
  509TIP3   OH223017   0.854   2.945   4.784 -0.0475 -0.2311 -0.0314
  509TIP3    H123018   0.943   2.975   4.800  0.0013  0.9090 -2.1341
  509TIP3    H223019   0.859   2.898   4.700 -1.0850 -1.8333  0.7541
  510TIP3   OH223020   5.518   5.579   0.434  0.3664  0.1186 -0.0884
  510TIP3    H123021   5.444   5.531   0.471  0.3854 -0.1064 -0.3339
  510TIP3    H223022   5.573   5.601   0.509 -0.6980  1.6284  0.3156
  511TIP3   OH223023   6.777   0.249   4.832  0.2542 -0.1669 -0.1832
  511TIP3    H123024   6.747   0.162   4.858  1.3434 -1.2098 -2.1793
  511TIP3    H223025   6.856   0.263   4.883 -0.0139 -0.2854  0.2651
  512TIP3   OH223026   6.115   3.345  17.202  0.1819 -0.0415  0.5325
  512TIP3    H123027   6.095   3.387  17.118  0.6552 -0.3233  0.2725
  512TIP3    H223028   6.075   3.258  17.195  2.4277 -1.0832 -0.4816
  513TIP3   OH223029   1.132   5.133  15.711 -0.8862  0.4628 -0.1366
  513TIP3    H123030   1.129   5.128  15.615  1.1027  0.1245 -0.2156
  513TIP3    H223031   1.129   5.042  15.740 -0.5471  0.5116  0.0635
  514TIP3   OH223032   4.030   4.282   2.004 -0.3576  0.1926  0.2676
  514TIP3    H123033   4.072   4.266   2.088  0.2648  1.4965  0.2317
  514TIP3    H223034   4.020   4.377   2.000  1.0704  0.3194 -1.7938
  515TIP3   OH223035   0.913   2.054   4.971  0.4689  0.1727  0.2010
  515TIP3    H123036   0.868   2.121   4.919 -2.2709 -2.4446 -1.1233
  515TIP3    H223037   0.854   2.037   5.044 -0.8004 -3.0427 -1.3465
  516TIP3   OH223038   5.735   2.507  16.837  0.1438 -0.1552 -0.1882
  516TIP3    H123039   5.702   2.518  16.926  1.9102 -0.6701  0.5955
  516TIP3    H223040   5.831   2.510  16.847  0.4015  1.8821 -2.3586
  517TIP3   OH223041   2.192   5.184  13.482  0.2299  0.6161 -0.1796
  517TIP3    H123042   2.130   5.230  13.425 -0.0764 -0.0482 -0.3923
  517TIP3    H223043   2.251   5.139  13.422  1.2206  1.6216  0.0157
  518TIP3   OH223044   3.973   0.462  12.129 -0.0145  0.4200  0.6878
  518TIP3    H123045   3.917   0.384  12.132  1.1386 -0.4144  1.3378
  518TIP3    H223046   3.927   0.526  12.183  0.5331 -0.8898  2.8346
  519TIP3   OH223047   3.976   5.187  15.729 -0.1490 -0.3539  0.0655
  519TIP3    H123048   3.904   5.129  15.704 -0.6583  0.4496 -0.3762
  519TIP3    H223049   3.946   5.229  15.810 -0.1911 -0.0181 -0.1202
  520TIP3   OH223050   6.623   4.065   2.925  0.8281  0.5498  0.0674
  520TIP3    H123051   6.641   4.068   2.831  1.6368  1.7684  0.2484
  520TIP3    H223052   6.629   3.972   2.947 -0.7067  0.0595 -1.3159
  521TIP3   OH223053   5.361   6.108   2.122 -0.1115 -0.3366  0.1645
  521TIP3    H123054   5.312   6.156   2.055  0.3970  0.7054  0.5052
  521TIP3    H223055   5.297   6.092   2.191 -0.0573  0.7767  0.4918
  522TIP3   OH223056   2.081   4.747   4.705  0.1444  0.1137  0.2653
  522TIP3    H123057   2.111   4.684   4.770  1.2989 -1.1945 -1.4421
  522TIP3    H223058   2.033   4.813   4.756 -1.2839 -2.1974  2.1196
  523TIP3   OH223059   3.623   0.715   2.809  0.0835  0.3088 -0.4185
  523TIP3    H123060   3.582   0.785   2.860 -1.9470  0.4939 -2.1442
  523TIP3    H223061   3.714   0.743   2.797  0.3001  0.8252  1.9781
  524TIP3   OH223062   1.860   0.260  13.761 -0.1716  0.4892  0.1663
  524TIP3    H123063   1.783   0.290  13.809 -0.6426 -3.1776  2.0974
  524TIP3    H223064   1.931   0.261  13.826  0.6442  0.7588 -0.6935
  525TIP3   OH223065   6.795   5.530  11.083 -0.0117 -0.1641  0.2426
  525TIP3    H123066   6.751   5.511  11.000 -0.3497  0.0820  0.3624
  525TIP3    H223067   6.883   5.493  11.073 -0.3839 -1.0565  0.1675
  526TIP3   OH223068   4.258   5.645  14.659  0.4164 -0.2734  0.3654
  526TIP3    H123069   4.274   5.630  14.752 -0.5112  0.0111  0.5747
  526TIP3    H223070   4.164   5.661  14.652  0.3406 -1.0386 -0.7249
  527TIP3   OH223071   3.235   0.869  15.451 -0.8072  0.1930 -0.2643
  527TIP3    H123072   3.317   0.853  15.404 -0.4796  2.6888 -0.6843
  527TIP3    H223073   3.254   0.847  15.542  0.5239  1.2009 -0.2728
  528TIP3   OH223074   1.959   4.095  11.377 -0.0563 -0.5177  0.4007
  528TIP3    H123075   1.993   4.069  11.292  0.6262 -1.6371  0.9892
  528TIP3    H223076   2.022   4.160  11.410  2.5624 -3.6646  2.1401
  529TIP3   OH223077   1.817   1.233  13.329 -0.1677  0.1299  0.9201
  529TIP3    H123078   1.781   1.167  13.389  0.0728 -1.1578 -0.2995
  529TIP3    H223079   1.861   1.182  13.261 -0.8789  1.5162 -0.6396
  530TIP3   OH223080   2.241   1.258  15.906 -0.2266  0.3832  0.1482
  530TIP3    H123081   2.279   1.252  15.994 -0.1478  1.4473  0.2033
  530TIP3    H223082   2.146   1.261  15.922 -0.3426 -1.5264  0.0520
  531TIP3   OH223083   0.474   6.266  10.648  0.3564 -0.3129 -0.0205
  531TIP3    H123084   0.400   6.301  10.598  1.1765 -0.7008 -1.5590
  531TIP3    H223085   0.434   6.211  10.714 -0.7994  0.7697  0.2320
  532TIP3   OH223086   4.032   4.872   3.299  0.4238  0.1486 -0.9396
  532TIP3    H123087   4.042   4.777   3.300  0.5622  0.1383  0.8753
  532TIP3    H223088   3.943   4.886   3.269  0.2316 -0.5998 -0.7525
  533TIP3   OH223089   6.526   3.514  15.210 -0.0211 -0.8673  0.1713
  533TIP3    H123090   6.547   3.435  15.261  0.4661 -1.2394 -0.5814
  533TIP3    H223091   6.468   3.482  15.140  0.3029 -0.5986 -0.2296
  534TIP3   OH223092   3.782   5.496  14.499  0.2449  0.3434  0.4265
  534TIP3    H123093   3.739   5.507  14.584  1.3988  0.1823  1.0626
  534TIP3    H223094   3.860   5.444  14.519  0.1278 -0.3663 -0.8693
  535TIP3   OH223095   3.634   2.360   0.610  0.2750  0.0312  0.6025
  535TIP3    H123096   3.585   2.330   0.687  1.0708  0.2254  1.1984
  535TIP3    H223097   3.682   2.437   0.641  0.2816  0.3591 -0.2040
  536TIP3   OH223098   4.089   2.854  13.217  0.5794  0.0330  0.2480
  536TIP3    H123099   4.044   2.809  13.288  1.6527  2.4100  2.6106
  536TIP3    H223100   4.160   2.794  13.192  0.2542 -0.8129  1.2967
  537TIP3   OH223101   3.947   1.317  12.282 -0.1376  0.0521  0.4720
  537TIP3    H123102   3.930   1.410  12.297 -0.1961  0.4205 -1.6384
  537TIP3    H223103   3.868   1.285  12.239  0.7903 -0.3785 -0.9973
  538TIP3   OH223104   0.594   1.334   0.783  0.2021 -0.2689 -0.1424
  538TIP3    H123105   0.531   1.402   0.759 -1.0890 -1.5837 -0.5974
  538TIP3    H223106   0.674   1.382   0.802 -1.0735  1.5125  1.0285
  539TIP3   OH223107   2.145   6.510  12.667  0.3325  0.2277  0.0412
  539TIP3    H123108   2.159   6.602  12.645 -1.7419 -0.0249 -3.0181
  539TIP3    H223109   2.068   6.485  12.616  1.1075 -3.3423  0.3696
  540TIP3   OH223110   5.133   3.858   1.757  0.1521 -0.4116 -0.2361
  540TIP3    H123111   5.150   3.950   1.740 -0.1901 -0.2514  0.2517
  540TIP3    H223112   5.049   3.840   1.715  0.6755 -0.7523 -1.1535
  541TIP3   OH223113   3.632   5.416  15.853 -0.0717  0.0409 -0.3243
  541TIP3    H123114   3.584   5.491  15.887 -0.9826 -0.1735 -1.1062
  541TIP3    H223115   3.683   5.451  15.779  0.1958  0.0656 -0.1290
  542TIP3   OH223116   3.900   3.384  13.999 -0.0075  0.3983 -0.2073
  542TIP3    H123117   3.830   3.426  14.049 -0.5826  0.2978 -0.9075
  542TIP3    H223118   3.865   3.298  13.976  0.9036 -0.2247  0.6448
  543TIP3   OH223119   5.651   4.304  13.044 -0.1026  0.0818 -0.2100
  543TIP3    H123120   5.603   4.361  13.103  0.0172 -2.0452  2.1340
  543TIP3    H223121   5.743   4.322  13.062  0.0215  1.6455 -2.1273
  544TIP3   OH223122   6.018   1.734  16.234  0.2004  0.0648  0.1754
  544TIP3    H123123   6.074   1.805  16.202 -0.7293  0.4750 -0.5823
  544TIP3    H223124   5.943   1.734  16.175 -0.0406 -1.2593  0.4449
  545TIP3   OH223125   3.728   3.197   0.286 -0.4752 -0.2675 -0.0157
  545TIP3    H123126   3.660   3.198   0.352  0.2724 -0.4371  0.7734
  545TIP3    H223127   3.786   3.125   0.311 -0.7564 -1.0247 -1.4611
  546TIP3   OH223128   0.217   3.386  16.707  0.0060 -0.2864  0.4414
  546TIP3    H123129   0.239   3.381  16.614 -0.7834 -1.4719  0.2875
  546TIP3    H223130   0.273   3.321  16.748 -1.3712 -1.5503  0.4037
  547TIP3   OH223131   3.708   0.066  14.601  0.0540  0.6275 -0.1824
  547TIP3    H123132   3.750   0.012  14.668 -2.9977 -1.1446  0.4951
  547TIP3    H223133   3.723   0.019  14.519  0.5308  0.7522 -0.1702
  548TIP3   OH223134   1.483   3.552  13.372 -0.6777  0.3187 -0.0070
  548TIP3    H123135   1.489   3.462  13.405 -0.6209  0.7734  1.2829
  548TIP3    H223136   1.455   3.542  13.281 -0.0306 -1.0284 -0.0819
  549TIP3   OH223137   6.599   2.181  12.692  0.3194 -0.2862  0.1588
  549TIP3    H123138   6.550   2.258  12.664  0.0684 -1.1984 -2.0390
  549TIP3    H223139   6.537   2.109  12.686  1.2235 -1.0561 -0.2475
  550TIP3   OH223140   4.848   3.599  10.603  0.2257  0.3168  0.3612
  550TIP3    H123141   4.785   3.669  10.620 -1.2755 -0.6812 -0.8053
  550TIP3    H223142   4.849   3.548  10.685 -0.1971  0.5696  0.5288
  551TIP3   OH223143   5.475   5.072   1.788  0.7153 -0.3163  0.5825
  551TIP3    H123144   5.463   5.069   1.882  0.2891 -0.3580  0.5303
  551TIP3    H223145   5.389   5.098   1.754  0.8178 -0.4749  0.1982
  552TIP3   OH223146   0.658   1.973   3.171  0.0912 -0.2941  0.3567
  552TIP3    H123147   0.726   2.039   3.174 -0.3055  0.1457 -0.1856
  552TIP3    H223148   0.576   2.022   3.170 -0.2148 -0.7964  0.1316
  553TIP3   OH223149   1.083   2.259  13.821  0.0673 -0.3382 -0.0236
  553TIP3    H123150   1.049   2.290  13.905 -1.0843 -0.2389 -0.5051
  553TIP3    H223151   1.068   2.165  13.823 -1.9519 -0.0734 -0.9608
  554TIP3   OH223152   0.304   1.369   4.795 -0.0389  0.1727 -0.0197
  554TIP3    H123153   0.302   1.394   4.702 -0.7937  0.0467 -0.0479
  554TIP3    H223154   0.261   1.442   4.840 -1.9400 -0.8480 -0.0615
  555TIP3   OH223155   2.194   4.816  16.303 -0.1164 -0.0509 -0.0558
  555TIP3    H123156   2.143   4.877  16.356 -2.0274 -2.6853  1.3356
  555TIP3    H223157   2.165   4.832  16.213  0.4668  1.9611  0.0674
  556TIP3   OH223158   3.044   1.487   4.967  0.1082  0.0207 -0.0095
  556TIP3    H123159   3.136   1.479   4.941 -0.2512  0.3870 -1.4957
  556TIP3    H223160   3.046   1.539   5.047  1.2328 -0.4730  0.3009
  557TIP3   OH223161   1.854   4.567   2.509  0.3017 -0.2604 -0.4366
  557TIP3    H123162   1.784   4.627   2.485 -1.0077 -2.3486 -2.2181
  557TIP3    H223163   1.878   4.523   2.427  2.4566 -0.8982  0.4473
  558TIP3   OH223164   0.098   4.884  13.113 -0.0390  0.0156  0.9385
  558TIP3    H123165   0.129   4.862  13.025 -0.0049  1.7715  0.4657
  558TIP3    H223166   0.023   4.942  13.099 -1.8476 -1.9129  2.0950
  559TIP3   OH223167   1.589   3.684   0.634 -0.5424 -0.1879 -0.5446
  559TIP3    H123168   1.584   3.776   0.611  2.1401  0.1021 -0.2812
  559TIP3    H223169   1.679   3.659   0.615 -0.8709 -2.4571  0.4892
  560TIP3   OH223170   2.993   1.876  13.807 -0.4190 -0.2105 -0.7084
  560TIP3    H123171   3.022   1.856  13.718 -0.7694 -0.9397 -0.6610
  560TIP3    H223172   2.987   1.972  13.809  0.7387 -0.1126 -1.1064
  561TIP3   OH223173   4.444   5.108  16.149  0.2767  0.1074 -0.2458
  561TIP3    H123174   4.465   5.033  16.205  0.9781  1.4693  1.4110
  561TIP3    H223175   4.503   5.098  16.074 -1.2742 -2.2132 -1.2563
  562TIP3   OH223176   0.227   1.428   0.945  0.3869  0.3017 -0.3696
  562TIP3    H123177   0.145   1.424   0.896 -0.9167 -0.1380  1.7278
  562TIP3    H223178   0.273   1.348   0.921 -0.3371 -0.0233 -0.7001
  563TIP3   OH223179   1.083   3.491  15.778 -0.0858 -0.7886  0.3427
  563TIP3    H123180   1.136   3.413  15.797  1.8706  0.7740  1.8431
  563TIP3    H223181   1.099   3.509  15.686  2.3757 -0.2515  0.7780
  564TIP3   OH223182   6.234   0.985  15.183  0.1975 -0.3434 -0.1010
  564TIP3    H123183   6.179   0.985  15.104  1.5371  0.4516 -1.0818
  564TIP3    H223184   6.194   1.050  15.240 -1.1216 -1.3299  0.1600
  565TIP3   OH223185   3.190   2.400  16.443 -0.2084  0.9962 -0.5490
  565TIP3    H123186   3.221   2.319  16.401 -2.4502  0.5230 -1.4494
  565TIP3    H223187   3.209   2.387  16.536  2.9979  1.1786 -1.0699
  566TIP3   OH223188   6.511   4.466   1.922 -0.9426  0.6994  0.0469
  566TIP3    H123189   6.558   4.549   1.927 -1.5014  1.0034  0.4400
  566TIP3    H223190   6.420   4.489   1.942 -1.1610  0.0439 -0.1708
  567TIP3   OH223191   1.319   6.341   4.983 -0.0985 -0.0439  0.3950
  567TIP3    H123192   1.276   6.265   4.944  0.5348 -0.2776  0.1266
  567TIP3    H223193   1.338   6.314   5.073 -0.1134 -0.1063  0.3799
  568TIP3   OH223194   0.758   4.356  12.101  0.2315 -0.1531  0.3802
  568TIP3    H123195   0.809   4.410  12.041  1.5499 -1.7373 -0.0136
  568TIP3    H223196   0.705   4.301  12.043  0.7277 -0.9555  0.6730
  569TIP3   OH223197   1.118   0.004   1.603 -0.1817 -0.3984  0.3161
  569TIP3    H123198   1.103   0.049   1.686 -0.0670 -1.1420  0.7456
  569TIP3    H223199   1.092  -0.087   1.619 -0.5421 -0.4683 -0.5799
  570TIP3   OH223200   6.286   1.752   1.625  0.1826 -0.1630  0.0939
  570TIP3    H123201   6.373   1.753   1.586  0.4326 -0.4505  0.6391
  570TIP3    H223202   6.281   1.668   1.671 -1.6086 -1.7711 -2.7090
  571TIP3   OH223203   3.442   6.530   3.956 -0.1628  0.3047 -0.1973
  571TIP3    H123204   3.530   6.523   3.919  0.2641  0.7346  0.6960
  571TIP3    H223205   3.442   6.615   4.001 -1.6186  1.1332 -1.6653
  572TIP3   OH223206   4.232   4.710   0.196 -0.4527  0.2049 -0.8995
  572TIP3    H123207   4.307   4.651   0.185 -0.4167 -0.3859  1.7752
  572TIP3    H223208   4.178   4.695   0.119  0.9124 -1.3173 -1.6084
  573TIP3   OH223209   5.612   1.971  17.244  0.8778  0.4879 -0.8153
  573TIP3    H123210   5.680   2.038  17.233  0.4206  1.1528  0.2261
  573TIP3    H223211   5.556   2.005  17.313  0.6536 -1.0060 -0.2230
  574TIP3   OH223212   6.785   0.640   4.804 -0.1241  0.5389 -0.4214
  574TIP3    H123213   6.822   0.728   4.797  1.1973 -0.0623 -1.4434
  574TIP3    H223214   6.821   0.592   4.729 -2.4831 -0.3038 -1.1404
  575TIP3   OH223215   0.309   2.524   1.488  0.4502 -0.3553  0.1502
  575TIP3    H123216   0.381   2.542   1.548 -0.7190 -0.2427  1.5683
  575TIP3    H223217   0.234   2.570   1.526 -0.7238 -1.6986 -0.4617
  576TIP3   OH223218   2.561   5.578  14.622 -0.1448  0.1626  0.1963
  576TIP3    H123219   2.646   5.534  14.618  0.2035  0.9185 -1.2111
  576TIP3    H223220   2.498   5.506  14.627  0.5352 -0.4255  0.6294
  577TIP3   OH223221   3.267   1.521  15.835 -0.1115  0.2296 -0.2008
  577TIP3    H123222   3.287   1.612  15.855  0.9390 -0.2412  1.0822
  577TIP3    H223223   3.229   1.486  15.916  0.8228 -0.8129 -0.1854
  578TIP3   OH223224   4.801   5.480  16.361  0.1184  0.3394 -0.3039
  578TIP3    H123225   4.871   5.544  16.350 -0.0158  0.5073 -0.1906
  578TIP3    H223226   4.730   5.529  16.403 -0.1164  0.2038 -0.5372
  579TIP3   OH223227   0.235   1.743  15.564 -0.0429 -0.2246 -0.3237
  579TIP3    H123228   0.251   1.759  15.656 -1.1122 -1.2593  0.0697
  579TIP3    H223229   0.197   1.656  15.561 -0.0364 -0.2082 -1.7480
  580TIP3   OH223230   6.614   2.323   2.066 -0.6849  0.1657 -0.1611
  580TIP3    H123231   6.588   2.234   2.091 -1.2241 -0.3357 -2.3378
  580TIP3    H223232   6.659   2.357   2.143 -0.6614 -1.9068  0.8045
  581TIP3   OH223233   3.303   4.541  14.597 -0.0643 -0.4506  0.1856
  581TIP3    H123234   3.308   4.492  14.679  3.4439  3.4545  2.6824
  581TIP3    H223235   3.393   4.543  14.565 -0.6884  1.3537 -1.6581
  582TIP3   OH223236   5.191   3.174  14.307  0.2059  0.4286  0.4280
  582TIP3    H123237   5.111   3.224  14.291  1.2197  1.8178 -0.5543
  582TIP3    H223238   5.200   3.119  14.229  0.3114  0.4226  0.4440
  583TIP3   OH223239   0.882   2.077  13.773  0.0041 -0.1402  0.3669
  583TIP3    H123240   0.912   2.046  13.687 -3.0542 -1.2382 -0.4684
  583TIP3    H223241   0.848   2.165  13.755 -1.8088 -0.8499  0.0596
  584TIP3   OH223242   4.236   1.668   0.734 -0.3103  0.5153  0.1713
  584TIP3    H123243   4.224   1.731   0.663 -0.6123  1.0602  0.6976
  584TIP3    H223244   4.235   1.583   0.690  1.6711  0.9049 -0.7623
  585TIP3   OH223245   0.883   0.318  16.572  0.3558 -0.3386  0.5625
  585TIP3    H123246   0.893   0.253  16.503  1.5920  0.6473 -0.2336
  585TIP3    H223247   0.836   0.390  16.531 -0.8894 -0.6309  1.4015
  586TIP3   OH223248   3.452   5.119   3.131  0.1367 -0.0544  0.1046
  586TIP3    H123249   3.484   5.049   3.188 -0.8148 -1.4472 -1.0032
  586TIP3    H223250   3.359   5.127   3.153 -0.4052 -1.0767 -1.6549
  587TIP3   OH223251   4.275   0.522  15.812 -0.2618  0.3938 -0.3939
  587TIP3    H123252   4.281   0.608  15.772 -0.4729 -0.1328 -1.5992
  587TIP3    H223253   4.199   0.481  15.771 -0.0254 -0.4625 -0.0137
  588TIP3   OH223254   3.005   2.936   5.975  0.3396  0.1326 -0.0983
  588TIP3    H123255   2.944   2.914   6.046  0.0517  0.6567 -0.1785
  588TIP3    H223256   3.018   3.031   5.983  1.2862  0.0008  0.0268
  589TIP3   OH223257   4.352   5.708   3.698  0.8033  0.8742 -0.0079
  589TIP3    H123258   4.316   5.786   3.742  2.5200  2.0074 -0.5185
  589TIP3    H223259   4.290   5.638   3.720 -2.2742  2.8439 -1.5880
  590TIP3   OH223260   5.022   2.285   2.382  0.3861  0.3431  0.1269
  590TIP3    H123261   5.058   2.235   2.309  0.2600  0.4629 -0.0181
  590TIP3    H223262   4.930   2.298   2.359  0.7284  1.8075 -0.4812
  591TIP3   OH223263   4.617   5.804   0.361  0.1191  0.4903 -0.8500
  591TIP3    H123264   4.629   5.752   0.441  1.3396 -0.7861 -1.8094
  591TIP3    H223265   4.537   5.854   0.377 -0.6381 -1.0438  0.4815
  592TIP3   OH223266   2.002   3.676  16.823  0.1383 -0.2591  0.2527
  592TIP3    H123267   2.065   3.741  16.855  0.7793  0.8966 -2.9329
  592TIP3    H223268   1.924   3.727  16.800  0.8200 -0.3832 -2.7355
  593TIP3   OH223269   0.490   0.715   3.404 -0.1665 -0.0505  0.5217
  593TIP3    H123270   0.432   0.788   3.383 -1.4469 -0.9518  0.8009
  593TIP3    H223271   0.573   0.735   3.360 -0.3724  1.7361  0.9001
  594TIP3   OH223272   5.846   3.279   1.659  0.2126 -0.0151  0.3653
  594TIP3    H123273   5.896   3.267   1.740  1.8218 -0.0279 -0.5828
  594TIP3    H223274   5.805   3.365   1.669 -2.0893 -1.2290  2.4081
  595TIP3   OH223275   3.674   4.465   1.839  0.2568 -0.2383  0.3999
  595TIP3    H123276   3.683   4.369   1.840  1.1274 -0.1900 -0.8125
  595TIP3    H223277   3.639   4.485   1.752  0.6969  0.5858  0.4004
  596TIP3   OH223278   3.945   1.648   5.659  0.0983 -0.0038 -0.0284
  596TIP3    H123279   3.950   1.580   5.592  1.4760  0.6643 -0.6285
  596TIP3    H223280   3.859   1.689   5.645 -0.0789 -0.5724 -0.6721
  597TIP3   OH223281   5.377   1.453  14.291 -0.5740 -0.4217  0.5951
  597TIP3    H123282   5.407   1.541  14.315 -1.8094 -0.5047  2.7282
  597TIP3    H223283   5.286   1.465  14.265 -1.0045 -1.1358  1.6966
  598TIP3   OH223284   5.695   0.709   6.709 -1.0563  0.2018 -0.1513
  598TIP3    H123285   5.673   0.801   6.720 -0.3502  0.3067  0.4715
  598TIP3    H223286   5.791   0.707   6.707 -1.0619 -0.3187 -1.9951
  599TIP3   OH223287   0.280   3.046  16.019  0.2069 -0.5025  0.4240
  599TIP3    H123288   0.363   3.060  16.064 -0.1429  0.3433  0.8433
  599TIP3    H223289   0.296   3.076  15.930 -0.0004  0.9033  0.8386
  600TIP3   OH223290   6.705   0.631  10.791 -0.0619  0.1850  0.2883
  600TIP3    H123291   6.761   0.680  10.730  1.3362  0.7186  1.9162
  600TIP3    H223292   6.688   0.693  10.862 -2.0379 -0.2738  0.2698
  601TIP3   OH223293   3.277   3.423   3.293  0.5621  0.0186 -0.3406
  601TIP3    H123294   3.200   3.442   3.238  1.3392 -0.5111 -1.6593
  601TIP3    H223295   3.243   3.366   3.362 -0.2461 -0.1950 -0.8937
  602TIP3   OH223296   3.641   4.129  16.700 -0.7601  0.2221 -0.0273
  602TIP3    H123297   3.695   4.091  16.631 -0.9645 -1.1555  0.5237
  602TIP3    H223298   3.700   4.186  16.749 -0.2237 -0.0007 -0.4124
  603TIP3   OH223299   2.485   2.628  16.412 -0.2893  0.4026 -0.2872
  603TIP3    H123300   2.429   2.643  16.336  1.2055  0.8267 -1.3503
  603TIP3    H223301   2.574   2.643  16.380  0.3719  0.9024  1.6338
  604TIP3   OH223302   4.553   4.085   4.984  0.4987 -0.5040 -0.0891
  604TIP3    H123303   4.554   3.989   4.977  0.0977 -0.4096 -2.9070
  604TIP3    H223304   4.465   4.111   4.957  0.2889  0.6729  1.5646
  605TIP3   OH223305   5.579   2.146  11.994  0.3749  0.0178  0.2823
  605TIP3    H123306   5.579   2.187  12.081 -1.8351 -0.7012  0.6746
  605TIP3    H223307   5.563   2.054  12.011 -1.9254  0.1243 -0.9323
  606TIP3   OH223308   5.700   5.921   1.347  0.4859 -0.6115  0.0403
  606TIP3    H123309   5.650   5.888   1.272  1.9895 -1.9292 -0.4146
  606TIP3    H223310   5.760   5.985   1.309 -1.0772  1.3297  0.6536
  607TIP3   OH223311   1.146   3.749  11.090  0.5504 -0.3873  0.0223
  607TIP3    H123312   1.234   3.730  11.057  0.4218 -0.7208 -0.1326
  607TIP3    H223313   1.150   3.840  11.118  0.1432  0.5847 -2.7040
  608TIP3   OH223314   0.992   2.581   1.047  0.0369 -0.1789  0.1616
  608TIP3    H123315   0.996   2.490   1.077 -0.1738  0.3684  2.0050
  608TIP3    H223316   1.074   2.594   0.999  1.0355 -0.8033  1.6108
  609TIP3   OH223317   5.913   5.355  13.079 -0.1431  0.1438  0.0527
  609TIP3    H123318   5.934   5.301  13.155  0.5323  0.4863  0.1233
  609TIP3    H223319   5.823   5.384  13.094  0.2571  0.8752  1.1402
  610TIP3   OH223320   3.970   5.851   1.050 -0.3113  0.7707 -0.1024
  610TIP3    H123321   3.910   5.918   1.082 -2.3159 -0.7281 -0.4713
  610TIP3    H223322   3.991   5.799   1.128  0.3698  1.1898 -0.0060
  611TIP3   OH223323   0.701   1.408  11.929 -0.3037 -0.5143  0.2209
  611TIP3    H123324   0.616   1.441  11.958  0.4569  1.9657 -0.1351
  611TIP3    H223325   0.693   1.401  11.834 -0.1896 -0.4951  0.2089
  612TIP3   OH223326   2.379   1.957  16.915  0.2220  0.3497  0.1110
  612TIP3    H123327   2.407   1.931  16.827 -1.0202 -0.1774 -0.1446
  612TIP3    H223328   2.461   1.971  16.963  0.9493 -1.2362 -0.5792
  613TIP3   OH223329   5.742   1.822   1.034  0.6342 -0.1152  0.1627
  613TIP3    H123330   5.743   1.821   1.129 -1.5964  0.5518  0.2381
  613TIP3    H223331   5.774   1.735   1.009 -1.8617 -1.5557  1.6321
  614TIP3   OH223332   6.177   2.481   2.347 -0.9111 -0.0402 -0.3517
  614TIP3    H123333   6.143   2.505   2.433 -1.4095 -1.5913 -0.0814
  614TIP3    H223334   6.103   2.441   2.303 -0.4676  0.1094 -1.2501
  615TIP3   OH223335   4.856   4.348   6.005 -0.2155 -0.3228  0.1118
  615TIP3    H123336   4.946   4.377   5.990 -0.4014  0.6793  0.8065
  615TIP3    H223337   4.841   4.279   5.941  1.4270 -1.3229  0.7660
  616TIP3   OH223338   4.658   3.130  15.683 -0.4829 -0.3655  0.4712
  616TIP3    H123339   4.724   3.067  15.711 -0.6202 -1.1795 -0.9125
  616TIP3    H223340   4.576   3.080  15.683 -0.8297  0.1954  0.6612
  617TIP3   OH223341   3.110   6.790   1.876  0.1400  0.7549  0.6146
  617TIP3    H123342   3.138   6.765   1.964 -1.4242 -1.6542  0.5135
  617TIP3    H223343   3.183   6.840   1.840  2.3694 -1.3419  1.9748
  618TIP3   OH223344   2.571   2.638  15.745  0.2776 -0.3207 -0.0125
  618TIP3    H123345   2.640   2.572  15.737 -1.2454 -2.3093  2.0741
  618TIP3    H223346   2.510   2.617  15.676 -1.1233 -2.4164  1.7369
  619TIP3   OH223347   4.396   3.489   6.114 -0.2843  0.3690 -0.3913
  619TIP3    H123348   4.436   3.484   6.027 -1.6486  1.1663 -1.1078
  619TIP3    H223349   4.317   3.542   6.100 -0.2228  0.9970  1.4559
  620TIP3   OH223350   0.931   1.855  14.745 -0.3009 -0.5651  0.4129
  620TIP3    H123351   0.931   1.862  14.841  0.2033 -1.1548  0.4622
  620TIP3    H223352   0.978   1.932  14.715  0.7187 -1.0531  0.7095
  621TIP3   OH223353   0.350   1.863  11.466  1.1777 -0.1917 -0.1190
  621TIP3    H123354   0.293   1.939  11.478  0.6015 -0.6221 -0.0955
  621TIP3    H223355   0.415   1.870  11.537  2.5074  1.4838 -1.4130
  622TIP3   OH223356   4.758   2.375  13.189 -0.3370  0.2244  0.3806
  622TIP3    H123357   4.685   2.392  13.130  0.8557  2.8413 -0.5370
  622TIP3    H223358   4.718   2.358  13.274 -2.0556 -2.3435 -0.8381
  623TIP3   OH223359   2.626   1.811   4.913 -0.3825 -1.0745 -0.1517
  623TIP3    H123360   2.631   1.742   4.847 -1.7235 -1.5839  0.2508
  623TIP3    H223361   2.548   1.791   4.964  0.6988 -0.7872  1.7287
  624TIP3   OH223362   5.380   1.508  12.086 -0.3800 -0.1577 -0.5774
  624TIP3    H123363   5.453   1.549  12.038  0.2800 -0.3390  0.2469
  624TIP3    H223364   5.390   1.414  12.068  0.1360 -0.2743  0.2341
  625TIP3   OH223365   1.390   4.284  11.611 -0.3952  0.3081  1.0814
  625TIP3    H123366   1.438   4.206  11.582  0.1521  0.6983  0.9219
  625TIP3    H223367   1.309   4.250  11.647  0.3357 -0.4380  2.0874
  626TIP3   OH223368   6.801   6.469   4.773 -0.5441  0.1430 -0.8688
  626TIP3    H123369   6.781   6.497   4.862  0.2507  2.2492 -1.2850
  626TIP3    H223370   6.718   6.439   4.738 -0.8333 -0.9177  0.6188
  627TIP3   OH223371   0.546   5.676   0.392  0.1149 -0.0380 -0.1007
  627TIP3    H123372   0.521   5.585   0.409  0.7844 -0.1679  0.1986
  627TIP3    H223373   0.641   5.676   0.395  0.1419  0.5402 -0.8290
  628TIP3   OH223374   1.705   6.663   3.182 -0.2488 -0.6640  0.2548
  628TIP3    H123375   1.626   6.638   3.230 -0.8728  2.8820  1.3716
  628TIP3    H223376   1.776   6.616   3.227 -1.3244 -1.1144  1.5767
  629TIP3   OH223377   0.030   5.183   6.331  0.2297  1.0026 -0.6283
  629TIP3    H123378  -0.029   5.116   6.365 -0.1382  1.4956 -0.2971
  629TIP3    H223379   0.033   5.250   6.400  2.3340  0.3034  0.0378
  630TIP3   OH223380   4.576   4.749   4.424  0.1164  0.1024  0.1303
  630TIP3    H123381   4.600   4.674   4.480 -0.2499 -1.1738 -1.3465
  630TIP3    H223382   4.629   4.738   4.346 -0.3297  1.1011 -0.3239
  631TIP3   OH223383   0.443   5.194   3.133 -0.1823 -0.2205  0.4238
  631TIP3    H123384   0.513   5.257   3.153  0.0744 -0.3163 -0.1499
  631TIP3    H223385   0.393   5.236   3.063  0.9744 -1.3340 -1.1465
  632TIP3   OH223386   2.049   6.417  15.158 -0.1657  0.6247  0.0951
  632TIP3    H123387   2.054   6.351  15.227  1.0196  1.5367  0.9358
  632TIP3    H223388   2.017   6.496  15.202  0.2788  1.1269 -0.4618
  633TIP3   OH223389   3.944   6.578   2.109 -0.7931  0.4234 -0.0141
  633TIP3    H123390   4.022   6.592   2.056 -0.0223  1.5592  1.3488
  633TIP3    H223391   3.872   6.613   2.056 -0.1614  0.8220 -0.6247
  634TIP3   OH223392   3.564   5.998  16.779 -0.2666 -0.3506 -0.2615
  634TIP3    H123393   3.577   6.030  16.868 -0.5795  0.6866 -0.5732
  634TIP3    H223394   3.532   6.074  16.730  0.0131 -0.8682 -1.2902
  635TIP3   OH223395   4.794   0.122   4.106  0.0119 -0.3741 -0.2555
  635TIP3    H123396   4.701   0.112   4.089  0.2062 -0.2560 -1.4300
  635TIP3    H223397   4.828   0.032   4.104  0.4681 -0.2161 -3.2176
  636TIP3   OH223398   4.392   5.301   4.673  0.4720 -0.0072  0.2884
  636TIP3    H123399   4.352   5.231   4.725 -0.6972 -0.9637 -1.7358
  636TIP3    H223400   4.479   5.267   4.651 -0.1830 -1.0443 -0.9059
  637TIP3   OH223401   2.445   4.591   1.957  0.4712  0.1526  0.0853
  637TIP3    H123402   2.351   4.569   1.954  0.6463 -0.7531 -3.0342
  637TIP3    H223403   2.486   4.517   2.001 -0.3424  1.2770  2.9300
  638TIP3   OH223404   4.160   5.385   0.104  0.2418  0.2748 -0.5182
  638TIP3    H123405   4.163   5.479   0.123 -0.1895  0.1787  0.0737
  638TIP3    H223406   4.228   5.348   0.160 -1.5582 -0.1086  1.5845
  639TIP3   OH223407   3.034   4.202  11.860  0.4199  0.0951 -0.3984
  639TIP3    H123408   3.083   4.279  11.887  1.6368 -0.7832  0.0029
  639TIP3    H223409   3.000   4.224  11.774 -1.3608  1.9857  0.6840
  640TIP3   OH223410   2.713   5.722  17.111  0.4309  0.5092 -0.4676
  640TIP3    H123411   2.705   5.735  17.205  1.6765 -0.7551 -0.1541
  640TIP3    H223412   2.623   5.716  17.080 -0.0127 -1.2090  0.9873
  641TIP3   OH223413   3.011   4.899   0.533  0.0194  0.1569 -0.0903
  641TIP3    H123414   2.925   4.925   0.565 -0.1054 -0.9388  0.5001
  641TIP3    H223415   3.029   4.960   0.461 -1.1696  0.5011 -0.1203
  642TIP3   OH223416   5.764   5.356   0.461  0.1518 -0.1573  0.7960
  642TIP3    H123417   5.685   5.319   0.501 -0.2073  0.1331  0.3614
  642TIP3    H223418   5.739   5.371   0.370  1.5051 -2.5221 -0.0564
  643TIP3   OH223419   5.080   4.056   2.715  0.1211  0.0910  0.5093
  643TIP3    H123420   5.149   4.096   2.663  1.1703  2.1908  3.2865
  643TIP3    H223421   5.000   4.101   2.688  0.5827  0.8700  0.4225
  644TIP3   OH223422   1.833   5.024  15.116  0.6277  0.0687  0.4593
  644TIP3    H123423   1.875   4.941  15.092 -1.2152 -0.6962 -0.2723
  644TIP3    H223424   1.809   5.012  15.208  1.4954  0.3178  0.7338
  645TIP3   OH223425   4.236   2.260  12.536 -0.2400  0.8784 -0.3373
  645TIP3    H123426   4.178   2.185  12.555  0.9482  0.5857  2.7455
  645TIP3    H223427   4.273   2.240  12.450 -4.2446  0.8734 -2.2998
  646TIP3   OH223428   2.401   2.903   4.021 -0.3493 -0.6133 -1.0068
  646TIP3    H123429   2.327   2.960   4.037 -0.8618 -1.2885 -0.8990
  646TIP3    H223430   2.394   2.880   3.928  0.7087  0.6647 -1.4187
  647TIP3   OH223431   3.435   3.728  12.199  0.6216 -0.2557  0.0736
  647TIP3    H123432   3.344   3.756  12.193  0.8637  0.3844 -0.9511
  647TIP3    H223433   3.461   3.711  12.108  1.0303 -2.1194  0.4918
  648TIP3   OH223434   3.496   3.695   4.766  0.3773  0.8732  0.8767
  648TIP3    H123435   3.404   3.705   4.788 -0.0765  0.7128 -0.8314
  648TIP3    H223436   3.531   3.784   4.768 -0.2550  1.1677 -0.1878
  649TIP3   OH223437   3.969   1.211  15.921 -0.3861  0.0475 -0.7867
  649TIP3    H123438   3.995   1.274  15.853 -2.9000  2.0970 -0.0191
  649TIP3    H223439   3.939   1.134  15.873  0.8584  0.1897 -1.8454
  650TIP3   OH223440   1.930   0.409  16.784  0.3566 -0.2175  0.0044
  650TIP3    H123441   1.918   0.323  16.744 -0.1965 -1.4478  2.5441
  650TIP3    H223442   1.844   0.430  16.820  0.5479  1.3246 -0.3953
  651TIP3   OH223443   0.158   5.555   6.036  0.6214  0.2685 -0.5067
  651TIP3    H123444   0.144   5.551   6.131  1.6032 -0.4589 -0.3789
  651TIP3    H223445   0.205   5.637   6.022  1.6513 -0.2398 -0.1784
  652TIP3   OH223446   0.230   2.906   3.727  0.3712  0.0312  0.0059
  652TIP3    H123447   0.149   2.864   3.697  0.8213 -0.6549 -0.2665
  652TIP3    H223448   0.200   2.975   3.787 -0.4348  0.1065 -0.4721
  653TIP3   OH223449   6.014   5.067   2.543 -0.3065  0.5897 -0.5785
  653TIP3    H123450   6.073   5.070   2.468  1.6984  1.6835  0.9600
  653TIP3    H223451   5.957   4.992   2.526  1.2487 -0.2467 -2.3325
  654TIP3   OH223452   5.579   3.701  11.274  0.3658 -0.1269 -0.3621
  654TIP3    H123453   5.610   3.630  11.329 -1.1408 -0.2581  0.3533
  654TIP3    H223454   5.574   3.664  11.186  2.1458 -0.1030 -0.5081
  655TIP3   OH223455   1.470   5.477  14.626  0.3625  0.6099  0.5270
  655TIP3    H123456   1.483   5.572  14.623  0.4115  0.5840 -0.0647
  655TIP3    H223457   1.394   5.462  14.570  1.7742  0.0438 -1.3033
  656TIP3   OH223458   1.607   3.654  10.709 -0.1912 -0.0459 -0.4156
  656TIP3    H123459   1.582   3.723  10.648  2.6286  0.3980 -1.1949
  656TIP3    H223460   1.566   3.575  10.675  2.3348 -0.0922 -3.7975
  657TIP3   OH223461   4.315   6.461  15.324  0.0886 -0.1564  1.0384
  657TIP3    H123462   4.270   6.503  15.251  0.2412  0.7274  1.4388
  657TIP3    H223463   4.392   6.515  15.340  1.2297 -1.5388  0.4811
  658TIP3   OH223464   3.824   3.852  15.210  0.7531 -0.3999  0.4138
  658TIP3    H123465   3.790   3.870  15.122  0.8398  0.8646  0.6269
  658TIP3    H223466   3.911   3.890  15.210  1.0215 -1.0001  0.8426
  659TIP3   OH223467   0.363   4.162   2.018  0.3194 -0.4232 -0.2114
  659TIP3    H123468   0.355   4.191   1.927  0.6618  0.4944  0.0355
  659TIP3    H223469   0.281   4.187   2.058 -1.8041 -4.8209 -1.2439
  660TIP3   OH223470   0.572   2.132   1.696  0.2726 -0.1591 -0.1031
  660TIP3    H123471   0.495   2.088   1.734  0.3472  0.3002  0.5971
  660TIP3    H223472   0.535   2.191   1.630 -0.2736  1.9749  1.9749
  661TIP3   OH223473   2.626   6.379   0.308 -0.3594  0.4548  0.4638
  661TIP3    H123474   2.710   6.333   0.298 -0.6410  0.3743 -2.2374
  661TIP3    H223475   2.650   6.469   0.331  0.4451  0.2456  0.4646
  662TIP3   OH223476   2.961   6.039  10.955 -0.2539  0.4936  0.0900
  662TIP3    H123477   2.899   6.007  10.890 -0.9405  3.3372 -0.8022
  662TIP3    H223478   2.911   6.041  11.037 -0.8257  1.1089 -0.2610
  663TIP3   OH223479   4.246   6.583  14.457 -0.0702 -0.0411 -0.2313
  663TIP3    H123480   4.204   6.654  14.409 -0.0214 -1.1651 -2.0262
  663TIP3    H223481   4.204   6.585  14.543 -0.0598  2.1253 -0.2247
  664TIP3   OH223482   1.364   5.263  11.408 -0.1728 -0.4015 -0.4403
  664TIP3    H123483   1.386   5.296  11.495  0.5618 -1.0721 -0.3648
  664TIP3    H223484   1.286   5.313  11.383  0.3996  0.7697  0.0299
  665TIP3   OH223485   2.184   3.695  16.014  0.4398  0.1761  0.0965
  665TIP3    H123486   2.189   3.610  15.970  0.5803 -0.7132  1.7424
  665TIP3    H223487   2.090   3.710  16.027  0.4638 -1.2434  2.4816
  666TIP3   OH223488   0.916   1.786   6.074  0.0723 -0.2142 -0.0129
  666TIP3    H123489   0.893   1.710   6.126 -1.5012  0.7142  0.7152
  666TIP3    H223490   0.967   1.842   6.133  0.7569 -0.4392 -0.3776
  667TIP3   OH223491   6.467   2.481  14.757  0.3001 -0.4279 -0.0764
  667TIP3    H123492   6.410   2.415  14.716 -1.3832  0.1014  1.2799
  667TIP3    H223493   6.435   2.487  14.847  2.8983 -0.4855  0.9486
  668TIP3   OH223494   0.685   1.224   5.501 -0.6572  0.0458  0.7787
  668TIP3    H123495   0.654   1.198   5.588 -2.0187  2.7724  1.2193
  668TIP3    H223496   0.605   1.230   5.448 -0.1325  0.8005  0.0473
  669TIP3   OH223497   2.829   6.108  12.635 -0.0858 -0.1547 -0.0167
  669TIP3    H123498   2.909   6.091  12.684 -0.5602 -1.6275  0.2924
  669TIP3    H223499   2.859   6.152  12.555  0.7219  2.0284  1.3988
  670TIP3   OH223500   2.005   5.010   1.164 -0.1830 -0.2214 -0.3895
  670TIP3    H123501   2.064   5.050   1.100 -0.8576  1.3747 -0.0655
  670TIP3    H223502   1.970   5.084   1.213 -1.6282 -1.2131  0.1339
  671TIP3   OH223503   5.504   5.122  11.403 -0.1298 -0.3163 -0.3078
  671TIP3    H123504   5.518   5.029  11.421  0.9261 -0.0071  0.5901
  671TIP3    H223505   5.409   5.131  11.398 -0.2587 -1.3912 -0.1809
  672TIP3   OH223506   4.834   4.801   1.278  1.3970  0.3845 -0.4574
  672TIP3    H123507   4.815   4.807   1.185  1.6021  0.7786 -0.4750
  672TIP3    H223508   4.805   4.885   1.314 -1.6366 -0.8687  0.3638
  673TIP3   OH223509   4.273   3.394  11.094 -0.1240 -0.9276 -0.7461
  673TIP3    H123510   4.206   3.424  11.033 -0.3659 -1.0203 -0.5279
  673TIP3    H223511   4.354   3.396  11.043 -0.2117 -0.3707 -0.8783
  674TIP3   OH223512   3.807   0.643  16.186  0.1505  0.3399  0.0314
  674TIP3    H123513   3.818   0.654  16.280  0.8710 -0.5547  0.0679
  674TIP3    H223514   3.779   0.729  16.155  1.0326  0.9680  0.8997
  675TIP3   OH223515   1.333   6.329  15.927  0.4261  0.4622  0.3510
  675TIP3    H123516   1.267   6.358  15.990  1.4024  2.7759  0.4280
  675TIP3    H223517   1.338   6.234  15.939 -2.2129  0.3212  0.9404
  676TIP3   OH223518   6.781   0.184   4.543  0.6286  0.2874  0.4024
  676TIP3    H123519   6.798   0.156   4.633  1.5705 -0.8294 -0.1031
  676TIP3    H223520   6.843   0.134   4.490  0.1351  0.9808 -0.8682
  677TIP3   OH223521   3.937   3.865  11.054 -0.8206  0.0212  0.0413
  677TIP3    H123522   3.935   3.776  11.090 -0.9351 -0.5233 -1.2572
  677TIP3    H223523   4.010   3.863  10.992 -0.5671  0.9706  0.2955
  678TIP3   OH223524   2.728   3.531  13.208  0.4146 -0.3533 -0.2798
  678TIP3    H123525   2.702   3.538  13.117  0.3408  1.5267 -0.1560
  678TIP3    H223526   2.664   3.583  13.256  1.6750  0.4913  0.5704
  679TIP3   OH223527   6.418   0.674  13.111  0.2324 -0.3523  0.4348
  679TIP3    H123528   6.325   0.686  13.131 -0.0191  0.9989 -1.3157
  679TIP3    H223529   6.460   0.670  13.197 -1.3631 -0.2828  1.2574
  680TIP3   OH223530   0.513   0.253  11.495 -0.5136 -0.1152  0.4882
  680TIP3    H123531   0.417   0.258  11.504 -0.4776 -1.2802  1.8334
  680TIP3    H223532   0.547   0.285  11.578  0.2428 -0.3416  0.2748
  681TIP3   OH223533   3.892   3.712   2.668  0.2758 -0.1863 -0.4137
  681TIP3    H123534   3.932   3.708   2.582  1.7195  0.3611  0.1917
  681TIP3    H223535   3.876   3.805   2.683  1.1613 -0.1435  0.3729
  682TIP3   OH223536   2.984   0.730   1.582 -0.4166 -0.4905 -0.2730
  682TIP3    H123537   2.922   0.781   1.634  0.3983 -1.5612  1.8686
  682TIP3    H223538   2.948   0.732   1.494 -1.0691  2.6784 -0.0564
  683TIP3   OH223539   5.748   4.814  10.872  0.2074 -0.3161 -0.4266
  683TIP3    H123540   5.790   4.854  10.948 -0.2781 -3.1636  1.4718
  683TIP3    H223541   5.821   4.798  10.811  1.0846 -0.6096  0.6655
  684TIP3   OH223542   0.681   6.775  12.878  0.0438  0.4310  0.4070
  684TIP3    H123543   0.650   6.863  12.903  1.1271  0.6000  1.2111
  684TIP3    H223544   0.694   6.730  12.961  0.9156  0.0054  0.0493
  685TIP3   OH223545   3.343   1.017  13.433  0.5400  0.2559 -0.5184
  685TIP3    H123546   3.350   1.086  13.499 -1.2103 -0.4669  0.5267
  685TIP3    H223547   3.353   0.935  13.483 -2.0468 -0.3542 -0.8403
  686TIP3   OH223548   3.974   2.717  11.711 -0.1329  0.0345  0.3251
  686TIP3    H123549   4.049   2.759  11.753  1.2127 -1.4649 -0.4431
  686TIP3    H223550   3.948   2.779  11.642  0.5969  0.4508  0.4112
  687TIP3   OH223551   5.194   2.190  10.625 -0.0736  0.0709 -0.0047
  687TIP3    H123552   5.124   2.239  10.667  0.9371 -0.2529  2.2065
  687TIP3    H223553   5.267   2.252  10.622  0.3639 -0.4267  0.2428
  688TIP3   OH223554   2.028   6.717   4.351  0.1113 -0.1927  0.0199
  688TIP3    H123555   1.990   6.799   4.320  1.7687  1.6368  2.3636
  688TIP3    H223556   2.035   6.662   4.273  1.7943  3.0839 -2.4087
  689TIP3   OH223557   2.122   3.897  13.504  0.4367 -0.1814  0.3960
  689TIP3    H123558   2.214   3.924  13.503  0.6348 -0.8530 -0.3370
  689TIP3    H223559   2.075   3.973  13.469  0.8785 -0.3931 -0.6777
  690TIP3   OH223560   2.297   2.777   0.937 -0.1841 -0.1950  0.0284
  690TIP3    H123561   2.291   2.770   0.842  1.2782 -1.2876 -0.0211
  690TIP3    H223562   2.206   2.790   0.966 -0.5136  1.4365 -1.5721
  691TIP3   OH223563   1.932   5.853   0.154 -0.2974 -0.0946  0.2663
  691TIP3    H123564   1.933   5.863   0.059  0.4685 -0.3600  0.2376
  691TIP3    H223565   1.987   5.776   0.170  0.1371  0.3579  0.9666
  692TIP3   OH223566   4.266   6.705  11.688 -0.1524 -0.4150  0.1158
  692TIP3    H123567   4.296   6.617  11.708 -1.8538 -0.4879  2.9136
  692TIP3    H223568   4.298   6.759  11.761 -2.1173  0.5198  0.3704
  693TIP3   OH223569   0.149   2.478   3.969 -0.1261 -0.0214 -0.0124
  693TIP3    H123570   0.174   2.519   4.052 -2.3957  0.4761  0.5047
  693TIP3    H223571   0.190   2.532   3.902  0.3395  0.5874  0.7401
  694TIP3   OH223572   0.121   3.528   5.012 -0.0764  0.1154  0.2050
  694TIP3    H123573   0.082   3.469   5.076  1.2615 -0.1220  0.8193
  694TIP3    H223574   0.163   3.596   5.064  0.5036  0.2591 -0.4343
  695TIP3   OH223575   3.809   5.431  16.172  0.4272 -0.2639  0.0698
  695TIP3    H123576   3.818   5.523  16.199  3.7372 -0.2751 -0.5755
  695TIP3    H223577   3.809   5.434  16.076  0.9067 -0.9621  0.0448
  696TIP3   OH223578   3.178   6.193   0.370  0.0745 -0.0862  0.0049
  696TIP3    H123579   3.235   6.225   0.439 -1.3375 -0.2346  1.3119
  696TIP3    H223580   3.089   6.208   0.403 -0.6729  0.1900 -1.9545
  697TIP3   OH223581   3.824   2.193   3.264  0.3029  0.3904  0.0558
  697TIP3    H123582   3.893   2.221   3.204  1.2253  0.7609  1.2579
  697TIP3    H223583   3.797   2.273   3.308 -0.2567  0.0931  0.2668
  698TIP3   OH223584   0.712   0.237   1.526 -0.4125 -0.1541 -0.1965
  698TIP3    H123585   0.804   0.218   1.507 -0.6496 -2.0823  0.3531
  698TIP3    H223586   0.663   0.188   1.460 -1.0616  0.6822 -0.3494
  699TIP3   OH223587   3.621   3.937  13.793  0.0732  0.6947  0.5098
  699TIP3    H123588   3.549   3.934  13.857  0.4373  0.3839  0.9125
  699TIP3    H223589   3.701   3.932  13.847  0.3807  0.1691  0.0101
  700TIP3   OH223590   0.772   6.597   5.878  0.1856  0.2799 -0.1080
  700TIP3    H123591   0.745   6.568   5.791 -2.2798  0.5230  0.5062
  700TIP3    H223592   0.711   6.554   5.938  0.7123  1.4935  1.3616
  701TIP3   OH223593   5.377   5.875   1.927  0.0653 -0.7757  0.4206
  701TIP3    H123594   5.297   5.839   1.890 -1.6261 -1.9647  4.6575
  701TIP3    H223595   5.350   5.956   1.969  1.7508  0.2519 -0.3605
  702TIP3   OH223596   6.579   2.400   5.333 -0.2454 -0.2874  0.2669
  702TIP3    H123597   6.499   2.452   5.320  1.2244  2.0386 -0.0014
  702TIP3    H223598   6.631   2.415   5.254  1.2670 -0.2356  1.2319
  703TIP3   OH223599   6.588   2.349  17.175  0.3365 -0.5700  0.2437
  703TIP3    H123600   6.648   2.331  17.103  0.7912 -0.0234  0.4785
  703TIP3    H223601   6.504   2.364  17.132  1.1817  2.8378 -0.5301
  704TIP3   OH223602   6.185   5.193   4.737 -0.0979  0.6288 -0.6961
  704TIP3    H123603   6.251   5.251   4.701 -0.3149 -0.9843 -4.0649
  704TIP3    H223604   6.108   5.248   4.749  0.7389  1.7397 -0.3133
  705TIP3   OH223605   1.270   3.976  16.304 -0.3111  0.5542 -0.1933
  705TIP3    H123606   1.249   3.998  16.213  2.7285  0.7739 -0.9547
  705TIP3    H223607   1.338   4.038  16.329  0.4387 -0.8484  1.4999
  706TIP3   OH223608   6.540   0.266   3.803  0.7353 -0.1178 -0.3903
  706TIP3    H123609   6.554   0.210   3.727  0.3593  0.5267 -0.9411
  706TIP3    H223610   6.455   0.307   3.788  1.2400  1.0212 -0.2789
  707TIP3   OH223611   5.829   6.423   5.866 -0.2090 -0.4629  0.1869
  707TIP3    H123612   5.840   6.329   5.880  0.4805 -0.1450  1.9802
  707TIP3    H223613   5.911   6.462   5.897 -1.4319  0.9162  1.8746
  708TIP3   OH223614   1.234   5.542  13.768  0.2768 -0.5182 -0.7602
  708TIP3    H123615   1.277   5.496  13.697  1.2360 -0.3568 -0.3043
  708TIP3    H223616   1.296   5.536  13.841 -1.2452 -1.8517  0.4942
  709TIP3   OH223617   3.524   2.615  11.646 -0.0867  0.5176 -0.2989
  709TIP3    H123618   3.592   2.633  11.711  0.2199  1.8127 -0.9552
  709TIP3    H223619   3.534   2.522  11.626  1.6232  0.7236 -0.5179
  710TIP3   OH223620   3.689   6.288  14.864 -0.5479 -0.7350  0.6876
  710TIP3    H123621   3.618   6.329  14.914 -1.2020 -2.0653  0.8897
  710TIP3    H223622   3.769   6.321  14.904 -1.0163  0.9979  0.2923
  711TIP3   OH223623   4.227   2.182  11.290 -0.2861  0.4281  0.5433
  711TIP3    H123624   4.248   2.173  11.197 -0.4377  0.8148  0.4704
  711TIP3    H223625   4.132   2.183  11.292 -0.3345 -1.5962  0.8955
  712TIP3   OH223626   3.123   1.417  16.348  0.3569 -0.3531 -0.0555
  712TIP3    H123627   3.090   1.350  16.288  2.6649 -2.3959  0.7675
  712TIP3    H223628   3.193   1.461  16.299  1.1744 -0.9496  0.5426
  713TIP3   OH223629   0.072   3.856  11.765 -0.6553 -0.4857  0.1836
  713TIP3    H123630   0.081   3.761  11.752  0.0725 -0.9270  3.0536
  713TIP3    H223631   0.117   3.895  11.690  0.4572 -2.4426 -0.2448
  714TIP3   OH223632   2.000   2.325  16.485 -0.6693  0.1109 -0.1633
  714TIP3    H123633   1.925   2.300  16.430 -1.3134  0.0601  0.7168
  714TIP3    H223634   2.045   2.392  16.435 -0.8662 -0.4008 -1.0500
  715TIP3   OH223635   3.167   2.467   0.287  0.2167 -0.1973  0.2196
  715TIP3    H123636   3.250   2.514   0.283  0.2497 -0.3468 -1.9382
  715TIP3    H223637   3.192   2.376   0.300  0.4507 -0.3014 -0.8391
  716TIP3   OH223638   2.980   4.129   4.508 -0.7418  0.0509  0.3875
  716TIP3    H123639   2.984   4.111   4.414 -1.2238  0.0273  0.3682
  716TIP3    H223640   3.060   4.178   4.527  1.6242 -3.5244  0.7383
  717TIP3   OH223641   0.958   2.448   1.473 -0.0380  0.2638  0.2002
  717TIP3    H123642   0.942   2.473   1.382 -0.7661 -0.6214  0.0684
  717TIP3    H223643   0.968   2.353   1.471  0.7761  0.3133  0.9392
  718TIP3   OH223644   6.184   0.468  16.704 -0.1366 -0.1014 -0.0745
  718TIP3    H123645   6.098   0.505  16.723  1.4639  3.5980  0.7274
  718TIP3    H223646   6.215   0.435  16.788 -0.0471  0.2488  0.0306
  719TIP3   OH223647   4.378   5.472   1.828  0.2070  0.2460  0.0751
  719TIP3    H123648   4.333   5.490   1.911 -0.3284 -2.0991  0.3676
  719TIP3    H223649   4.355   5.545   1.772  2.2551  3.0686  2.5474
  720TIP3   OH223650   3.002   2.807  15.126 -0.2171 -0.1893  0.2101
  720TIP3    H123651   3.041   2.893  15.115  0.1325 -0.4069 -0.3189
  720TIP3    H223652   3.062   2.748  15.081 -1.1380 -0.5351 -0.5960
  721TIP3   OH223653   6.803   1.872   5.666  0.7390  0.1195 -0.1901
  721TIP3    H123654   6.777   1.872   5.574  0.8296 -0.7982 -0.2246
  721TIP3    H223655   6.894   1.903   5.666  0.7630  0.0493 -0.4186
  722TIP3   OH223656   3.987   1.780  13.737  0.1270  0.2917  0.3816
  722TIP3    H123657   3.968   1.739  13.652  1.2715 -0.8066  0.6254
  722TIP3    H223658   4.072   1.822  13.725 -0.1623  0.9739  0.7008
  723TIP3   OH223659   6.800   2.671  15.809  0.0784  0.4428 -0.1205
  723TIP3    H123660   6.854   2.699  15.883 -0.5323 -0.0965  0.5515
  723TIP3    H223661   6.823   2.731  15.738  1.0487  0.6483  0.3514
  724TIP3   OH223662   3.302   4.473  13.761 -0.2649 -0.2631 -0.0314
  724TIP3    H123663   3.220   4.443  13.799  0.2795 -0.3314  1.1247
  724TIP3    H223664   3.299   4.568  13.769  0.0685 -0.3061  0.6674
  725TIP3   OH223665   0.134   2.282   2.723 -0.2640  0.3360 -0.3001
  725TIP3    H123666   0.137   2.343   2.649 -0.3573  1.7065  0.7899
  725TIP3    H223667   0.055   2.307   2.771  1.0666  1.1291  1.6084
  726TIP3   OH223668   0.897   6.572   0.217  0.5393 -0.4495  1.0593
  726TIP3    H123669   0.956   6.640   0.250  1.2977 -0.8189  0.4706
  726TIP3    H223670   0.809   6.610   0.227  1.0184  2.3957 -2.9133
  727TIP3   OH223671   3.793   4.808   1.394 -0.0856 -0.0417 -0.3706
  727TIP3    H123672   3.820   4.738   1.453  2.3573 -1.3641 -2.8079
  727TIP3    H223673   3.850   4.881   1.415  1.1559 -0.6912 -1.3424
  728TIP3   OH223674   0.742   5.838   3.735  0.0770 -0.4723  0.6630
  728TIP3    H123675   0.811   5.904   3.741 -1.8733  1.7955 -0.3031
  728TIP3    H223676   0.711   5.829   3.825 -0.4333  0.9197  0.6605
  729TIP3   OH223677   3.596   0.202   1.170 -0.5184 -0.0506 -0.7588
  729TIP3    H123678   3.568   0.288   1.200  0.2865  0.2684 -0.8947
  729TIP3    H223679   3.549   0.140   1.226  0.2965  0.5149  0.5905
  730TIP3   OH223680   6.107   5.884   1.503  0.4447 -0.5162 -0.0219
  730TIP3    H123681   6.178   5.945   1.524  0.7537 -0.6055 -0.7636
  730TIP3    H223682   6.139   5.799   1.535  0.4515 -0.4635  0.1104
  731TIP3   OH223683   5.801   1.505  12.773  0.5946 -0.0829  0.2677
  731TIP3    H123684   5.795   1.434  12.837  0.8617 -1.5919 -1.3077
  731TIP3    H223685   5.875   1.481  12.718  1.0196  1.7153 -0.0048
  732TIP3   OH223686   1.026   2.717  15.383  0.5218 -0.1692 -0.4555
  732TIP3    H123687   1.002   2.629  15.354  0.6197 -0.9119  1.6072
  732TIP3    H223688   1.024   2.713  15.478 -0.4503  2.3450 -0.2855
  733TIP3   OH223689   4.268   0.530   4.194  0.2144  0.3095  0.2910
  733TIP3    H123690   4.241   0.459   4.134 -1.8910  1.3688 -0.1280
  733TIP3    H223691   4.306   0.484   4.268  0.5941 -1.1802 -0.7610
  734TIP3   OH223692   3.296   0.423  12.705 -0.2307  0.0038  0.1984
  734TIP3    H123693   3.220   0.364  12.712 -0.4541  0.2524 -0.1380
  734TIP3    H223694   3.333   0.405  12.619 -0.2895  0.3417  0.1003
  735TIP3   OH223695   4.470   0.436   5.543 -0.2112  0.5417 -0.5015
  735TIP3    H123696   4.378   0.414   5.530 -0.3168  0.7685 -0.1580
  735TIP3    H223697   4.506   0.445   5.455 -0.1557 -1.0300 -0.6755
  736TIP3   OH223698   2.601   0.028  15.391 -0.1812  0.2782 -0.6239
  736TIP3    H123699   2.677   0.084  15.379 -0.3183  0.6640  0.1893
  736TIP3    H223700   2.526   0.086  15.380 -0.4473 -0.4221 -3.1079
  737TIP3   OH223701   3.719   0.872  17.107  0.0111 -0.1875  0.2604
  737TIP3    H123702   3.772   0.907  17.035  1.8476 -0.5171  1.4105
  737TIP3    H223703   3.646   0.934  17.115 -0.2231 -0.1208 -1.8283
  738TIP3   OH223704   4.621   0.210  11.985  0.2904 -0.5044  0.1741
  738TIP3    H123705   4.673   0.148  11.934  0.2455 -1.2580  1.0191
  738TIP3    H223706   4.558   0.246  11.922  2.1541  0.8775 -1.0252
  739TIP3   OH223707   2.189   2.308  15.976 -0.2414 -0.1195  0.2170
  739TIP3    H123708   2.172   2.271  16.063 -1.0214  1.1669  0.6259
  739TIP3    H223709   2.274   2.351  15.984 -0.4160  0.1908  0.4107
  740TIP3   OH223710   6.586   2.822   5.500  0.0335 -0.4210  0.1968
  740TIP3    H123711   6.670   2.866   5.509 -0.4466  0.4189  0.7063
  740TIP3    H223712   6.525   2.877   5.550 -0.8588 -0.8766 -0.3720
  741TIP3   OH223713   4.228   4.130   1.153 -0.2076 -0.0323 -0.1598
  741TIP3    H123714   4.225   4.106   1.060  2.5875  2.4449 -1.0844
  741TIP3    H223715   4.200   4.222   1.154 -0.5800 -0.1479  1.5221
  742TIP3   OH223716   2.802   1.231   1.213 -0.0368  0.4420  0.0062
  742TIP3    H123717   2.727   1.206   1.266  0.0839 -0.3616 -0.1956
  742TIP3    H223718   2.878   1.196   1.259  0.2038  1.0643  0.0959
  743TIP3   OH223719   4.413   3.944  10.143 -1.2222  0.1896  0.2500
  743TIP3    H123720   4.333   3.991  10.166 -0.9550  0.0776  1.4637
  743TIP3    H223721   4.386   3.884  10.074 -1.8761  1.1083 -0.3257
  744TIP3   OH223722   6.176   6.064  12.591  0.0271 -0.5269 -0.0356
  744TIP3    H123723   6.252   6.121  12.581  1.2742 -1.9850  0.6849
  744TIP3    H223724   6.138   6.058  12.503 -0.6804  2.0398  0.0155
  745TIP3   OH223725   0.183   5.656   4.296 -0.3580  0.2761  0.0682
  745TIP3    H123726   0.090   5.645   4.276 -0.2481 -2.7701  0.7370
  745TIP3    H223727   0.189   5.643   4.390  0.8229 -0.2608 -0.0612
  746TIP3   OH223728   2.127   0.164  14.966  0.0563 -0.5715 -0.3532
  746TIP3    H123729   2.151   0.221  15.039  3.1763 -0.5286 -1.2924
  746TIP3    H223730   2.107   0.080  15.008 -0.6775  0.1073  0.7124
  747TIP3   OH223731   4.709   1.071   3.678 -0.1760  0.2846 -0.6942
  747TIP3    H123732   4.661   1.140   3.633 -1.3261  1.8385  2.6096
  747TIP3    H223733   4.646   1.034   3.740  1.7495 -0.3962  0.9673
  748TIP3   OH223734   3.088   4.556   1.569 -0.0447 -0.0024 -0.7493
  748TIP3    H123735   3.001   4.587   1.544  0.1574  1.3156  0.1127
  748TIP3    H223736   3.074   4.509   1.652 -0.0654 -0.6809 -1.1235
  749TIP3   OH223737   2.660   1.463  12.837  0.2500  0.6604 -0.3296
  749TIP3    H123738   2.710   1.523  12.891 -1.3373  0.3433  1.5962
  749TIP3    H223739   2.700   1.377  12.853  0.1973  0.6618 -0.1943
  750TIP3   OH223740   4.218   1.720   4.180 -0.2098 -0.3059  0.1030
  750TIP3    H123741   4.207   1.781   4.253  1.3397 -1.1530  1.0977
  750TIP3    H223742   4.140   1.665   4.183 -0.2570 -0.2045  1.0279
  751TIP3   OH223743   1.478   2.306  15.292 -0.3845  0.2809 -0.1344
  751TIP3    H123744   1.523   2.222  15.292  0.3255  0.6165 -1.6070
  751TIP3    H223745   1.423   2.304  15.213 -2.0025  0.3980  0.9322
  752TIP3   OH223746   5.140   1.379   4.190 -0.4728 -0.2988  0.4398
  752TIP3    H123747   5.071   1.365   4.125  0.0966 -2.2192  0.2028
  752TIP3    H223748   5.206   1.313   4.170  0.3848  0.0034  2.0909
  753TIP3   OH223749   0.224   2.568  11.426 -0.0345 -0.1222 -0.0937
  753TIP3    H123750   0.165   2.599  11.494 -1.6320 -2.9933 -0.0109
  753TIP3    H223751   0.188   2.604  11.345  0.0464  0.7444  0.2392
  754TIP3   OH223752   1.712   2.145   4.233  0.1990 -0.1728  0.1066
  754TIP3    H123753   1.732   2.065   4.184  2.3065 -0.2155  0.9587
  754TIP3    H223754   1.735   2.124   4.324  0.0013  1.1521  0.4896
  755TIP3   OH223755   1.129   4.860  12.369  0.5646  0.6593  0.8313
  755TIP3    H123756   1.185   4.828  12.440  2.3376 -4.3702 -2.2495
  755TIP3    H223757   1.058   4.795  12.363 -0.7780  2.1605 -0.6538
  756TIP3   OH223758   6.032   6.084   3.101 -0.2537 -0.2749  0.0604
  756TIP3    H123759   5.971   6.061   3.032 -1.3493 -1.4917  1.3791
  756TIP3    H223760   5.996   6.164   3.140  0.1216  0.1562 -0.4599
  757TIP3   OH223761   5.840   0.203   0.166  0.2774  0.3943  0.0557
  757TIP3    H123762   5.796   0.237   0.244 -0.5310  1.5808 -0.8682
  757TIP3    H223763   5.933   0.208   0.187  0.0963  1.3367  0.7054
  758TIP3   OH223764   6.734   3.539  12.532  0.1695 -0.0474 -0.2802
  758TIP3    H123765   6.666   3.471  12.535  1.0544 -0.9239  1.1303
  758TIP3    H223766   6.746   3.564  12.623  2.8727 -1.1302 -0.2517
  759TIP3   OH223767   6.444   4.138  16.516 -0.8887 -0.2272  0.3182
  759TIP3    H123768   6.411   4.212  16.465  1.6207  2.6088  2.4293
  759TIP3    H223769   6.389   4.136  16.594  0.8095  1.5333  1.6730
  760TIP3   OH223770   0.627   5.636  14.446  0.4354 -0.2980  0.2166
  760TIP3    H123771   0.584   5.612  14.364  0.4226 -0.8794  0.3890
  760TIP3    H223772   0.610   5.562  14.505  2.1908 -0.8577  0.0922
  761TIP3   OH223773   5.438   0.112  12.149  0.6083  0.1248 -0.0132
  761TIP3    H123774   5.464   0.200  12.120  1.8562 -0.1454  0.2400
  761TIP3    H223775   5.378   0.128  12.221  1.2163  0.7847  0.3619
  762TIP3   OH223776   2.625   1.134  12.213  0.4954 -0.0305  0.6722
  762TIP3    H123777   2.616   1.229  12.207  1.4164 -0.0137 -1.4645
  762TIP3    H223778   2.688   1.120  12.283  1.1183  1.0154  0.3461
  763TIP3   OH223779   2.254   6.279  13.889  0.0709 -0.5255 -0.8274
  763TIP3    H123780   2.197   6.312  13.819  0.3662 -0.1613 -0.9017
  763TIP3    H223781   2.259   6.185  13.874  0.6181 -0.3749 -1.6671
  764TIP3   OH223782   3.620   4.490   1.289 -0.0187  0.3297 -0.2650
  764TIP3    H123783   3.630   4.576   1.247  1.6475  0.2567 -0.1090
  764TIP3    H223784   3.708   4.469   1.320 -0.7870 -0.5844  1.4038
  765TIP3   OH223785   2.120   3.215  11.166 -0.0139 -0.0725  0.6650
  765TIP3    H123786   2.068   3.145  11.126 -0.5930  0.2494  0.8428
  765TIP3    H223787   2.181   3.169  11.224  1.8712 -0.6822 -1.6357
  766TIP3   OH223788   0.774   2.817   0.487  0.0669  0.3959 -0.3188
  766TIP3    H123789   0.716   2.860   0.424 -0.9239 -1.0055 -0.4181
  766TIP3    H223790   0.780   2.879   0.560  0.2064  1.4906 -1.2271
  767TIP3   OH223791   5.833   6.448   0.703 -0.1376  0.4204 -0.4060
  767TIP3    H123792   5.836   6.401   0.619 -1.1870 -1.7929  0.7180
  767TIP3    H223793   5.754   6.416   0.745  1.6439 -0.4631  2.5234
  768TIP3   OH223794   0.215   5.237  11.837  0.1055  0.0215 -0.2038
  768TIP3    H123795   0.170   5.157  11.809  0.5231 -0.5168  0.6458
  768TIP3    H223796   0.213   5.293  11.759 -0.7851 -0.5396 -0.6089
  769TIP3   OH223797   4.689   0.583  10.822  0.4119  0.5419 -0.3477
  769TIP3    H123798   4.692   0.542  10.736  0.9118  0.0579 -0.1074
  769TIP3    H223799   4.612   0.640  10.819 -1.1748 -1.4627 -0.2433
  770TIP3   OH223800   3.851   6.825   5.913  0.2452 -0.1560  0.3747
  770TIP3    H123801   3.811   6.903   5.951 -0.7916  0.0694 -1.1136
  770TIP3    H223802   3.931   6.812   5.964  0.5209  1.9730  0.5750
  771TIP3   OH223803   4.155   3.667   6.026  0.2208 -0.2726  0.4580
  771TIP3    H123804   4.110   3.743   5.989  0.3306  0.0176  0.9183
  771TIP3    H223805   4.088   3.622   6.078  0.1835 -0.4422  0.2683
  772TIP3   OH223806   4.208   2.895  12.304 -0.1084 -0.0665  0.0658
  772TIP3    H123807   4.162   2.955  12.363 -0.0888  1.0811 -1.0549
  772TIP3    H223808   4.278   2.948  12.265 -1.3856 -0.1708 -2.5627
  773TIP3   OH223809   0.812   0.495   0.594 -0.0240  0.0257  0.2076
  773TIP3    H123810   0.887   0.554   0.587  0.1403 -0.2619 -0.4955
  773TIP3    H223811   0.739   0.552   0.619  0.6571  0.1363  2.1259
  774TIP3   OH223812   6.287   5.991   6.381 -1.1016  0.0880 -0.2361
  774TIP3    H123813   6.359   6.002   6.318 -0.2078 -0.2506  0.7077
  774TIP3    H223814   6.241   6.075   6.379  0.4699  1.0176  0.5287
  775TIP3   OH223815   3.398   0.079   2.390  0.1326 -0.4141  0.5304
  775TIP3    H123816   3.447   0.010   2.346 -1.2794 -0.1914 -1.5290
  775TIP3    H223817   3.407   0.155   2.332 -0.6193  0.3090  1.3367
  776TIP3   OH223818   1.712   2.371  13.099  0.3638 -0.1111  0.1622
  776TIP3    H123819   1.749   2.406  13.180  0.9445 -1.1105  0.3386
  776TIP3    H223820   1.640   2.315  13.128  0.5355 -0.4257 -0.0223
  777TIP3   OH223821   1.227   2.264   4.534  0.2558 -0.0147 -0.7832
  777TIP3    H123822   1.156   2.264   4.470 -0.4189  1.1592 -0.0627
  777TIP3    H223823   1.186   2.291   4.616  1.3212 -0.4179 -0.0957
  778TIP3   OH223824   2.235   1.721   5.431  0.0124 -0.7248 -0.0237
  778TIP3    H123825   2.185   1.655   5.479  1.2447 -1.9537 -0.3720
  778TIP3    H223826   2.257   1.678   5.348  1.8978 -0.3591  0.2440
  779TIP3   OH223827   3.744   1.842  14.392 -0.0238 -0.1991 -0.0802
  779TIP3    H123828   3.745   1.813  14.300  0.0882  0.1560 -0.1930
  779TIP3    H223829   3.673   1.792  14.432  0.8176 -1.4007 -0.0154
  780TIP3   OH223830   3.264   4.202   0.828  0.0006  0.1797  0.1406
  780TIP3    H123831   3.277   4.119   0.782 -0.4002 -0.3912  1.0373
  780TIP3    H223832   3.340   4.255   0.803 -0.3135 -0.0217 -1.3466
  781TIP3   OH223833   1.783   3.569   5.473 -0.2156  0.0208  0.0101
  781TIP3    H123834   1.846   3.516   5.425  0.8382 -0.4172  1.7656
  781TIP3    H223835   1.762   3.641   5.414 -0.0248 -1.1795 -1.5971
  782TIP3   OH223836   1.916   6.734   0.300 -0.3005  0.2833  0.2196
  782TIP3    H123837   1.990   6.673   0.305  0.3285  0.8114 -1.6841
  782TIP3    H223838   1.838   6.679   0.310  0.2753 -0.1166  3.6736
  783TIP3   OH223839   5.934   5.158   3.063 -1.1318 -0.6411  0.2679
  783TIP3    H123840   6.016   5.180   3.106 -0.2375 -2.7909 -0.2396
  783TIP3    H223841   5.878   5.235   3.078  0.3169  0.1167  2.1992
  784TIP3   OH223842   2.821   0.672   6.868  0.4174  0.3868 -0.2909
  784TIP3    H123843   2.848   0.704   6.955  0.9510 -1.8151  0.4335
  784TIP3    H223844   2.767   0.742   6.832  0.9106  1.7396  1.4507
  785TIP3   OH223845   3.842   2.141  12.226 -0.1220  0.0524 -0.0191
  785TIP3    H123846   3.917   2.122  12.169 -0.6119 -1.3036 -0.2495
  785TIP3    H223847   3.836   2.237  12.227  3.0869  0.3661  1.9789
  786TIP3   OH223848   2.352   3.966  11.734  0.3907 -0.0142  0.0735
  786TIP3    H123849   2.435   3.938  11.773  0.1631 -1.1381 -0.1893
  786TIP3    H223850   2.377   4.005  11.650  0.6429 -0.6630 -0.1628
  787TIP3   OH223851   6.126   2.667  15.677  0.1353 -0.3157 -0.4524
  787TIP3    H123852   6.127   2.686  15.771  1.3976 -0.4695 -0.4124
  787TIP3    H223853   6.207   2.618  15.662 -0.8981 -1.7946 -1.3310
  788TIP3   OH223854   2.766   2.504   4.571 -0.1703  0.5437  0.2395
  788TIP3    H123855   2.765   2.534   4.480 -0.8086  0.9774  0.3811
  788TIP3    H223856   2.699   2.437   4.576 -0.3190  0.7044  0.4487
  789TIP3   OH223857   5.011   3.207  16.601 -0.4799  0.2192 -0.0483
  789TIP3    H123858   5.032   3.175  16.513  2.0081 -0.6737  0.7836
  789TIP3    H223859   5.088   3.257  16.627 -1.6339  1.4052  1.2426
  790TIP3   OH223860   6.770   3.946  12.677  0.3093  0.3812  0.4561
  790TIP3    H123861   6.840   4.000  12.714 -1.7328  2.4777  1.4748
  790TIP3    H223862   6.722   3.913  12.754 -0.4372 -0.1626 -0.2266
  791TIP3   OH223863   4.926   1.864   0.119  0.4580  0.0263  0.0590
  791TIP3    H123864   4.932   1.850   0.213 -1.9567 -0.7444  0.1579
  791TIP3    H223865   4.851   1.924   0.109  1.4860  1.1513 -1.3156
  792TIP3   OH223866   0.267   0.643  16.003  0.8107 -0.0001  0.2395
  792TIP3    H123867   0.264   0.651  16.099  1.5970  0.1163  0.2668
  792TIP3    H223868   0.304   0.726  15.973 -1.7360  1.0006 -0.3810
  793TIP3   OH223869   6.224   0.111   6.239 -0.0340  0.3436 -0.5006
  793TIP3    H123870   6.200   0.177   6.174 -0.3131 -1.0705 -1.9239
  793TIP3    H223871   6.209   0.028   6.194  0.1733 -0.6953  1.2656
  794TIP3   OH223872   1.321   3.242   4.869  0.5701 -0.2882 -0.6003
  794TIP3    H123873   1.288   3.185   4.938  1.8019 -0.1558  0.1400
  794TIP3    H223874   1.247   3.298   4.846  0.6389  1.0287  2.0428
  795TIP3   OH223875   0.636   2.386   2.864 -0.2771 -0.1889 -0.4080
  795TIP3    H123876   0.608   2.296   2.881  1.4221 -0.5306  0.8311
  795TIP3    H223877   0.591   2.409   2.782 -1.8615 -1.6323 -0.0184
  796TIP3   OH223878   4.771   2.745   0.126 -0.2739 -0.5568  0.6240
  796TIP3    H123879   4.722   2.689   0.066  0.1571 -2.1076  1.6582
  796TIP3    H223880   4.720   2.743   0.207  0.8532 -1.1878  1.3338
  797TIP3   OH223881   5.149   5.094   1.005  0.7147 -0.3912  0.0289
  797TIP3    H123882   5.163   5.140   1.088 -0.2663 -0.9524  0.5200
  797TIP3    H223883   5.185   5.153   0.939  0.5121  0.5727  0.7510
  798TIP3   OH223884   6.230   0.568  15.143  0.2946 -0.2290 -0.2997
  798TIP3    H123885   6.285   0.535  15.214 -0.1320  3.0382  1.7773
  798TIP3    H223886   6.144   0.583  15.184 -0.0665  1.4419 -1.5327
  799TIP3   OH223887   4.220   6.420  14.850 -0.9200  0.0057 -0.3483
  799TIP3    H123888   4.190   6.457  14.767  0.2870 -0.4234 -1.0010
  799TIP3    H223889   4.300   6.373  14.828 -1.4463 -1.4915  0.7753
  800TIP3   OH223890   3.788   2.467  13.407 -0.0525  0.1389  0.1656
  800TIP3    H123891   3.883   2.464  13.396 -0.0225 -0.6621  0.5805
  800TIP3    H223892   3.761   2.548  13.362  0.7414  0.0203 -0.5491
  801TIP3   OH223893   6.514   0.288  16.665  0.1040 -0.4205 -0.4822
  801TIP3    H123894   6.549   0.292  16.754 -2.1504 -0.2235  0.4631
  801TIP3    H223895   6.423   0.264  16.677 -0.2601 -0.3178 -2.7607
  802TIP3   OH223896   1.860   4.051   0.853  0.2902  0.0484 -0.3448
  802TIP3    H123897   1.765   4.065   0.859  0.2043 -1.0110  1.9428
  802TIP3    H223898   1.868   3.959   0.826  0.7086  0.5807 -2.1092
  803TIP3   OH223899   5.480   4.114  12.631 -0.1859  0.1789 -0.5250
  803TIP3    H123900   5.392   4.150  12.624 -0.1081  0.2023 -1.4300
  803TIP3    H223901   5.532   4.165  12.569  0.2384 -0.5212 -0.7542
  804TIP3   OH223902   4.762   1.237  16.769 -0.4790  0.7526  0.1426
  804TIP3    H123903   4.698   1.308  16.769  1.3155  2.5001 -1.5381
  804TIP3    H223904   4.843   1.277  16.738  0.6891 -2.0141 -0.7286
  805TIP3   OH223905   0.725   4.469  16.571 -0.3047  0.1115  0.2357
  805TIP3    H123906   0.785   4.543  16.572 -2.0140  1.6074 -0.8472
  805TIP3    H223907   0.711   4.449  16.664  2.7773 -1.1686  0.5307
  806TIP3   OH223908   2.791   4.103   5.828  0.8094  1.0492 -0.5001
  806TIP3    H123909   2.771   4.056   5.909 -1.8755  2.5826 -0.1537
  806TIP3    H223910   2.866   4.159   5.850 -1.1428  3.0143  1.7102
  807TIP3   OH223911   3.828   2.280   5.188 -0.0501  0.2149 -0.3440
  807TIP3    H123912   3.757   2.262   5.250  1.1980 -0.9519  0.8195
  807TIP3    H223913   3.786   2.274   5.102 -1.4117 -0.1485  0.3050
  808TIP3   OH223914   0.435   3.964  16.053  0.3889  0.6160  0.2543
  808TIP3    H123915   0.344   3.938  16.044 -0.0177  2.6225 -2.4392
  808TIP3    H223916   0.436   4.019  16.132 -0.7650  0.6828  0.2419
  809TIP3   OH223917   0.538   2.858   2.938  0.2226 -0.0584  0.6065
  809TIP3    H123918   0.483   2.894   3.008 -0.5742  0.1089 -0.0849
  809TIP3    H223919   0.625   2.892   2.957 -0.0481  0.2707  1.3233
  810TIP3   OH223920   4.143   4.736  16.583  0.3333  0.1002 -0.3321
  810TIP3    H123921   4.202   4.668  16.550 -0.0112  0.7814 -2.5508
  810TIP3    H223922   4.200   4.806  16.613  0.7328  0.6621 -2.2590
  811TIP3   OH223923   5.983   3.463  15.287  0.3024  0.3636  0.0873
  811TIP3    H123924   6.030   3.403  15.345 -0.3596 -1.5272 -1.2126
  811TIP3    H223925   5.925   3.512  15.346  1.4344  0.3132  1.2933
  812TIP3   OH223926   1.113   4.742  11.425  0.0952 -0.1058  0.4466
  812TIP3    H123927   1.176   4.784  11.366  0.6992  2.7780  2.8860
  812TIP3    H223928   1.168   4.691  11.485  0.0473  1.1265  1.5910
  813TIP3   OH223929   2.458   0.868   3.405  0.1388 -0.0450  0.3544
  813TIP3    H123930   2.411   0.787   3.423  1.4708 -0.5639  1.6552
  813TIP3    H223931   2.476   0.906   3.491 -0.4302  1.6404 -0.2284
  814TIP3   OH223932   1.725   5.465   0.447 -0.1548  0.2090  0.0666
  814TIP3    H123933   1.788   5.416   0.394  0.2529  0.8992 -0.0956
  814TIP3    H223934   1.666   5.398   0.482 -0.1771 -0.3072 -0.9208
  815TIP3   OH223935   1.568   0.545   5.685 -0.0602 -0.3549 -0.0237
  815TIP3    H123936   1.472   0.544   5.688 -0.1795  0.0442 -2.3073
  815TIP3    H223937   1.594   0.503   5.767 -2.1549  0.4138  1.1119
  816TIP3   OH223938   6.814   5.521   4.827 -0.8202  0.6452 -0.8187
  816TIP3    H123939   6.788   5.595   4.883 -1.2076 -0.5419  0.6234
  816TIP3    H223940   6.900   5.496   4.861 -1.6039 -0.8864  0.1386
  817TIP3   OH223941   2.441   3.995  11.487  0.1528 -0.6776 -0.6073
  817TIP3    H123942   2.451   4.076  11.437  0.9786 -1.6292 -2.0601
  817TIP3    H223943   2.356   3.962  11.461 -0.6386  0.1939  0.7610
  818TIP3   OH223944   0.804   5.888  14.372  0.2733  0.4391 -0.2033
  818TIP3    H123945   0.723   5.922  14.334  0.4970 -0.4137 -1.4768
  818TIP3    H223946   0.784   5.797  14.395  0.5847  0.5091  0.3593
  819TIP3   OH223947   5.719   5.638  14.658 -0.4029  0.0966  0.1337
  819TIP3    H123948   5.667   5.674  14.587  0.3418  1.3168  0.1809
  819TIP3    H223949   5.799   5.691  14.659  2.7520 -4.0374 -2.4403
  820TIP3   OH223950   4.775   3.897  11.541 -0.4189 -0.1282  0.1360
  820TIP3    H123951   4.707   3.964  11.528 -2.3468 -2.0829 -0.3696
  820TIP3    H223952   4.749   3.825  11.484  0.2081 -2.3239  2.4433
  821TIP3   OH223953   5.479   0.025   2.772  0.5740  0.3658  1.1537
  821TIP3    H123954   5.503   0.093   2.834 -3.4868  3.5276 -0.2815
  821TIP3    H223955   5.411  -0.025   2.816  0.5675 -0.0381  0.6920
  822TIP3   OH223956   5.587   1.288   3.674 -0.1762  0.6809 -0.5364
  822TIP3    H123957   5.521   1.322   3.613  0.8734  0.8799 -1.6103
  822TIP3    H223958   5.599   1.197   3.649 -0.0003  0.6599 -0.3801
  823TIP3   OH223959   2.856   3.702   4.713  0.0553 -0.0031 -0.0157
  823TIP3    H123960   2.919   3.710   4.785  0.2182 -1.1671 -0.0145
  823TIP3    H223961   2.790   3.641   4.746 -0.0015 -0.3513 -0.7553
  824TIP3   OH223962   4.052   5.740  11.938  0.5168 -0.0132 -0.0294
  824TIP3    H123963   3.974   5.752  11.992  0.2461 -1.6994  0.0038
  824TIP3    H223964   4.052   5.647  11.915  1.0977  0.4716 -2.2427
  825TIP3   OH223965   6.578   1.825   1.739 -0.0779  0.2079  0.4619
  825TIP3    H123966   6.649   1.761   1.732 -0.8329 -0.7479  1.2032
  825TIP3    H223967   6.567   1.858   1.650 -1.2607 -2.5184 -0.5144
  826TIP3   OH223968   2.946   6.560   3.840  0.0348 -0.1813  0.1054
  826TIP3    H123969   2.975   6.511   3.763  0.3435 -0.5299  0.4383
  826TIP3    H223970   3.025   6.600   3.874 -0.1299  0.1132  0.1430
  827TIP3   OH223971   1.966   6.151   5.901 -0.3529  0.1381 -0.1567
  827TIP3    H123972   2.040   6.171   5.958 -0.2688  1.0047 -0.5690
  827TIP3    H223973   1.892   6.195   5.942 -0.3383  0.5642 -0.5826
  828TIP3   OH223974   1.235   4.165   4.805  0.3799  0.1183 -0.4552
  828TIP3    H123975   1.298   4.218   4.855 -0.7021  0.8676  0.1569
  828TIP3    H223976   1.207   4.222   4.734  0.8381 -0.4365 -1.0929
  829TIP3   OH223977   5.532   1.076  12.097 -0.3961 -0.6265  0.4482
  829TIP3    H123978   5.605   1.080  12.159 -0.5711 -2.9367  0.8668
  829TIP3    H223979   5.526   0.984  12.072 -0.8772  0.0611 -2.3836
  830TIP3   OH223980   2.468   3.509  13.468  0.0449  0.4136  0.1606
  830TIP3    H123981   2.512   3.577  13.418  0.9504 -0.8946 -0.9057
  830TIP3    H223982   2.464   3.434  13.408  0.9150 -1.1338  1.9086
  831TIP3   OH223983   1.319   4.110  16.039  0.5864  0.0898 -0.0217
  831TIP3    H123984   1.414   4.096  16.031  0.7312  0.6194  0.6531
  831TIP3    H223985   1.311   4.198  16.076 -0.1206 -0.4232  1.1048
  832TIP3   OH223986   6.742   2.179  15.136  0.4784 -0.1801  0.5205
  832TIP3    H123987   6.792   2.142  15.063  2.3008  0.2356  1.4851
  832TIP3    H223988   6.753   2.115  15.207 -1.9477 -0.9837  0.2489
  833TIP3   OH223989   3.492   2.616  11.997  0.3613  0.2277 -0.1336
  833TIP3    H123990   3.505   2.678  11.925 -1.8213  0.4683 -0.3717
  833TIP3    H223991   3.400   2.590  11.991  0.7295 -1.5802  1.1423
  834TIP3   OH223992   5.170   1.989  13.611  0.0997  0.3950 -0.0512
  834TIP3    H123993   5.263   1.977  13.590 -0.0626  0.0913 -0.6083
  834TIP3    H223994   5.168   2.070  13.662  0.4381  1.6770 -1.9361
  835TIP3   OH223995   2.460   1.938  12.526  0.2402 -0.7554  0.7497
  835TIP3    H123996   2.466   1.995  12.450  0.1170 -2.1728 -0.3609
  835TIP3    H223997   2.389   1.877  12.506  0.1496 -1.1144  2.0340
  836TIP3   OH223998   0.335   1.905  11.804  0.4802  0.4203 -0.7667
  836TIP3    H123999   0.308   1.820  11.772  1.9807  0.1081 -1.2697
  836TIP3    H224000   0.373   1.888  11.890  1.3757  0.4695 -1.1420
  837TIP3   OH224001   3.080   0.003   3.867  0.0509  0.5686  0.1740
  837TIP3    H124002   3.010   0.061   3.897 -0.2707  0.0197  0.5022
  837TIP3    H224003   3.106   0.039   3.782 -0.1735  1.1642  0.3528
  838TIP3   OH224004   5.259   6.123   2.396 -0.2086  0.9007 -0.6750
  838TIP3    H124005   5.178   6.174   2.392  0.4339  1.9788 -0.3040
  838TIP3    H224006   5.306   6.160   2.470  0.7811  0.5151 -1.1035
  839TIP3   OH224007   4.655   6.095   3.254  0.5538 -0.4105  0.0857
  839TIP3    H124008   4.691   6.044   3.181  1.9200 -1.0491  1.1646
  839TIP3    H224009   4.731   6.139   3.292 -0.3276  0.9225  0.3757
  840TIP3   OH224010   1.957   0.278  11.339 -0.2839  0.1199 -0.5758
  840TIP3    H124011   1.968   0.321  11.424  1.0015 -1.3912  0.0643
  840TIP3    H224012   2.044   0.278  11.300 -0.4879 -0.8703 -1.0640
  841TIP3   OH224013   5.459   4.944   2.910 -0.0909  0.0686 -0.0019
  841TIP3    H124014   5.554   4.941   2.902 -0.1865  1.2305 -2.8649
  841TIP3    H224015   5.442   5.022   2.963  0.5238 -0.6812  1.3442
  842TIP3   OH224016   2.875   2.079  15.782 -0.1302  0.3827 -0.1414
  842TIP3    H124017   2.799   2.131  15.755 -0.4380 -0.5367 -1.1421
  842TIP3    H224018   2.875   2.004  15.722  1.0033 -0.1409  0.4775
  843TIP3   OH224019   2.780   1.312  16.667 -0.2684 -0.4201  0.3198
  843TIP3    H124020   2.774   1.342  16.758  1.8641  2.3232 -0.2969
  843TIP3    H224021   2.718   1.367  16.620 -0.1966 -0.6999 -0.0998
  844TIP3   OH224022   5.404   6.306   1.465  0.0506 -0.3450 -0.2509
  844TIP3    H124023   5.456   6.387   1.463  0.4197 -0.5456  0.5939
  844TIP3    H224024   5.329   6.324   1.409  1.0882 -0.0869 -1.6124
  845TIP3   OH224025   3.513   4.763  15.820 -0.0520  0.2451 -0.3621
  845TIP3    H124026   3.474   4.830  15.875  1.8053  1.6515 -0.6530
  845TIP3    H224027   3.537   4.808  15.739  2.3392 -0.4162 -0.1056
  846TIP3   OH224028   1.278   5.748  12.715  0.4943  0.0501 -0.2025
  846TIP3    H124029   1.222   5.674  12.692  0.7285 -0.1112 -0.2556
  846TIP3    H224030   1.329   5.765  12.636 -1.1463  1.7302 -0.9796
  847TIP3   OH224031   0.045   1.552   4.477 -0.3606  0.2676 -0.1151
  847TIP3    H124032   0.081   1.638   4.502 -0.1525 -0.2559  1.4670
  847TIP3    H224033  -0.042   1.549   4.516  0.0872 -0.6968  0.8423
  848TIP3   OH224034   0.070   6.653   1.195  0.3142 -0.0130 -0.6456
  848TIP3    H124035   0.082   6.748   1.192  0.4264 -0.0526 -3.5879
  848TIP3    H224036   0.032   6.630   1.110  0.1665 -2.6077  0.0229
  849TIP3   OH224037   5.960   6.189  10.615  0.0890  0.2737 -0.3101
  849TIP3    H124038   5.907   6.237  10.678 -0.1267 -0.3392 -0.0207
  849TIP3    H224039   6.048   6.190  10.652 -0.1124 -0.4209  0.2049
  850TIP3   OH224040   0.626   3.583   3.196 -0.5887  0.2976  0.8848
  850TIP3    H124041   0.632   3.488   3.191  0.7580  0.3967 -0.0802
  850TIP3    H224042   0.587   3.609   3.113  1.5491  0.7099 -0.0527
  851TIP3   OH224043   6.495   1.542   1.337  0.5383  0.2032  0.3819
  851TIP3    H124044   6.579   1.509   1.305  0.2654  0.5674 -0.7854
  851TIP3    H224045   6.430   1.484   1.298  0.1448  1.1589 -0.4513
  852TIP3   OH224046   4.079   4.943   3.700 -0.3493 -0.0905  0.3104
  852TIP3    H124047   4.127   4.989   3.631 -1.0470  0.9109  0.4745
  852TIP3    H224048   4.131   4.958   3.779 -0.5036  0.3247  0.3382
  853TIP3   OH224049   0.180   6.458  14.924  0.4709  0.5682 -0.4242
  853TIP3    H124050   0.259   6.459  14.978  1.0508  0.9050 -1.2484
  853TIP3    H224051   0.193   6.384  14.864  0.3171  0.8187 -0.7729
  854TIP3   OH224052   5.862   3.025  13.867  0.2343  0.4520 -0.0257
  854TIP3    H124053   5.919   2.961  13.910  0.0467 -0.2135 -0.7395
  854TIP3    H224054   5.776   2.983  13.866  0.1367  0.6621 -0.6121
  855TIP3   OH224055   0.747   1.832  11.948 -0.3611  0.0247  0.1228
  855TIP3    H124056   0.673   1.774  11.926  1.0456 -1.5370 -0.8181
  855TIP3    H224057   0.745   1.899  11.880  0.8962 -1.8431 -1.8870
  856TIP3   OH224058   5.056   5.356   0.642 -0.0283  0.5586  1.1834
  856TIP3    H124059   5.066   5.310   0.559  0.3004  0.7310  1.1254
  856TIP3    H224060   5.087   5.293   0.708 -2.4081 -0.4520  1.4286
  857TIP3   OH224061   6.469   4.152   2.643  0.3484 -0.2883 -0.0939
  857TIP3    H124062   6.559   4.184   2.650  0.1501  0.3080 -0.1884
  857TIP3    H224063   6.415   4.226   2.671 -0.1543 -0.2886 -1.0123
  858TIP3   OH224064   3.955   0.234   3.021  0.0889 -0.4388 -0.0105
  858TIP3    H124065   3.941   0.143   3.046 -2.4782  0.0638  0.7410
  858TIP3    H224066   3.989   0.277   3.099 -0.9957 -0.3175  0.4156
  859TIP3   OH224067   5.702   1.435   5.470  0.4383  0.0093 -0.2184
  859TIP3    H124068   5.683   1.416   5.562 -1.7053  1.7918 -0.2009
  859TIP3    H224069   5.683   1.528   5.461  1.2216  0.0057 -2.3440
  860TIP3   OH224070   0.747   0.964  16.145 -0.2254 -0.0447  0.6181
  860TIP3    H124071   0.821   0.928  16.095  0.3300  1.1195  0.5622
  860TIP3    H224072   0.733   1.051  16.108 -2.5157 -0.7244 -0.2577
  861TIP3   OH224073   5.435   6.566   3.614 -0.9077  0.8146  0.0674
  861TIP3    H124074   5.363   6.626   3.597 -1.5519 -0.4898 -2.1275
  861TIP3    H224075   5.448   6.519   3.532  1.3010 -0.2230  0.9254
  862TIP3   OH224076   0.206   1.134   0.938  0.0591 -0.1072 -0.5996
  862TIP3    H124077   0.168   1.103   0.856 -2.9019  0.8650  0.2626
  862TIP3    H224078   0.186   1.064   1.001 -0.3586  0.4270 -0.1218
  863TIP3   OH224079   6.720   6.162   3.315  0.2626 -0.2827  0.2659
  863TIP3    H124080   6.770   6.120   3.385  4.0283 -1.1881 -2.6074
  863TIP3    H224081   6.737   6.256   3.326 -0.6716 -0.2525  1.5455
  864TIP3   OH224082   2.265   4.373   1.728  0.6327 -0.0498  0.0745
  864TIP3    H124083   2.248   4.378   1.634  2.6094 -0.2173 -0.3315
  864TIP3    H224084   2.360   4.361   1.734  0.4818 -0.4343  2.0844
  865TIP3   OH224085   1.295   2.248  15.878 -0.3648  0.0901 -0.4169
  865TIP3    H124086   1.356   2.174  15.871  0.9483  1.2316 -1.6922
  865TIP3    H224087   1.340   2.311  15.935 -0.6860  0.6198 -0.7410
  866TIP3   OH224088   6.728   1.324  13.036 -0.4807  0.2215 -0.0197
  866TIP3    H124089   6.791   1.336  13.107  1.2808  4.4555 -1.9604
  866TIP3    H224090   6.771   1.263  12.976  0.0435  0.0827  0.4904
  867TIP3   OH224091   0.553   5.146   5.255 -0.1409  0.0848  0.0952
  867TIP3    H124092   0.579   5.221   5.202 -0.8624  0.0603 -0.3027
  867TIP3    H224093   0.463   5.167   5.283  0.0896 -0.0801  0.9798
  868TIP3   OH224094   3.638   5.405  11.016 -0.0115 -0.5786  0.6469
  868TIP3    H124095   3.668   5.372  11.100  0.9441  0.2775  0.6599
  868TIP3    H224096   3.693   5.482  10.999 -0.6872 -0.3027 -0.4071
  869TIP3   OH224097   0.772   3.852  14.521  0.1538  0.6813  0.3598
  869TIP3    H124098   0.834   3.918  14.551  0.9525 -0.1234  0.5144
  869TIP3    H224099   0.686   3.892  14.534  0.6498  2.2714 -0.9281
  870TIP3   OH224100   6.536   3.538   0.106  0.3289 -0.0251 -0.3992
  870TIP3    H124101   6.515   3.458   0.057 -0.4887 -0.2647  0.3197
  870TIP3    H224102   6.628   3.556   0.084  0.2768 -0.6974 -1.2108
  871TIP3   OH224103   3.061   0.114  11.769  0.3169  0.0408 -0.2149
  871TIP3    H124104   3.031   0.131  11.858  0.5767  0.9771 -0.2909
  871TIP3    H224105   3.118   0.037  11.777 -0.4938 -0.5252  0.2425
  872TIP3   OH224106   4.193   6.445   3.263  0.0962 -0.3271 -0.1913
  872TIP3    H124107   4.137   6.487   3.328 -0.3937 -1.5683  0.2236
  872TIP3    H224108   4.256   6.394   3.315 -0.1322 -1.1236 -0.6788
  873TIP3   OH224109   3.587   4.043  13.410  0.5622  0.3389 -0.6748
  873TIP3    H124110   3.514   3.990  13.442  1.6515 -0.1580  1.1087
  873TIP3    H224111   3.578   4.127  13.454  1.2380  0.1496 -0.1421
  874TIP3   OH224112   4.454   0.599  13.580 -0.1624 -0.3497 -0.2388
  874TIP3    H124113   4.383   0.640  13.630  0.1314  0.2158 -0.2882
  874TIP3    H224114   4.425   0.508  13.569 -0.0358 -0.6180  1.3637
  875TIP3   OH224115   3.090   1.614  14.788  0.6272 -0.5638 -0.1389
  875TIP3    H124116   3.038   1.648  14.860 -0.3129 -0.5573 -0.8028
  875TIP3    H224117   3.029   1.609  14.714  1.8120  0.5358 -1.2658
  876TIP3   OH224118   2.655   0.559   3.360 -0.4307 -0.3255 -0.1964
  876TIP3    H124119   2.652   0.598   3.273 -1.5272 -2.3957 -1.1607
  876TIP3    H224120   2.564   0.555   3.388 -0.3753 -2.2180 -0.1870
  877TIP3   OH224121   6.217   1.697   0.508 -0.1989  0.2734 -0.2478
  877TIP3    H124122   6.145   1.696   0.445 -0.8666 -0.0494  0.5120
  877TIP3    H224123   6.199   1.772   0.564  0.1318  0.2698 -0.1302
  878TIP3   OH224124   1.844   2.411  11.987  0.0384 -0.1132  0.6911
  878TIP3    H124125   1.758   2.372  11.970  0.2026  0.4565 -1.9730
  878TIP3    H224126   1.906   2.347  11.952  0.6627 -0.0533  1.6532
  879TIP3   OH224127   3.520   2.260   1.148  0.4673  0.0125  0.0290
  879TIP3    H124128   3.545   2.337   1.097 -2.1609  0.1480 -1.2405
  879TIP3    H224129   3.566   2.270   1.232  1.0054  2.4141 -0.4853
  880TIP3   OH224130   1.653   3.954   3.722 -0.4668 -0.3996  0.3017
  880TIP3    H124131   1.584   4.019   3.732 -0.0801  0.8679 -3.6348
  880TIP3    H224132   1.618   3.875   3.763 -2.5273  1.2151  1.8862
  881TIP3   OH224133   3.040   6.534   0.688 -0.1119  0.1952 -0.1681
  881TIP3    H124134   2.979   6.497   0.752 -1.0665  0.7803 -0.7110
  881TIP3    H224135   3.035   6.628   0.700 -0.0519  0.2993 -0.8672
  882TIP3   OH224136   4.146   6.700  16.146  0.1839  0.3493 -0.2890
  882TIP3    H124137   4.138   6.795  16.153 -0.8268  0.3947 -1.7271
  882TIP3    H224138   4.212   6.686  16.078  0.6886 -0.0020  0.2598
  883TIP3   OH224139   4.933   2.513   2.119 -0.0155 -0.0780 -0.2236
  883TIP3    H124140   4.945   2.436   2.064 -2.0375 -0.2550 -0.4835
  883TIP3    H224141   4.840   2.533   2.113  0.0200  0.9472  1.7542
  884TIP3   OH224142   2.236   3.100  11.399  0.3027 -0.3733  0.1107
  884TIP3    H124143   2.300   3.028  11.400  0.8035  0.0637  0.3984
  884TIP3    H224144   2.178   3.081  11.472 -0.0671 -0.9138 -0.3096
  885TIP3   OH224145   3.044   4.442   6.379 -0.0656 -0.5427 -0.6098
  885TIP3    H124146   3.123   4.396   6.407 -0.3641 -1.2616 -0.9195
  885TIP3    H224147   2.983   4.372   6.354 -0.8222  0.0031 -0.3198
  886TIP3   OH224148   2.822   5.813   4.644  0.6619  0.2097  0.0280
  886TIP3    H124149   2.748   5.870   4.665  0.2085 -1.0016  1.8897
  886TIP3    H224150   2.867   5.859   4.573 -1.6028  1.2055 -0.8758
  887TIP3   OH224151   3.005   5.264  15.368 -0.6491 -0.1898  0.3370
  887TIP3    H124152   2.948   5.317  15.312 -0.7538 -2.7225 -2.1374
  887TIP3    H224153   3.093   5.300  15.354 -0.5737 -1.1414 -2.0816
  888TIP3   OH224154   0.958   5.977   3.870 -0.3803  0.2103 -0.2734
  888TIP3    H124155   1.000   5.961   3.786  0.1470  1.0097 -0.1797
  888TIP3    H224156   1.029   6.008   3.927 -0.8978  0.5652  0.1967
  889TIP3   OH224157   2.620   2.944   0.365 -0.2884 -0.0227  0.2167
  889TIP3    H124158   2.681   2.987   0.305  0.4861 -0.4640  0.6617
  889TIP3    H224159   2.653   2.968   0.452 -1.2949  0.4752  0.4688
  890TIP3   OH224160   3.458   6.217  13.277 -0.5950 -0.2858  0.1907
  890TIP3    H124161   3.376   6.213  13.325 -0.6943  1.0574  0.1743
  890TIP3    H224162   3.436   6.260  13.194 -0.1537 -1.2706 -0.4567
  891TIP3   OH224163   1.137   6.435   6.291  0.3569  0.2088  0.6071
  891TIP3    H124164   1.088   6.510   6.324 -0.0233 -0.3787  1.4011
  891TIP3    H224165   1.214   6.429   6.347  0.4485  0.0739  0.4713
  892TIP3   OH224166   3.093   6.166   3.347 -0.0583 -0.5905 -0.3113
  892TIP3    H124167   3.015   6.157   3.402 -0.7442  1.4157 -0.8714
  892TIP3    H224168   3.059   6.194   3.262  1.2302 -0.2891 -0.7517
  893TIP3   OH224169   4.177   0.427   2.043 -0.3575  0.5928 -0.6097
  893TIP3    H124170   4.254   0.440   2.098 -0.4390 -0.2790 -0.2692
  893TIP3    H224171   4.130   0.510   2.048  0.5962  1.1612 -0.8887
  894TIP3   OH224172   6.223   5.090  13.160  0.3081  0.5187  0.1137
  894TIP3    H124173   6.168   5.012  13.151 -1.2900  1.5007  0.9351
  894TIP3    H224174   6.297   5.061  13.214 -0.6597 -0.2516  1.0783
  895TIP3   OH224175   6.287   1.647  16.711 -0.0089 -0.3526  0.2218
  895TIP3    H124176   6.338   1.728  16.700 -2.4115  1.3731  1.0476
  895TIP3    H224177   6.286   1.607  16.624  0.0734  1.2520 -0.5458
  896TIP3   OH224178   5.932   0.567  16.778 -0.6299 -0.4677 -0.0025
  896TIP3    H124179   5.863   0.553  16.714 -0.8385 -1.1073  0.3568
  896TIP3    H224180   5.928   0.660  16.798 -0.6530 -0.2887 -0.8137
  897TIP3   OH224181   2.955   3.921   0.342 -0.5011  0.1391 -0.1905
  897TIP3    H124182   3.028   3.982   0.350  0.3636 -0.7470 -1.0097
  897TIP3    H224183   2.893   3.964   0.284 -0.8475  1.0746  0.8323
  898TIP3   OH224184   3.461   6.283  15.225  0.2713 -0.1647 -0.1454
  898TIP3    H124185   3.376   6.241  15.216  0.6296 -0.8472 -0.4023
  898TIP3    H224186   3.486   6.269  15.316 -0.5307  1.2948  0.3262
  899TIP3   OH224187   6.133   4.380   5.541 -0.4699 -0.3252 -0.5195
  899TIP3    H124188   6.215   4.334   5.518  0.4268  0.9851 -0.0565
  899TIP3    H224189   6.143   4.466   5.502 -0.0431  1.0864  2.4181
  900TIP3   OH224190   0.938   5.746  11.936 -0.4542  0.1581 -0.7340
  900TIP3    H124191   0.900   5.780  11.855  2.1083  1.4339 -1.5013
  900TIP3    H224192   1.032   5.762  11.927  0.2558 -2.2444  1.2909
  901TIP3   OH224193   6.714   1.968   2.158  0.1894  0.3891 -0.3271
  901TIP3    H124194   6.672   1.894   2.113 -1.4752 -0.1001  1.8411
  901TIP3    H224195   6.755   1.928   2.235 -0.8068  1.6737  0.9280
  902TIP3   OH224196   4.606   0.447  14.895 -0.1860  0.3043 -0.4075
  902TIP3    H124197   4.676   0.501  14.859 -1.3395  1.7633 -0.5748
  902TIP3    H224198   4.578   0.493  14.974 -2.1543  0.8022 -1.3256
  903TIP3   OH224199   3.162   2.414   2.127  0.0759  0.2886  0.1729
  903TIP3    H124200   3.177   2.473   2.054  0.0379 -0.2200 -0.2559
  903TIP3    H224201   3.204   2.457   2.202  1.3706  0.1564 -0.4393
  904TIP3   OH224202   3.322   5.027  14.674 -0.2872  0.7012 -0.2955
  904TIP3    H124203   3.387   4.994  14.736 -0.9797  0.7780  0.4780
  904TIP3    H224204   3.256   5.069  14.728 -0.9206  0.7464 -1.0874
  905TIP3   OH224205   0.236   5.682   2.900 -0.2031  0.1155 -0.0185
  905TIP3    H124206   0.145   5.663   2.923  0.3738 -2.5077  0.4857
  905TIP3    H224207   0.278   5.704   2.983  0.2159 -1.7160  0.3080
  906TIP3   OH224208   1.484   5.417  12.827 -0.3442  0.3395 -0.1485
  906TIP3    H124209   1.487   5.463  12.911  0.2402 -1.3044  0.7693
  906TIP3    H224210   1.574   5.417  12.795 -0.3228 -0.2064 -0.1037
  907TIP3   OH224211   5.355   2.837  14.097 -0.5428  0.3526 -0.1819
  907TIP3    H124212   5.354   2.847  14.002  1.3367  1.2554 -0.1692
  907TIP3    H224213   5.273   2.792  14.118 -1.6308  1.3132 -2.0821
  908TIP3   OH224214   6.032   4.470   3.453  0.0996 -0.1559 -0.2723
  908TIP3    H124215   6.103   4.528   3.426  1.2302 -0.7536  1.2507
  908TIP3    H224216   5.955   4.526   3.454  0.5156  0.5253 -1.9274
  909TIP3   OH224217   1.148   2.358   5.656 -1.3504 -0.3040  0.1805
  909TIP3    H124218   1.056   2.333   5.647 -1.0943 -1.1245 -0.2244
  909TIP3    H224219   1.196   2.295   5.601 -0.4138 -0.8112  1.5271
  910TIP3   OH224220   5.595   5.657   3.647 -0.1568 -0.3657 -0.2271
  910TIP3    H124221   5.521   5.699   3.603  0.4442 -2.0621 -3.0981
  910TIP3    H224222   5.663   5.724   3.648 -0.3429 -0.1416 -1.5008
  911TIP3   OH224223   4.987   3.588   6.415 -0.5914 -0.1040 -0.3050
  911TIP3    H124224   4.976   3.507   6.464  0.5702  0.2107  0.5066
  911TIP3    H224225   4.987   3.562   6.324  2.0428 -1.3518 -0.0247
  912TIP3   OH224226   0.848   0.933  12.076 -0.4261 -0.5180  0.5383
  912TIP3    H124227   0.937   0.898  12.081 -0.7374 -1.2093  2.4116
  912TIP3    H224228   0.796   0.875  12.132 -1.7506  0.7585  0.7194
  913TIP3   OH224229   3.724   2.537  12.821 -0.1503  0.2424 -0.5130
  913TIP3    H124230   3.729   2.584  12.904  0.0310 -0.6096 -0.0234
  913TIP3    H224231   3.632   2.509  12.815 -0.1357  0.1976 -0.5321
  914TIP3   OH224232   2.383   5.202   3.984 -0.1905 -0.0113  0.7460
  914TIP3    H124233   2.349   5.218   3.896  2.6258 -1.2171 -0.6691
  914TIP3    H224234   2.388   5.107   3.991  0.4155  0.0877  1.8843
  915TIP3   OH224235   6.706   0.782  11.145 -0.5821 -0.3791 -0.2938
  915TIP3    H124236   6.690   0.823  11.060  0.6221 -1.1470 -0.9167
  915TIP3    H224237   6.646   0.708  11.148 -0.2049 -0.7090 -0.7534
  916TIP3   OH224238   6.058   6.131   3.714 -0.1589  0.4117  0.2084
  916TIP3    H124239   6.014   6.169   3.638  0.0740 -1.4619 -0.9032
  916TIP3    H224240   6.027   6.184   3.788 -1.2981  1.5358 -1.0266
  917TIP3   OH224241   4.073   5.998   5.324 -0.2147  0.0782 -0.0682
  917TIP3    H124242   3.980   6.012   5.341 -0.7328 -0.7257 -1.9950
  917TIP3    H224243   4.077   5.967   5.234  2.2174  3.3753 -1.3049
  918TIP3   OH224244   0.498   5.093   3.542 -0.1671  0.1767  0.1963
  918TIP3    H124245   0.475   5.007   3.577 -0.6855  0.1914 -0.0875
  918TIP3    H224246   0.414   5.134   3.525  0.0816  0.5548 -0.1213
  919TIP3   OH224247   0.124   3.908   1.679  0.1324 -0.1665  0.1094
  919TIP3    H124248   0.144   3.982   1.621  2.2953 -0.2445  0.6819
  919TIP3    H224249   0.168   3.833   1.639 -2.7556 -1.4426 -0.9406
  920TIP3   OH224250   2.830   2.396   4.912  0.5081  0.8423 -0.7288
  920TIP3    H124251   2.746   2.374   4.953  1.1088 -0.7816 -0.2972
  920TIP3    H224252   2.807   2.459   4.844 -1.2169 -0.3094 -1.2925
  921TIP3   OH224253   0.983   1.773   0.193 -0.4627 -0.0151 -0.6364
  921TIP3    H124254   0.975   1.695   0.137  0.4051 -0.3344 -0.3416
  921TIP3    H224255   0.919   1.834   0.158 -1.2318 -0.9002 -0.8144
  922TIP3   OH224256   4.601   4.832  16.789 -0.4078  0.1305  0.3491
  922TIP3    H124257   4.583   4.889  16.714  0.4571 -0.4678 -0.3350
  922TIP3    H224258   4.656   4.763  16.753 -0.3796 -0.4317  1.4458
  923TIP3   OH224259   3.161   0.510  16.427 -0.1970  0.3798  0.2565
  923TIP3    H124260   3.194   0.480  16.512 -2.3400 -1.6460  0.4791
  923TIP3    H224261   3.182   0.604  16.425  1.1223  0.2089  2.3870
  924TIP3   OH224262   1.299   1.600  15.957 -0.2252 -0.5516 -0.1014
  924TIP3    H124263   1.237   1.596  15.883 -0.1606 -0.6141 -0.1527
  924TIP3    H224264   1.271   1.676  16.007  0.0937 -0.1594 -0.5140
  925TIP3   OH224265   1.078   6.092   2.759 -0.2518  0.4298 -0.4118
  925TIP3    H124266   1.112   6.039   2.831 -0.3681 -0.6455 -1.1398
  925TIP3    H224267   1.135   6.169   2.758 -1.7384  1.7171  2.3915
  926TIP3   OH224268   1.628   1.054   2.668  0.5254 -0.0414  0.1548
  926TIP3    H124269   1.561   1.022   2.730  0.3154  1.6129  0.8324
  926TIP3    H224270   1.702   1.077   2.724  0.9958 -0.1656 -0.4154
  927TIP3   OH224271   2.832   4.614   1.519 -0.3105 -0.4657 -0.6665
  927TIP3    H124272   2.738   4.622   1.536 -0.1437 -0.7867  0.4797
  927TIP3    H224273   2.839   4.536   1.464 -0.5398 -1.8675  1.1917
  928TIP3   OH224274   0.528   6.131  16.021  0.2586 -0.9154  0.0597
  928TIP3    H124275   0.462   6.088  16.075 -1.2843  0.6152 -0.4903
  928TIP3    H224276   0.612   6.103  16.057 -0.7035 -1.4307  2.0082
  929TIP3   OH224277   6.061   1.328   0.234  0.0913  0.2291  0.2816
  929TIP3    H124278   6.135   1.375   0.272  0.5272 -1.9400  2.3344
  929TIP3    H224279   6.086   1.313   0.143  2.0907 -0.2212  0.8520
  930TIP3   OH224280   0.014   2.706  14.722  0.2548 -0.0422 -0.3799
  930TIP3    H124281  -0.009   2.618  14.693  2.3266 -0.7711  0.0277
  930TIP3    H224282   0.048   2.749  14.644  2.7945 -0.9191  0.1776
  931TIP3   OH224283   3.107   2.749   0.263  0.3344 -0.4706  0.2969
  931TIP3    H124284   3.117   2.835   0.304  1.0136 -0.3281 -0.1522
  931TIP3    H224285   3.122   2.687   0.334 -0.1187 -0.2285  0.6144
  932TIP3   OH224286   3.220   1.914   3.386 -0.1911  0.1686  0.2944
  932TIP3    H124287   3.271   1.834   3.394  0.2931  0.3469 -0.7512
  932TIP3    H224288   3.245   1.967   3.462  3.3404  1.4017 -1.4864
  933TIP3   OH224289   2.404   1.968   0.864 -0.3037 -0.0513  0.2671
  933TIP3    H124290   2.324   1.931   0.825 -0.2701  0.6332 -0.4676
  933TIP3    H224291   2.394   1.950   0.958 -0.4894 -1.5331 -0.0002
  934TIP3   OH224292   6.287   6.551   1.508  0.2940  0.6695 -0.5857
  934TIP3    H124293   6.309   6.564   1.415  2.4878 -0.7118 -0.3199
  934TIP3    H224294   6.371   6.532   1.550 -1.1262 -3.5144  0.8495
  935TIP3   OH224295   0.944   3.610   0.075  0.1967  0.3439 -0.4963
  935TIP3    H124296   0.970   3.524   0.108 -0.2051  0.2115 -0.5181
  935TIP3    H224297   0.863   3.630   0.122  0.9292  1.2711  0.4336
  936TIP3   OH224298   3.535   6.006   4.337 -0.2618  0.0931 -0.4168
  936TIP3    H124299   3.532   5.938   4.405  0.4043 -0.0974 -0.5723
  936TIP3    H224300   3.452   5.997   4.291 -0.0350 -0.8452 -0.6517
  937TIP3   OH224301   6.486   4.370  16.804 -0.5061 -0.3780  0.1047
  937TIP3    H124302   6.568   4.338  16.843 -0.4076 -0.5782 -0.2630
  937TIP3    H224303   6.427   4.295  16.807 -1.3716  0.3231  2.2475
  938TIP3   OH224304   4.850   5.106  12.835  0.4144 -0.1210  0.2308
  938TIP3    H124305   4.914   5.103  12.906  0.6363 -0.7464  0.0118
  938TIP3    H224306   4.848   5.016  12.802 -0.2535 -0.0020 -0.0503
  939TIP3   OH224307   3.664   3.577   4.935 -0.6895  0.2089 -0.3168
  939TIP3    H124308   3.643   3.643   5.001  0.3651  1.1169 -0.8573
  939TIP3    H224309   3.622   3.609   4.855 -0.1661  0.2316 -0.5838
  940TIP3   OH224310   3.900   4.020   5.792 -0.1716 -0.6268 -0.8452
  940TIP3    H124311   3.863   4.006   5.706 -0.5691  0.1325 -0.8101
  940TIP3    H224312   3.969   3.954   5.801 -0.6048 -1.1584 -1.4545
  941TIP3   OH224313   1.531   5.688  13.640  0.1296 -0.5241  0.7717
  941TIP3    H124314   1.527   5.596  13.668 -0.3970 -1.1507 -1.1510
  941TIP3    H224315   1.566   5.683  13.551  0.4394  1.1936  0.7682
  942TIP3   OH224316   5.743   2.269   4.573  0.6706  0.5962  0.1011
  942TIP3    H124317   5.827   2.259   4.528  0.9432  1.1171  0.4750
  942TIP3    H224318   5.763   2.323   4.650 -0.0705  1.0586 -0.0128
  943TIP3   OH224319   5.493   4.388   3.883  0.0564 -0.1314 -0.0598
  943TIP3    H124320   5.469   4.295   3.889  1.0870 -0.6086 -2.2102
  943TIP3    H224321   5.411   4.433   3.866 -0.0533 -1.1716 -2.8232
  944TIP3   OH224322   3.591   3.660   3.168  0.2542  0.4928 -0.1454
  944TIP3    H124323   3.616   3.576   3.130  0.0067  0.5637 -0.4735
  944TIP3    H224324   3.597   3.722   3.096 -1.0226  0.4794 -0.2990
  945TIP3   OH224325   3.720   3.067  14.763  0.2476 -0.3101 -0.3628
  945TIP3    H124326   3.726   2.980  14.723 -0.3479 -0.4243 -0.2118
  945TIP3    H224327   3.728   3.128  14.690 -1.8321 -0.5270 -0.8101
  946TIP3   OH224328   1.264   3.792  13.860 -0.0904  0.6948  0.2370
  946TIP3    H124329   1.260   3.830  13.947  0.4208 -1.4405  1.2667
  946TIP3    H224330   1.347   3.822  13.824 -0.2006  1.4111  0.5779
  947TIP3   OH224331   3.692   5.849  14.862 -0.6652 -0.0359 -0.2320
  947TIP3    H124332   3.711   5.775  14.920  0.8220 -0.4097 -1.1583
  947TIP3    H224333   3.730   5.924  14.906  0.3293 -0.2957 -0.6256
  948TIP3   OH224334   6.420   5.433   2.501 -0.2623  0.7201 -0.4923
  948TIP3    H124335   6.436   5.421   2.595  2.0170  0.4929 -0.8469
  948TIP3    H224336   6.479   5.371   2.458 -0.1583  1.8520 -2.1012
  949TIP3   OH224337   2.622   0.942  11.833 -0.3505  0.7659 -0.5271
  949TIP3    H124338   2.613   0.915  11.924  0.7926 -1.0097 -0.8823
  949TIP3    H224339   2.613   0.861  11.783  0.4644  1.4799 -1.8897
  950TIP3   OH224340   1.090   0.897   1.638  0.1396  0.1469  0.3526
  950TIP3    H124341   1.105   0.910   1.731 -0.2588  0.4516  0.3753
  950TIP3    H224342   1.158   0.834   1.611  0.7607  0.6671  0.6728
  951TIP3   OH224343   6.776   1.803   1.526  0.1751 -0.3019  0.5698
  951TIP3    H124344   6.848   1.770   1.580  1.5559  1.1381 -0.3080
  951TIP3    H224345   6.774   1.744   1.451 -1.0654 -1.6776  1.6291
  952TIP3   OH224346   3.668   1.689  12.407 -0.1222 -0.3655  0.0830
  952TIP3    H124347   3.611   1.693  12.330 -1.3467 -1.7251  0.8540
  952TIP3    H224348   3.638   1.760  12.464  1.8005  1.6628 -1.2574
  953TIP3   OH224349   1.553   3.684  15.264  0.1677  0.2426 -0.5906
  953TIP3    H124350   1.642   3.664  15.295 -0.1287  1.2043  0.9794
  953TIP3    H224351   1.567   3.748  15.194  0.7401  0.0825 -0.6316
  954TIP3   OH224352   6.769   0.222  13.873  0.6063  0.2042  0.0053
  954TIP3    H124353   6.705   0.168  13.826  0.5340  0.1903  0.1178
  954TIP3    H224354   6.854   0.193  13.841  0.5583  0.1805 -0.1008
  955TIP3   OH224355   4.427   1.084   2.896 -0.0555  0.3470 -0.0154
  955TIP3    H124356   4.489   1.100   2.825  0.9164  0.5140  0.8445
  955TIP3    H224357   4.345   1.062   2.852  1.1422 -2.1043 -1.1991
  956TIP3   OH224358   4.692   4.053  16.197  0.3885  0.4596 -0.0251
  956TIP3    H124359   4.682   3.962  16.226 -0.0885  0.7188  0.6585
  956TIP3    H224360   4.618   4.068  16.139  0.5658  0.3621 -0.2786
  957TIP3   OH224361   0.709   1.018  17.226  0.5258  0.1128  0.7188
  957TIP3    H124362   0.636   0.982  17.276 -0.0963  0.4049  0.0365
  957TIP3    H224363   0.727   0.952  17.159  0.1866  0.5055  0.2300
  958TIP3   OH224364   0.890   6.276  10.981 -0.1289 -0.4725 -0.2601
  958TIP3    H124365   0.832   6.285  10.905 -0.6624  2.0905  0.3686
  958TIP3    H224366   0.847   6.210  11.035 -2.3292  1.0363 -0.0149
  959TIP3   OH224367   1.087   1.039  11.917 -0.4139  0.1387  0.1176
  959TIP3    H124368   1.114   0.961  11.868  1.3603  0.3205  0.7029
  959TIP3    H224369   1.030   1.087  11.857  0.4636 -0.4006 -1.2039
  960TIP3   OH224370   3.147   2.488  12.764  0.7504  0.3026 -0.1152
  960TIP3    H124371   3.081   2.541  12.809  0.0354  1.2902 -2.1832
  960TIP3    H224372   3.096   2.424  12.714  1.4365  0.1524 -0.6318
  961TIP3   OH224373   3.329   4.651  15.136 -0.1068 -0.1275 -0.0684
  961TIP3    H124374   3.271   4.674  15.064  0.4238  1.8061  0.0710
  961TIP3    H224375   3.295   4.700  15.211 -0.3871 -1.7606  0.9325
  962TIP3   OH224376   3.729   1.319   4.382 -0.1763  0.1724 -0.0026
  962TIP3    H124377   3.723   1.410   4.411  0.1272  0.2177 -0.0814
  962TIP3    H224378   3.638   1.294   4.362 -0.4002  0.1276  1.0097
  963TIP3   OH224379   0.815   2.598  13.709  0.7041 -0.4381  0.0646
  963TIP3    H124380   0.880   2.656  13.669  0.0932  0.4196  0.2779
  963TIP3    H224381   0.794   2.640  13.793 -0.5548 -0.3709 -0.2586
  964TIP3   OH224382   0.926   3.524   3.413  0.1319 -0.2112 -0.1626
  964TIP3    H124383   0.992   3.592   3.432 -1.8673  1.8597 -0.1193
  964TIP3    H224384   0.969   3.465   3.352  1.4853  2.0790 -1.5852
  965TIP3   OH224385   4.098   5.650   0.230 -0.7406 -0.3049  0.5520
  965TIP3    H124386   4.176   5.693   0.196 -0.5091 -1.9437 -1.1321
  965TIP3    H224387   4.026   5.710   0.209 -0.1411  0.4932  0.7331
  966TIP3   OH224388   0.006   6.040  12.136  0.1172 -0.3695  0.1802
  966TIP3    H124389   0.079   6.094  12.107 -0.2715  0.2586  0.3374
  966TIP3    H224390  -0.014   5.984  12.062 -0.1637  0.4548 -0.3866
  967TIP3   OH224391   1.397   4.090  12.854  0.2723 -0.2543 -0.0866
  967TIP3    H124392   1.460   4.161  12.844  0.9970 -0.7536  0.7698
  967TIP3    H224393   1.335   4.121  12.919 -0.4617  0.2852 -1.0170
  968TIP3   OH224394   6.336   4.434   0.048 -0.1109 -0.7711  0.1842
  968TIP3    H124395   6.398   4.362   0.056  1.0048  0.2796  1.6524
  968TIP3    H224396   6.390   4.513   0.060 -1.4808  0.2375 -0.1090
  969TIP3   OH224397   6.030   5.848   0.891  0.2573  0.2228 -0.0125
  969TIP3    H124398   6.088   5.922   0.874  1.7203 -0.6732  0.8853
  969TIP3    H224399   6.030   5.798   0.809  0.8760  0.1599  0.0216
  970TIP3   OH224400   1.422   1.650   0.147  0.1407 -0.6627 -1.0677
  970TIP3    H124401   1.419   1.556   0.163  1.1321 -0.6046 -0.3819
  970TIP3    H224402   1.516   1.670   0.139  0.0585  0.4681  0.2809
  971TIP3   OH224403   1.283   1.362  17.056 -0.3054 -0.3745  0.3983
  971TIP3    H124404   1.201   1.331  17.019 -1.0127  0.9264  0.7962
  971TIP3    H224405   1.301   1.304  17.130 -0.5466 -1.0239 -0.0444
  972TIP3   OH224406   0.845   4.759  15.766  0.5061  0.1769 -0.1957
  972TIP3    H124407   0.828   4.853  15.762 -0.0509  0.0474 -1.1038
  972TIP3    H224408   0.764   4.722  15.801  0.7786  0.0415  0.2998
  973TIP3   OH224409   2.435   3.052  13.496 -0.0195 -0.8277  0.0620
  973TIP3    H124410   2.461   3.050  13.588 -0.3742 -2.1164  0.1605
  973TIP3    H224411   2.513   3.079  13.449  0.6117 -1.6329  0.6190
  974TIP3   OH224412   3.933   2.860  12.891  0.2577 -0.2275 -0.7610
  974TIP3    H124413   3.847   2.867  12.933  0.2075 -0.3038 -0.8509
  974TIP3    H224414   3.980   2.938  12.920  0.3674 -0.4782 -0.2409
  975TIP3   OH224415   0.589   2.751  13.023  0.0620  0.4870 -0.2149
  975TIP3    H124416   0.649   2.682  12.995  1.0111  0.4470  1.7940
  975TIP3    H224417   0.529   2.761  12.949  0.4677 -1.8102 -0.9404
  976TIP3   OH224418   4.033   2.585   5.798  0.0770  0.1529 -0.2159
  976TIP3    H124419   4.034   2.537   5.881  0.0936  0.0223 -0.2917
  976TIP3    H224420   4.097   2.540   5.743 -1.4051 -1.0767 -1.0317
  977TIP3   OH224421   3.788   0.887   6.079  0.3477 -0.6905  0.3309
  977TIP3    H124422   3.792   0.958   6.143 -0.4056 -0.2692 -0.0732
  977TIP3    H224423   3.875   0.846   6.082  1.2446  1.0682 -0.3407
  978TIP3   OH224424   4.772   3.347   1.526 -0.3056 -0.5692 -0.2728
  978TIP3    H124425   4.686   3.319   1.496 -0.1228 -0.9779 -0.4072
  978TIP3    H224426   4.816   3.267   1.552  0.0668 -0.3673 -0.2789
  979TIP3   OH224427   3.037   0.383  15.487  0.3452 -0.0320  0.2836
  979TIP3    H124428   2.962   0.442  15.492 -0.3098 -0.8629  0.6602
  979TIP3    H224429   3.000   0.297  15.509  0.8296 -0.9862 -2.3560
  980TIP3   OH224430   5.492   1.361   3.947 -0.5234 -0.4283  0.0058
  980TIP3    H124431   5.561   1.376   4.011 -1.3199 -0.9743  1.0242
  980TIP3    H224432   5.538   1.322   3.872  0.6376  1.5521 -0.3726
  981TIP3   OH224433   6.491   5.797  13.709  0.3889 -0.8412  0.3517
  981TIP3    H124434   6.577   5.814  13.748 -0.1676 -1.5576  2.0211
  981TIP3    H224435   6.497   5.707  13.678  0.7385 -0.3607 -1.0222
  982TIP3   OH224436   5.763   6.528   2.243  0.3950  0.0045 -0.4015
  982TIP3    H124437   5.746   6.567   2.329 -0.3155  1.0271 -0.9727
  982TIP3    H224438   5.687   6.473   2.226  0.2154  0.3300 -0.6579
  983TIP3   OH224439   5.170   3.051  14.733  0.3036  0.4107 -0.9270
  983TIP3    H124440   5.232   3.086  14.797  0.3720 -1.3279  0.0244
  983TIP3    H224441   5.096   3.112  14.736  0.3812  0.4721  0.7111
  984TIP3   OH224442   6.600   2.515   1.540  0.2286  0.0972  0.0399
  984TIP3    H124443   6.588   2.603   1.577  2.3984  0.3831  0.1755
  984TIP3    H224444   6.522   2.500   1.486 -1.3936  1.0613  1.9935
  985TIP3   OH224445   0.461   4.162  16.245 -0.4504  0.2870 -0.0983
  985TIP3    H124446   0.367   4.169  16.227 -0.4534  0.3752 -0.0446
  985TIP3    H224447   0.482   4.239  16.297 -0.2670  0.4794 -0.4487
  986TIP3   OH224448   0.840   2.178   2.903 -0.0915  0.4674  0.5448
  986TIP3    H124449   0.891   2.142   2.831  0.9878  1.3457  0.8420
  986TIP3    H224450   0.750   2.182   2.869  0.0220 -1.0272 -0.0056
  987TIP3   OH224451   5.278   5.075   2.674  0.5762  0.4680 -0.1860
  987TIP3    H124452   5.305   4.986   2.696  0.4454  0.0554 -1.5926
  987TIP3    H224453   5.334   5.099   2.600 -1.0677  0.5899 -1.4337
  988TIP3   OH224454   3.834   4.965   4.489  0.0292 -1.3980  0.7679
  988TIP3    H124455   3.814   4.963   4.395 -0.2354  0.8317  0.7165
  988TIP3    H224456   3.929   4.955   4.493  0.3022  0.4672  0.0612
  989TIP3   OH224457   4.643   3.951   5.783  0.2789  0.2155  0.4889
  989TIP3    H124458   4.693   3.884   5.735 -0.1324  0.4456 -0.2870
  989TIP3    H224459   4.574   3.902   5.828 -0.6484  0.1978 -0.8966
  990TIP3   OH224460   3.522   6.322   5.309  0.1727 -0.3606  0.0171
  990TIP3    H124461   3.501   6.406   5.267  0.0710  0.5368  1.7525
  990TIP3    H224462   3.616   6.326   5.326  0.4623 -1.2787 -1.2597
  991TIP3   OH224463   6.765   1.863   5.413 -0.3189  0.2729 -0.4956
  991TIP3    H124464   6.848   1.861   5.366 -1.0217  0.7844 -1.8134
  991TIP3    H224465   6.728   1.949   5.393 -1.8643 -0.5230 -1.2271
  992TIP3   OH224466   4.328   1.152   5.612 -0.0241 -0.1850  0.5866
  992TIP3    H124467   4.309   1.092   5.540 -2.2140 -0.4238  1.2722
  992TIP3    H224468   4.423   1.153   5.619  0.2326 -0.5219 -1.9680
  993TIP3   OH224469   6.358   3.396   0.368  0.5160 -0.1463 -0.1823
  993TIP3    H124470   6.422   3.407   0.298  0.7040 -0.4018 -0.0509
  993TIP3    H224471   6.332   3.304   0.363  0.2455 -0.0738 -0.1594
  994TIP3   OH224472   0.743   5.009   4.164  0.0122  0.1396 -0.3737
  994TIP3    H124473   0.730   5.074   4.233  0.5788 -0.6143  0.4785
  994TIP3    H224474   0.663   5.011   4.112 -0.4563  0.6759  0.3578
  995TIP3   OH224475   0.600   5.130  11.826 -0.5101 -0.6672  0.2228
  995TIP3    H124476   0.649   5.052  11.801 -2.0554 -1.3680 -0.7303
  995TIP3    H224477   0.520   5.126  11.775 -0.0619  2.2841 -0.9547
  996TIP3   OH224478   6.171   0.243  15.243 -0.0499 -0.1277 -0.6744
  996TIP3    H124479   6.266   0.243  15.255  0.1258  0.4272 -1.9400
  996TIP3    H224480   6.153   0.169  15.186 -0.1010  0.9815 -2.1714
  997TIP3   OH224481   0.686   4.072  15.447  0.1372  0.1799 -0.1786
  997TIP3    H124482   0.744   4.066  15.371  1.6487  1.2009  0.8340
  997TIP3    H224483   0.744   4.067  15.523 -1.4268 -1.9946  0.9898
  998TIP3   OH224484   2.705   0.134   0.099  0.3264 -0.0071 -0.5886
  998TIP3    H124485   2.758   0.199   0.143 -1.1218  0.1118  1.1111
  998TIP3    H224486   2.671   0.179   0.022  1.9246  0.1780 -1.2229
  999TIP3   OH224487   5.880   2.101   2.689  0.1651 -0.1293 -0.0173
  999TIP3    H124488   5.968   2.071   2.665  0.2405  0.1044 -0.0413
  999TIP3    H224489   5.895   2.185   2.733 -0.1530  0.7479 -1.4976
 1000TIP3   OH224490   4.536   2.106  14.623  0.2232 -1.0878 -0.2146
 1000TIP3    H124491   4.498   2.043  14.562  0.4328 -0.5524 -0.9237
 1000TIP3    H224492   4.461   2.148  14.665  0.0561 -0.9641 -0.6325
 1001TIP3   OH224493   3.601   4.218  14.745  0.2122 -0.5684 -0.2657
 1001TIP3    H124494   3.686   4.222  14.789 -0.4364  0.3826  0.9730
 1001TIP3    H224495   3.550   4.288  14.785 -0.8847 -0.5695 -1.5935
 1002TIP3   OH224496   1.568   2.789   4.090  0.2329 -0.3281  0.0135
 1002TIP3    H124497   1.488   2.739   4.103 -0.3526 -0.0267 -2.1119
 1002TIP3    H224498   1.620   2.736   4.030  1.6048 -0.4413  1.2242
 1003TIP3   OH224499   6.044   4.614  13.339 -0.5966 -0.3740 -0.7319
 1003TIP3    H124500   5.967   4.564  13.364  0.3063 -0.7960  1.4633
 1003TIP3    H224501   6.093   4.556  13.281 -0.0641 -1.7164  0.9779
 1004TIP3   OH224502   0.920   6.695  15.883  0.0769  0.0069 -0.2777
 1004TIP3    H124503   0.880   6.704  15.970 -0.8611 -0.1092 -0.6809
 1004TIP3    H224504   0.848   6.714  15.823  0.7295  0.1045 -1.0297
 1005TIP3   OH224505   0.536   6.571   1.653  0.2525  0.1343 -0.0907
 1005TIP3    H124506   0.498   6.512   1.588 -0.2497  0.1822  0.1521
 1005TIP3    H224507   0.484   6.556   1.732  0.2804  0.7268  0.0423
 1006TIP3   OH224508   2.965   3.006   5.531 -0.0711 -0.0789 -0.6586
 1006TIP3    H124509   2.948   2.912   5.529  0.5956 -0.2294  0.2283
 1006TIP3    H224510   3.003   3.026   5.445  0.7694 -0.8239 -0.4682
 1007TIP3   OH224511   6.425   4.302  13.453 -0.0932  0.0144  0.3631
 1007TIP3    H124512   6.387   4.234  13.509  0.3589  1.0395  1.9416
 1007TIP3    H224513   6.406   4.272  13.364 -3.6929 -0.0845  1.0251
 1008TIP3   OH224514   2.170   3.112   4.048  0.2433 -0.0243 -0.6046
 1008TIP3    H124515   2.123   3.116   4.131  0.9362  0.6514 -0.2320
 1008TIP3    H224516   2.103   3.095   3.983 -0.4180  0.2176  0.0050
 1009TIP3   OH224517   4.395   4.951   4.389  0.6392  0.2630 -0.1545
 1009TIP3    H124518   4.453   4.879   4.414  1.7642  0.6819 -1.4316
 1009TIP3    H224519   4.418   4.970   4.298 -3.4123 -1.3783 -1.7720
 1010TIP3   OH224520   6.582   2.996  15.319  0.0769  0.2712  0.1387
 1010TIP3    H124521   6.629   2.918  15.349 -1.5343 -0.6453  0.4167
 1010TIP3    H224522   6.512   2.962  15.263 -0.9875  1.4475  0.6791
 1011TIP3   OH224523   0.485   4.398  15.467  0.5229 -0.5756  0.1912
 1011TIP3    H124524   0.470   4.491  15.485 -0.6682 -0.8662  0.8505
 1011TIP3    H224525   0.514   4.362  15.550  0.5113 -0.8846  0.0627
 1012TIP3   OH224526   3.205   1.824  11.409  0.5747  0.4920 -0.2096
 1012TIP3    H124527   3.189   1.761  11.339 -0.1553 -0.8326  1.0795
 1012TIP3    H224528   3.121   1.868  11.421  0.3968 -0.0242  0.5053
 1013TIP3   OH224529   3.723   3.657  14.786 -0.1359  0.2671 -0.6246
 1013TIP3    H124530   3.780   3.733  14.797  1.5264 -1.0008  0.0001
 1013TIP3    H224531   3.699   3.632  14.875  0.0923 -0.4653 -0.7578
 1014TIP3   OH224532   5.042   4.785   3.784  0.0253  0.1060  0.5503
 1014TIP3    H124533   5.021   4.742   3.701  0.1091  0.5711  0.2810
 1014TIP3    H224534   4.968   4.844   3.800  0.5874  0.9440  0.1561
 1015TIP3   OH224535   2.052   6.478   1.774 -0.2772 -0.1585 -0.5176
 1015TIP3    H124536   2.105   6.462   1.696  0.4233  1.5072 -0.4234
 1015TIP3    H224537   2.078   6.565   1.803 -0.0945 -0.9220  1.8954
 1016TIP3   OH224538   0.896   2.637   0.148  0.3675  0.0924  0.2100
 1016TIP3    H124539   0.975   2.631   0.094 -0.2677  0.2242 -0.7610
 1016TIP3    H224540   0.891   2.553   0.192  2.2238  0.8311  2.0070
 1017TIP3   OH224541   2.243   6.558   2.841  0.0549 -0.5119 -0.0883
 1017TIP3    H124542   2.293   6.522   2.768 -0.7719  0.8508 -1.3901
 1017TIP3    H224543   2.152   6.554   2.812 -0.0907  2.9213 -0.5824
 1018TIP3   OH224544   3.091   1.528  15.225 -0.4449 -0.2868  0.2481
 1018TIP3    H124545   3.099   1.623  15.221  1.0533 -0.4143 -2.6332
 1018TIP3    H224546   3.180   1.496  15.210 -1.2386 -2.1023 -0.9680
 1019TIP3   OH224547   1.109   4.937   4.639 -0.2635 -0.0397  0.2065
 1019TIP3    H124548   1.179   4.915   4.700  0.3073  0.0029 -0.4173
 1019TIP3    H224549   1.033   4.887   4.670 -0.1801  0.5344  1.3455
 1020TIP3   OH224550   5.301   6.752  11.394 -0.2152 -0.0697  0.2014
 1020TIP3    H124551   5.384   6.774  11.352 -1.7438  1.4545 -2.3015
 1020TIP3    H224552   5.255   6.698  11.329 -1.7876  0.4764  0.8046
 1021TIP3   OH224553   5.351   3.436  11.197 -0.2915 -0.3786  0.1915
 1021TIP3    H124554   5.402   3.387  11.261  1.3321 -2.4916 -2.4715
 1021TIP3    H224555   5.409   3.508  11.170 -0.8746  0.3606  0.8466
 1022TIP3   OH224556   5.237   3.111   0.504  0.2177  0.5453  0.0907
 1022TIP3    H124557   5.315   3.058   0.523  0.5623  0.7595 -0.7026
 1022TIP3    H224558   5.258   3.198   0.539  1.1000  1.1078 -1.7027
 1023TIP3   OH224559   0.207   5.609  11.948 -0.3551 -0.0938  0.0798
 1023TIP3    H124560   0.268   5.626  11.876 -1.3758 -1.5475 -1.1892
 1023TIP3    H224561   0.260   5.569  12.016  0.9224  2.5877  0.8087
 1024TIP3   OH224562   1.446   1.268  16.053  0.5398 -0.4224  0.0331
 1024TIP3    H124563   1.516   1.289  16.116 -0.5858  1.7568  0.6732
 1024TIP3    H224564   1.378   1.333  16.071 -0.7573 -1.1279 -2.0018
 1025TIP3   OH224565   1.780   4.602  13.401 -0.6370 -0.0143  0.3522
 1025TIP3    H124566   1.829   4.524  13.374 -0.8093  0.0443 -0.1303
 1025TIP3    H224567   1.728   4.572  13.476 -0.0134 -0.1265  0.7483
 1026TIP3   OH224568   0.815   5.351  13.786  0.4299 -0.2384  0.1837
 1026TIP3    H124569   0.889   5.358  13.847  2.7596 -0.9211 -2.3898
 1026TIP3    H224570   0.796   5.257  13.784  0.8469 -0.3049 -0.6746
 1027TIP3   OH224571   0.780   3.841   2.929 -0.2706 -0.1700  1.0008
 1027TIP3    H124572   0.822   3.810   3.009 -0.2476 -1.3910  0.5480
 1027TIP3    H224573   0.699   3.790   2.923  0.6441 -1.5638 -0.7184
 1028TIP3   OH224574   5.680   3.884  16.907  0.0391  0.4002  0.0677
 1028TIP3    H124575   5.598   3.869  16.954  0.3453 -1.3185  0.1194
 1028TIP3    H224576   5.730   3.942  16.964 -0.9785  1.1603  0.2098
 1029TIP3   OH224577   4.975   5.980   1.695 -0.2220  0.1458  0.3040
 1029TIP3    H124578   4.889   5.941   1.676 -0.3675  1.4407 -2.0408
 1029TIP3    H224579   5.025   5.968   1.615  1.5936  0.0181  1.4108
 1030TIP3   OH224580   5.019   4.537  15.453  0.1904  0.4292 -0.2895
 1030TIP3    H124581   4.945   4.596  15.462 -0.3636 -0.2259 -0.4816
 1030TIP3    H224582   4.980   4.451  15.438  0.9948  0.1912 -1.1170
 1031TIP3   OH224583   0.721   3.064   1.085  0.8993 -0.0435 -0.0939
 1031TIP3    H124584   0.712   3.035   1.176 -0.1806  0.1575 -0.1216
 1031TIP3    H224585   0.726   2.983   1.034 -0.1931 -0.1804 -0.0012
 1032TIP3   OH224586   4.732   3.606  16.624  0.6210 -0.2321  0.4237
 1032TIP3    H124587   4.720   3.571  16.712  2.0406  0.5391  0.9501
 1032TIP3    H224588   4.670   3.679  16.618  1.2267  0.3489  1.1534
 1033TIP3   OH224589   5.824   3.450   3.877  0.1575 -0.0452  0.2107
 1033TIP3    H124590   5.756   3.426   3.815  0.3341 -0.2650  0.1016
 1033TIP3    H224591   5.906   3.432   3.831  0.3224  1.9682 -0.3580
 1034TIP3   OH224592   3.706   3.223  12.995 -0.4450  0.1960 -0.0800
 1034TIP3    H124593   3.614   3.198  13.001 -0.6190  1.1639  2.3812
 1034TIP3    H224594   3.710   3.310  13.036  1.7402 -0.3503  1.0246
 1035TIP3   OH224595   5.204   4.664  11.968 -0.0526  0.2508  0.4369
 1035TIP3    H124596   5.260   4.698  11.899 -1.1599  0.8612 -0.1971
 1035TIP3    H224597   5.234   4.709  12.047  0.5148  0.3723  0.1581
 1036TIP3   OH224598   5.897   5.949   5.329  0.3988  0.0886  0.7006
 1036TIP3    H124599   5.906   5.878   5.392 -1.4957 -1.4704 -0.6650
 1036TIP3    H224600   5.802   5.966   5.326  0.7978  2.8498  1.1157
 1037TIP3   OH224601   3.023   3.123   6.549 -0.1443  0.2941  0.0452
 1037TIP3    H124602   2.939   3.121   6.503 -0.2863  0.2135  0.3110
 1037TIP3    H224603   3.005   3.086   6.635 -0.0417  1.1331  0.4443
 1038TIP3   OH224604   6.278   5.835  15.425  0.2611 -0.5135  0.6970
 1038TIP3    H124605   6.229   5.795  15.353  0.7628 -2.2871  1.2923
 1038TIP3    H224606   6.362   5.861  15.387 -0.2755  0.5309  0.1802
 1039TIP3   OH224607   1.001   2.115  11.472 -0.7013  0.1793 -0.1525
 1039TIP3    H124608   0.981   2.149  11.385 -1.5594  0.7957  0.2704
 1039TIP3    H224609   1.069   2.050  11.457 -2.0386 -0.9960 -1.5104
 1040TIP3   OH224610   3.090   1.528   1.678 -0.3422 -0.1404  0.4031
 1040TIP3    H124611   3.114   1.616   1.649 -1.9755  0.2270  0.0133
 1040TIP3    H224612   3.048   1.488   1.602 -0.8782 -0.7282  0.9850
 1041TIP3   OH224613   4.983   0.049  16.673  0.1245 -0.4008  0.1248
 1041TIP3    H124614   4.941   0.117  16.726  0.2110  0.3393 -0.7326
 1041TIP3    H224615   5.055   0.094  16.628 -1.1024 -0.4989 -2.0958
 1042TIP3   OH224616   0.345   5.779  14.314  0.3066 -0.0996  0.4344
 1042TIP3    H124617   0.270   5.835  14.334  1.2904  1.6625 -0.5474
 1042TIP3    H224618   0.378   5.752  14.400  0.2440  1.4994  0.9960
 1043TIP3   OH224619   3.666   6.012   4.077  0.5519  0.2189 -0.6630
 1043TIP3    H124620   3.645   5.939   4.136  0.0341  0.6019 -0.3728
 1043TIP3    H224621   3.626   6.088   4.117  1.9926  0.8773 -0.3897
 1044TIP3   OH224622   0.651   3.142  11.827  0.0160  0.3131  0.7456
 1044TIP3    H124623   0.685   3.099  11.906  0.1105 -0.9188  0.0718
 1044TIP3    H224624   0.726   3.187  11.790  0.6067 -1.1296  0.0873
 1045TIP3   OH224625   5.381   6.775   3.947  0.8016  0.2356  0.4507
 1045TIP3    H124626   5.422   6.785   4.033 -1.0818  2.0290  1.2389
 1045TIP3    H224627   5.307   6.716   3.963  1.3078 -0.6059 -0.2790
 1046TIP3   OH224628   4.640   5.707  16.153  0.4683 -0.4941  0.4607
 1046TIP3    H124629   4.650   5.740  16.243 -2.1537 -0.6275  0.8813
 1046TIP3    H224630   4.634   5.612  16.164 -0.8255 -0.4491  0.2995
 1047TIP3   OH224631   4.239   4.139  16.087 -0.6179 -0.1893  0.4713
 1047TIP3    H124632   4.217   4.223  16.048  0.9654  0.5924  1.1849
 1047TIP3    H224633   4.197   4.075  16.030  0.9938  0.9309 -2.1691
 1048TIP3   OH224634   6.203   6.523  12.090  0.3752 -0.4705 -0.2406
 1048TIP3    H124635   6.109   6.537  12.076  0.4622  1.2742  0.6517
 1048TIP3    H224636   6.242   6.537  12.003 -0.0187  0.7380 -0.2412
 1049TIP3   OH224637   0.968   0.428  14.140  0.3412 -0.4711 -0.9039
 1049TIP3    H124638   0.950   0.510  14.186 -0.1594 -1.2541  0.3564
 1049TIP3    H224639   1.045   0.392  14.183 -1.6285 -2.4952  1.2422
 1050TIP3   OH224640   2.517   1.521   5.763 -0.3973 -0.1704 -0.1786
 1050TIP3    H124641   2.467   1.497   5.685 -0.7528 -1.3882  0.4098
 1050TIP3    H224642   2.608   1.507   5.738 -0.5975 -2.6063  0.2553
 1051TIP3   OH224643   4.084   2.423  11.754 -0.2223  0.8310 -0.1885
 1051TIP3    H124644   4.147   2.443  11.824 -0.8588 -0.6165  0.8610
 1051TIP3    H224645   4.093   2.328  11.741  0.2860  1.1560 -2.5216
 1052TIP3   OH224646   2.552   3.596   4.609  0.1566  0.2312  0.5823
 1052TIP3    H124647   2.495   3.597   4.532  0.3838 -0.2247  0.4021
 1052TIP3    H224648   2.503   3.641   4.677 -0.6839 -0.7132  0.6236
 1053TIP3   OH224649   2.815   5.126   0.264 -0.0870 -0.4991 -0.2770
 1053TIP3    H124650   2.812   5.123   0.359 -0.7855 -0.1933 -0.2858
 1053TIP3    H224651   2.907   5.107   0.242  0.5328  1.3034  0.5233
 1054TIP3   OH224652   2.555   6.286   2.352  0.5326  0.9387 -0.6705
 1054TIP3    H124653   2.553   6.381   2.349  2.3892  1.1831  2.0340
 1054TIP3    H224654   2.478   6.261   2.403  1.4961  1.2753  1.0332
 1055TIP3   OH224655   3.400   1.128   5.245  0.5489 -0.1036  0.5360
 1055TIP3    H124656   3.331   1.115   5.180  3.3541  1.3418 -3.0910
 1055TIP3    H224657   3.420   1.039   5.276 -1.3162 -0.7824 -0.0720
 1056TIP3   OH224658   5.384   3.576   0.764 -0.2466  0.6492 -0.5395
 1056TIP3    H124659   5.457   3.520   0.739 -0.7598  0.0879 -0.8164
 1056TIP3    H224660   5.350   3.610   0.681 -0.4550  0.7060 -0.4326
 1057TIP3   OH224661   1.098   2.579  15.804  1.0912  0.2544 -0.7283
 1057TIP3    H124662   1.069   2.491  15.777  0.3160  0.3601 -0.2896
 1057TIP3    H224663   1.037   2.638  15.759  0.2006  0.4574  0.7022
 1058TIP3   OH224664   5.354   4.858   0.976 -0.2573  0.2509 -0.1470
 1058TIP3    H124665   5.275   4.907   1.002 -0.4340 -0.1108  0.0010
 1058TIP3    H224666   5.320   4.780   0.932 -0.0593 -1.0267  1.8400
 1059TIP3   OH224667   2.775   1.650   0.527  0.1389  0.8858 -0.0964
 1059TIP3    H124668   2.709   1.661   0.596 -0.9610  0.4778 -1.0542
 1059TIP3    H224669   2.795   1.556   0.528 -1.7471  0.4043 -1.9477
 1060TIP3   OH224670   5.520   1.572  13.325 -0.1302  0.0731 -0.3682
 1060TIP3    H124671   5.473   1.598  13.404  0.4077 -0.4612  0.1497
 1060TIP3    H224672   5.542   1.480  13.341  0.2036  0.0361 -1.0319
 1061TIP3   OH224673   2.711   5.451   2.093  0.1227  0.4232 -0.2292
 1061TIP3    H124674   2.649   5.505   2.143  0.5197  0.5050  0.1863
 1061TIP3    H224675   2.663   5.371   2.073  0.2360  0.0303  1.0316
 1062TIP3   OH224676   2.469   4.877  12.970 -0.1440  0.5058  0.6404
 1062TIP3    H124677   2.546   4.870  12.914 -1.3723  0.0935 -1.0877
 1062TIP3    H224678   2.400   4.910  12.912 -2.4421 -3.2848  0.8290
 1063TIP3   OH224679   6.055   0.028   0.855 -0.0010 -0.0120 -0.3414
 1063TIP3    H124680   5.962   0.014   0.870  0.2258 -0.7907  0.4199
 1063TIP3    H224681   6.085   0.077   0.932  0.5480 -1.2745  0.2750
 1064TIP3   OH224682   3.201   6.590   0.201  0.3711 -0.0986  0.1226
 1064TIP3    H124683   3.210   6.640   0.119 -1.5408  1.4457  0.7683
 1064TIP3    H224684   3.176   6.502   0.173 -0.7353  0.5305 -1.0025
 1065TIP3   OH224685   4.366   5.086   4.832  0.3005  0.3950  0.6266
 1065TIP3    H124686   4.338   5.009   4.784  3.4388 -0.9579  0.6825
 1065TIP3    H224687   4.330   5.074   4.920  2.1042 -2.0244  1.1480
 1066TIP3   OH224688   3.927   3.952  16.787  0.3132 -0.3027 -0.1273
 1066TIP3    H124689   4.005   4.007  16.799  0.3501 -0.5679  0.9121
 1066TIP3    H224690   3.898   3.972  16.698  0.1217  1.6563  0.3289
 1067TIP3   OH224691   5.454   6.055  14.276  0.5515  0.4602 -0.2273
 1067TIP3    H124692   5.519   6.116  14.240  1.8548 -0.1649  0.9829
 1067TIP3    H224693   5.431   6.092  14.362  0.9322 -0.4382  0.2718
 1068TIP3   OH224694   0.365   5.956   4.263 -0.3206 -0.2066 -0.0067
 1068TIP3    H124695   0.323   6.037   4.233  0.9775  0.5118  0.0108
 1068TIP3    H224696   0.335   5.944   4.353 -0.8395  0.0350 -0.1465
 1069TIP3   OH224697   4.839   3.930   0.329 -0.0608  0.2664 -0.0805
 1069TIP3    H124698   4.897   3.870   0.377 -0.9238 -1.9316 -1.6173
 1069TIP3    H224699   4.793   3.978   0.397  0.8997 -0.5941  1.2321
 1070TIP3   OH224700   4.085   3.306   5.915  0.3330 -0.0811 -0.7464
 1070TIP3    H124701   4.152   3.242   5.939  0.6125  0.4263 -0.1398
 1070TIP3    H224702   4.078   3.364   5.991  0.9404  1.3229 -1.6936
 1071TIP3   OH224703   3.228   5.436  15.350  0.5232 -0.2068 -0.5728
 1071TIP3    H124704   3.286   5.432  15.426 -0.4542  0.5383  0.2488
 1071TIP3    H224705   3.172   5.512  15.367 -1.4311 -1.5427 -0.7421
 1072TIP3   OH224706   0.029   2.173  12.823 -0.1021 -0.7586  0.3160
 1072TIP3    H124707  -0.039   2.160  12.756 -1.0239 -0.5176  1.1854
 1072TIP3    H224708   0.112   2.165  12.775 -0.7450 -0.2947 -0.9030
 1073TIP3   OH224709   2.290   5.406   0.028  0.1187 -0.0245 -0.1809
 1073TIP3    H124710   2.368   5.368  -0.014 -0.9624 -1.4575 -0.9794
 1073TIP3    H224711   2.314   5.415   0.120  1.5954  0.5826 -0.5954
 1074TIP3   OH224712   0.449   6.747   5.244  0.6489  0.4091  0.2958
 1074TIP3    H124713   0.453   6.676   5.180  0.0536  0.8503 -0.2443
 1074TIP3    H224714   0.368   6.731   5.292  0.8411  0.3659  0.6133
 1075TIP3   OH224715   4.896   2.108  17.059 -0.1956 -0.0953 -0.7134
 1075TIP3    H124716   4.918   2.096  16.967  1.8559 -1.0308 -0.1627
 1075TIP3    H224717   4.828   2.043  17.077  1.3933 -1.9050 -0.9497
 1076TIP3   OH224718   5.003   6.023   5.522 -0.5992 -0.1702  0.4945
 1076TIP3    H124719   4.964   6.096   5.473  0.3198  0.0680  0.1029
 1076TIP3    H224720   4.955   5.946   5.491 -1.3830  0.2160  0.6957
 1077TIP3   OH224721   0.290   1.194  12.125  0.4129 -0.5906  0.1795
 1077TIP3    H124722   0.288   1.277  12.171  0.4611 -1.1291  1.1699
 1077TIP3    H224723   0.231   1.137  12.174  1.4947 -1.5784  0.3796
 1078TIP3   OH224724   6.117   3.021   6.373 -0.1706 -0.0999 -0.0285
 1078TIP3    H124725   6.033   2.976   6.378 -0.4815  0.4148 -0.4400
 1078TIP3    H224726   6.100   3.108   6.407  0.8968 -0.8585  2.7002
 1079TIP3   OH224727   3.001   3.892  14.902 -0.2437  0.4185  0.3361
 1079TIP3    H124728   2.943   3.866  14.831  0.3543  0.6842 -0.2561
 1079TIP3    H224729   2.949   3.955  14.953 -0.2719  1.1209 -0.5305
 1080TIP3   OH224730   3.493   5.955   6.303  0.3649  0.1869  0.3779
 1080TIP3    H124731   3.463   5.934   6.391  0.7908  0.5368  0.6057
 1080TIP3    H224732   3.587   5.941   6.305  0.7887  2.5823  0.7073
 1081TIP3   OH224733   5.819   6.494   5.596  0.1518  0.2575 -0.1493
 1081TIP3    H124734   5.775   6.518   5.678  0.6928 -1.2859  0.6490
 1081TIP3    H224735   5.881   6.425   5.622 -0.0959 -0.7073 -1.9589
 1082TIP3   OH224736   3.168   3.926   3.225  0.3906 -0.5513 -0.3383
 1082TIP3    H124737   3.078   3.910   3.253  1.1583 -0.5933  2.4588
 1082TIP3    H224738   3.207   3.839   3.219  0.4248 -0.4991 -0.9134
 1083TIP3   OH224739   6.349   2.479   5.208  0.1392  0.6322 -0.4417
 1083TIP3    H124740   6.400   2.404   5.177 -0.0798  0.1852  0.2528
 1083TIP3    H224741   6.268   2.441   5.241 -0.9807  1.4023 -2.1763
 1084TIP3   OH224742   4.307   1.098  15.584 -0.2694  0.0893 -0.0966
 1084TIP3    H124743   4.300   1.157  15.658  0.4926 -0.3037  0.3090
 1084TIP3    H224744   4.397   1.109  15.554 -0.6319  0.4033 -1.1057
 1085TIP3   OH224745   4.715   2.845  10.621 -0.8540 -0.3848  0.4909
 1085TIP3    H124746   4.639   2.832  10.565 -0.3661  1.1584 -0.6015
 1085TIP3    H224747   4.724   2.940  10.628  2.8510 -0.3382 -2.1182
 1086TIP3   OH224748   4.964   3.308   4.508  0.3034  0.5831 -0.5440
 1086TIP3    H124749   4.990   3.235   4.564 -1.0249 -0.2002 -0.9050
 1086TIP3    H224750   4.897   3.271   4.450 -0.3463  2.0650 -0.7825
 1087TIP3   OH224751   6.466   2.592   0.598  0.6081 -0.0788  0.2022
 1087TIP3    H124752   6.435   2.617   0.685  0.5581 -1.5276  0.6271
 1087TIP3    H224753   6.489   2.500   0.606 -0.5969 -0.5960 -1.6633
 1088TIP3   OH224754   6.289   4.949   2.958  0.3975 -0.1187  0.0584
 1088TIP3    H124755   6.253   4.962   3.045  1.3479  1.5803  0.2411
 1088TIP3    H224756   6.233   5.001   2.900  1.1751  0.7087  0.0264
 1089TIP3   OH224757   5.865   4.725  10.559 -0.2542  0.1699  0.1457
 1089TIP3    H124758   5.876   4.632  10.579 -1.8261  0.3377  2.1149
 1089TIP3    H224759   5.953   4.756  10.539  0.3101 -1.6961 -0.5049
 1090TIP3   OH224760   5.217   0.400  11.870  0.2113 -0.2574  0.2016
 1090TIP3    H124761   5.137   0.348  11.873  0.5979 -0.9178 -0.6714
 1090TIP3    H224762   5.190   0.488  11.898 -0.9351 -0.3330 -0.6204
 1091TIP3   OH224763   1.397   5.044  12.805 -0.5452 -0.1108  0.5568
 1091TIP3    H124764   1.411   4.957  12.843  1.2346  0.3638  1.0567
 1091TIP3    H224765   1.481   5.069  12.769 -1.6302  0.4449 -1.7529
 1092TIP3   OH224766   6.225   0.275   5.158 -0.3235 -0.0940 -0.0953
 1092TIP3    H124767   6.259   0.273   5.068  1.4187 -2.3013  0.5085
 1092TIP3    H224768   6.134   0.247   5.150  0.2002 -1.6856 -1.0916
 1093TIP3   OH224769   4.973   0.573  11.606 -0.0211  0.0670  0.3951
 1093TIP3    H124770   4.974   0.614  11.520 -3.4715  0.5585  0.4532
 1093TIP3    H224771   4.951   0.643  11.667 -1.3615 -0.9310  1.1236
 1094TIP3   OH224772   1.567   2.650   3.687  0.9103 -0.3455  0.0313
 1094TIP3    H124773   1.474   2.662   3.707  0.8714  0.0020 -0.3398
 1094TIP3    H224774   1.611   2.658   3.771  0.9138  2.7856 -0.1426
 1095TIP3   OH224775   4.415   3.281   3.609  0.0102  0.6425 -0.1008
 1095TIP3    H124776   4.340   3.255   3.664  0.2441 -0.5238 -0.2933
 1095TIP3    H224777   4.403   3.374   3.594 -1.3261  0.5153  0.0141
 1096TIP3   OH224778   2.313   0.578   4.803 -0.0634 -0.4487 -0.1632
 1096TIP3    H124779   2.353   0.560   4.888  0.8195  1.3324 -0.1486
 1096TIP3    H224780   2.350   0.512   4.745 -0.8922 -1.8743  0.8367
 1097TIP3   OH224781   3.255   4.931   5.481 -0.3312  0.0893 -0.0481
 1097TIP3    H124782   3.240   4.929   5.575 -3.1438 -2.0014 -0.4114
 1097TIP3    H224783   3.255   5.024   5.459 -0.1300  0.6039  1.9184
 1098TIP3   OH224784   1.262   5.437   2.479  0.1629 -0.1719 -0.4101
 1098TIP3    H124785   1.338   5.472   2.431 -0.4215  1.6376 -0.0936
 1098TIP3    H224786   1.209   5.396   2.411  0.6272  0.0291 -0.9105
 1099TIP3   OH224787   0.864   3.606  13.186 -0.0031  0.1056  0.6541
 1099TIP3    H124788   0.920   3.616  13.263  0.5157 -2.6514  0.7292
 1099TIP3    H224789   0.904   3.662  13.120  0.6240  1.0699  1.8181
 1100TIP3   OH224790   5.425   3.241  16.794 -0.0357 -0.0709  0.1767
 1100TIP3    H124791   5.348   3.283  16.755 -0.0455  0.0570  0.3343
 1100TIP3    H224792   5.485   3.313  16.811  0.8901 -0.3371 -1.6392
 1101TIP3   OH224793   1.069   4.022  16.737 -0.1480  1.1418  0.3971
 1101TIP3    H124794   1.017   4.037  16.658 -0.1709  0.6787  0.3216
 1101TIP3    H224795   1.094   4.110  16.766 -2.4260  1.5363  1.4351
 1102TIP3   OH224796   0.556   0.826   2.623 -0.2384 -0.2569  0.3249
 1102TIP3    H124797   0.598   0.894   2.569  0.8712 -1.3202 -0.1929
 1102TIP3    H224798   0.479   0.801   2.573 -1.0909  1.1292  0.8819
 1103TIP3   OH224799   0.249   5.151   2.317 -0.5905  0.2173  0.1491
 1103TIP3    H124800   0.185   5.177   2.383 -0.4658  2.4214 -0.5105
 1103TIP3    H224801   0.257   5.227   2.259  2.5457  0.0604  0.1584
 1104TIP3   OH224802   1.148   3.918   2.825 -0.5930  0.6538  1.2034
 1104TIP3    H124803   1.092   3.994   2.840 -1.9130 -0.2287  0.9210
 1104TIP3    H224804   1.167   3.884   2.912  0.4109  1.5794  1.3571
 1105TIP3   OH224805   2.080   2.047   5.126 -0.1233  0.0896  0.3890
 1105TIP3    H124806   1.990   2.060   5.094 -0.3928  0.0394  1.0993
 1105TIP3    H224807   2.069   2.032   5.220  0.3923 -2.5737  0.0931
 1106TIP3   OH224808   2.456   6.032   4.542 -0.0103  0.2968  0.2708
 1106TIP3    H124809   2.501   5.959   4.501 -1.3257  0.0060 -0.7324
 1106TIP3    H224810   2.419   5.996   4.622  0.4076  0.2003  0.4221
 1107TIP3   OH224811   2.586   6.802   1.149 -0.0627 -0.0092 -0.1814
 1107TIP3    H124812   2.530   6.738   1.193  0.8662  0.3055  1.5361
 1107TIP3    H224813   2.659   6.817   1.209  0.4303  1.6952 -1.1155
 1108TIP3   OH224814   4.496   5.841   2.572  0.3233  0.6551 -0.2396
 1108TIP3    H124815   4.583   5.812   2.544  0.0989 -0.3241  0.0328
 1108TIP3    H224816   4.437   5.771   2.543 -0.4453  1.5096 -0.8056
 1109TIP3   OH224817   3.955   2.360   0.772  0.3279 -0.2097 -0.3515
 1109TIP3    H124818   3.919   2.426   0.833  0.1086  0.3459 -1.0707
 1109TIP3    H224819   4.019   2.313   0.825 -1.2973 -1.1182  0.9270
 1110TIP3   OH224820   0.865   1.689   0.457 -0.7042  0.4208  0.1617
 1110TIP3    H124821   0.895   1.728   0.375  2.0859 -1.7003  0.0476
 1110TIP3    H224822   0.877   1.758   0.522  3.4281  0.1892 -0.1365
 1111TIP3   OH224823   6.581   5.059  11.504  0.1239  0.0868 -0.7224
 1111TIP3    H124824   6.556   5.151  11.493  1.8779  0.3633 -3.1390
 1111TIP3    H224825   6.526   5.012  11.442 -0.2724 -0.4258  0.0086
 1112TIP3   OH224826   1.715   0.338   2.052 -0.1802  0.0463  0.0160
 1112TIP3    H124827   1.625   0.331   2.082 -0.1020 -0.9330  0.0648
 1112TIP3    H224828   1.750   0.415   2.098 -0.9992  0.4822 -0.0655
 1113TIP3   OH224829   2.419   4.347   2.128  0.6539 -0.8264  0.6096
 1113TIP3    H124830   2.356   4.339   2.199  1.0809 -0.4586  1.0322
 1113TIP3    H224831   2.387   4.286   2.061 -0.5606 -0.1022  0.4993
 1114TIP3   OH224832   2.394   5.075   6.282 -0.1376 -0.7000 -0.0007
 1114TIP3    H124833   2.382   5.113   6.195 -1.9000 -0.0197  0.4835
 1114TIP3    H224834   2.325   5.008   6.287 -0.6665 -0.0947  1.1816
 1115TIP3   OH224835   2.888   2.490  15.744  0.2715  0.1125 -1.1954
 1115TIP3    H124836   2.932   2.555  15.798 -0.0467 -0.6236 -0.0275
 1115TIP3    H224837   2.919   2.509  15.655  3.3295 -0.6066 -0.4203
 1116TIP3   OH224838   3.321   0.512  12.948 -0.0956 -0.5613 -0.0652
 1116TIP3    H124839   3.272   0.594  12.952  0.0970 -0.4741  0.8067
 1116TIP3    H224840   3.298   0.473  12.864 -1.2482 -0.2600  0.0979
 1117TIP3   OH224841   0.499   6.445   4.724 -0.4962 -0.0130 -0.2685
 1117TIP3    H124842   0.448   6.504   4.780  1.2401  0.4815  0.8554
 1117TIP3    H224843   0.560   6.503   4.678 -0.5979 -0.6498 -1.2183
 1118TIP3   OH224844   2.971   0.260   4.004 -0.2574 -0.0373  0.0438
 1118TIP3    H124845   2.919   0.213   3.939 -1.8989  1.6341  0.0492
 1118TIP3    H224846   2.952   0.353   3.987 -0.0982  0.4765  2.3427
 1119TIP3   OH224847   4.211   3.956   0.710  0.0549  0.5977  0.3814
 1119TIP3    H124848   4.258   3.899   0.650 -0.6215 -1.5082  1.7406
 1119TIP3    H224849   4.184   4.031   0.657 -0.1724 -0.9608 -1.8153
 1120TIP3   OH224850   3.157   3.957  10.550 -0.1454  0.3124 -0.5377
 1120TIP3    H124851   3.072   3.983  10.585 -0.6988 -0.8354 -0.9979
 1120TIP3    H224852   3.217   4.025  10.580 -1.5566  2.2282 -1.7882
 1121TIP3   OH224853   0.283   5.390  12.840  0.4821 -0.1815  0.6840
 1121TIP3    H124854   0.369   5.386  12.883  0.1584  0.6726  1.4324
 1121TIP3    H224855   0.227   5.437  12.902 -0.6177 -1.0133  0.3437
 1122TIP3   OH224856   3.552   4.845   2.621  0.1390  0.8139 -0.8785
 1122TIP3    H124857   3.625   4.840   2.560  1.5811  0.0808  0.8007
 1122TIP3    H224858   3.593   4.863   2.706 -1.8288  2.4853 -0.1956
 1123TIP3   OH224859   1.630   2.802   0.457  0.0258 -0.3981  0.4834
 1123TIP3    H124860   1.646   2.803   0.551  1.4586  0.4631  0.2541
 1123TIP3    H224861   1.678   2.878   0.424 -0.1602 -0.8987 -0.9929
 1124TIP3   OH224862   4.337   2.184  14.383 -0.6466 -0.0708 -0.4602
 1124TIP3    H124863   4.299   2.241  14.450  0.8682  0.4679 -0.0293
 1124TIP3    H224864   4.313   2.096  14.410  1.1830  0.0053  1.6877
 1125TIP3   OH224865   5.205   3.242   4.212  0.1372 -0.1285 -0.5986
 1125TIP3    H124866   5.151   3.186   4.268  0.6421 -1.0042 -0.9625
 1125TIP3    H224867   5.293   3.234   4.248  0.4362 -0.5680 -1.4022
 1126TIP3   OH224868   1.480   4.475  11.787 -0.1818 -0.3626  0.0816
 1126TIP3    H124869   1.440   4.396  11.751  0.6159 -1.2054  1.0065
 1126TIP3    H224870   1.500   4.453  11.878  2.0289  0.1393 -0.2161
 1127TIP3   OH224871   0.940   0.136   3.713  0.0060 -0.0544 -0.2029
 1127TIP3    H124872   0.915   0.116   3.803 -0.3547  0.6244 -0.1449
 1127TIP3    H224873   1.024   0.093   3.701 -0.2734 -0.7272  0.2368
 1128TIP3   OH224874   2.242   3.061  14.368  0.0383  0.6020 -0.4918
 1128TIP3    H124875   2.205   3.116  14.299 -0.8188  2.1912  1.1546
 1128TIP3    H224876   2.310   3.115  14.408 -1.6140  1.0490  1.9444
 1129TIP3   OH224877   4.406   2.693   5.906  0.2029  0.3169 -0.6704
 1129TIP3    H124878   4.469   2.647   5.851  0.8297  1.0084 -0.5460
 1129TIP3    H224879   4.358   2.624   5.952  1.1583 -0.2076 -0.4490
 1130TIP3   OH224880   1.178   5.043   6.055  0.0734  0.3429 -0.5963
 1130TIP3    H124881   1.258   5.083   6.021 -0.2203  0.3517 -1.2801
 1130TIP3    H224882   1.132   5.011   5.978  0.1155 -0.9757 -0.0897
 1131TIP3   OH224883   1.391   4.887  15.137 -0.0400  0.1559 -0.1322
 1131TIP3    H124884   1.303   4.899  15.100  0.3562 -0.6799 -1.4120
 1131TIP3    H224885   1.447   4.945  15.084  0.0946  1.2914  1.1869
 1132TIP3   OH224886   0.048   2.520  14.232 -0.6569 -0.3697 -0.0015
 1132TIP3    H124887   0.120   2.467  14.267  0.5373 -0.0236 -1.7999
 1132TIP3    H224888   0.075   2.611  14.250 -0.3950 -0.2192 -1.1189
 1133TIP3   OH224889   0.505   5.508  15.701  0.1152  0.0470 -0.1108
 1133TIP3    H124890   0.529   5.583  15.646 -0.7465  0.4699  0.0758
 1133TIP3    H224891   0.526   5.536  15.790 -0.0963  0.0228 -0.0528
 1134TIP3   OH224892   3.097   6.464   3.651 -0.0061  0.0065 -0.1046
 1134TIP3    H124893   3.149   6.394   3.688  1.0514  0.9438  0.2278
 1134TIP3    H224894   3.116   6.461   3.557 -1.0421 -1.0095 -0.3059
 1135TIP3   OH224895   2.052   4.372  12.256 -0.0527 -0.2194 -0.6490
 1135TIP3    H124896   2.133   4.381  12.206 -0.4698  0.5709 -1.1937
 1135TIP3    H224897   1.997   4.444  12.226 -1.1675 -1.0621 -0.6713
 1136TIP3   OH224898   3.436   4.868  14.923  0.0293 -0.1153 -0.7098
 1136TIP3    H124899   3.452   4.815  15.001 -1.6223  0.3241 -0.0271
 1136TIP3    H224900   3.406   4.952  14.957  3.8988  1.9079 -1.6937
 1137TIP3   OH224901   3.454   1.583  14.089  0.1104  0.2795  0.3142
 1137TIP3    H124902   3.381   1.533  14.052  1.1083 -0.5679 -0.5691
 1137TIP3    H224903   3.429   1.597  14.180 -0.4542 -1.3461  0.4396
 1138TIP3   OH224904   2.900   6.449   5.289 -0.2301  0.2562  0.4830
 1138TIP3    H124905   2.956   6.524   5.310  0.3444  0.4553 -1.5127
 1138TIP3    H224906   2.815   6.471   5.327 -0.0475  1.9116  0.0421
 1139TIP3   OH224907   5.742   5.497   4.068  0.1505  0.0407 -0.6437
 1139TIP3    H124908   5.826   5.509   4.023  1.4013 -1.5687  1.1021
 1139TIP3    H224909   5.754   5.540   4.152 -1.4266  1.2374 -0.9798
 1140TIP3   OH224910   2.998   4.277  11.608 -0.1328  0.3576  0.1689
 1140TIP3    H124911   2.919   4.232  11.578  0.2144 -0.2544  0.1697
 1140TIP3    H224912   3.063   4.260  11.541 -0.3905  2.1040 -0.5954
 1141TIP3   OH224913   4.807   1.966   2.926 -0.3720  0.3486  0.1359
 1141TIP3    H124914   4.815   2.033   2.994 -1.0316  2.4965 -1.7688
 1141TIP3    H224915   4.860   1.999   2.854 -1.1299 -0.9446 -1.0617
 1142TIP3   OH224916   3.885   3.075   4.375  0.2891  0.0033 -0.5357
 1142TIP3    H124917   3.946   3.147   4.390 -1.2234  0.7713  3.4242
 1142TIP3    H224918   3.803   3.117   4.350 -0.4380 -0.3107  1.1732
 1143TIP3   OH224919   4.859   6.695   0.891 -0.1922  0.0395  0.1491
 1143TIP3    H124920   4.800   6.749   0.945  0.4552 -0.0402  0.9577
 1143TIP3    H224921   4.842   6.605   0.920 -1.4274 -0.2448 -1.3492
 1144TIP3   OH224922   2.800   1.692  10.715 -0.2355 -0.9189  0.3316
 1144TIP3    H124923   2.870   1.667  10.775 -0.6019 -1.3548  0.5781
 1144TIP3    H224924   2.828   1.777  10.680  1.5195 -2.0521 -1.2435
 1145TIP3   OH224925   6.105   1.964  14.150  0.4462  0.4129 -0.2688
 1145TIP3    H124926   6.137   2.033  14.092  0.4140  0.8786  0.2560
 1145TIP3    H224927   6.178   1.903  14.157  1.1120  1.2709  0.6107
 1146TIP3   OH224928   4.126   4.625  12.334 -0.0742  0.0199 -0.0726
 1146TIP3    H124929   4.050   4.679  12.353  0.5784  0.2614  2.2208
 1146TIP3    H224930   4.197   4.687  12.319 -0.0789 -0.2078 -1.0922
 1147TIP3   OH224931   1.450   4.882   1.195  0.5269  0.6911  0.0195
 1147TIP3    H124932   1.395   4.866   1.273  1.0401  1.4094  0.5393
 1147TIP3    H224933   1.440   4.976   1.177  0.4335  0.5365 -0.7747
 1148TIP3   OH224934   2.926   0.488  12.492  0.0477 -0.0482 -1.1164
 1148TIP3    H124935   2.949   0.395  12.491  1.7417  0.3505 -2.0697
 1148TIP3    H224936   2.833   0.490  12.470 -0.2015 -1.5501 -0.3184
 1149TIP3   OH224937   6.640   2.054   3.787 -0.1099 -0.4910  0.1666
 1149TIP3    H124938   6.592   2.135   3.773 -1.4774 -1.2281  0.4516
 1149TIP3    H224939   6.731   2.077   3.768 -0.2431  1.4384  1.5327
 1150TIP3   OH224940   0.453   6.332  13.186  0.9302  0.3470 -0.5839
 1150TIP3    H124941   0.530   6.290  13.225  1.1967  0.8297 -0.5743
 1150TIP3    H224942   0.477   6.424  13.180  1.2522  0.1615 -2.7443
 1151TIP3   OH224943   4.774   4.562  14.597  0.2522 -0.0960 -0.1968
 1151TIP3    H124944   4.757   4.631  14.661  0.9598  0.9482 -1.1139
 1151TIP3    H224945   4.792   4.484  14.650  1.0141  0.7923  0.8894
 1152TIP3   OH224946   0.599   0.420   5.213  0.2189  0.3484  0.2474
 1152TIP3    H124947   0.555   0.337   5.197 -2.9901  2.0656 -0.8797
 1152TIP3    H224948   0.603   0.462   5.126 -0.5214  2.3524  1.1219
 1153TIP3   OH224949   2.126   6.746  15.092  0.1595 -0.3646  0.0752
 1153TIP3    H124950   2.205   6.721  15.140  1.0991 -1.8109 -2.0927
 1153TIP3    H224951   2.056   6.694  15.131  0.6329 -0.5035  0.7501
 1154TIP3   OH224952   1.149   1.480  16.791 -0.3040  0.0565 -0.1650
 1154TIP3    H124953   1.227   1.511  16.836 -0.7931  3.2151 -1.2512
 1154TIP3    H224954   1.088   1.458  16.861  0.7434 -0.2235  0.6786
 1155TIP3   OH224955   1.838   4.519   1.742  0.2076 -0.0951 -0.1253
 1155TIP3    H124956   1.893   4.567   1.680 -0.1327 -0.3976 -0.6685
 1155TIP3    H224957   1.750   4.523   1.705 -0.6369  2.3377  1.8638
 1156TIP3   OH224958   5.134   4.620   2.181  0.1825  0.4128  0.1414
 1156TIP3    H124959   5.118   4.536   2.138 -1.1002  0.0700  1.2304
 1156TIP3    H224960   5.193   4.666   2.121  0.7866 -1.1760 -0.5663
 1157TIP3   OH224961   6.297   4.534  17.012 -0.0050 -0.2676  0.2576
 1157TIP3    H124962   6.344   4.488  16.942 -0.6268  1.0861 -1.0887
 1157TIP3    H224963   6.366   4.571  17.067  0.6167  2.1717 -2.0060
 1158TIP3   OH224964   6.755   6.530  13.329 -1.2062  0.1366 -0.1162
 1158TIP3    H124965   6.850   6.522  13.320 -1.4793 -1.5428 -2.5623
 1158TIP3    H224966   6.742   6.615  13.371  1.4160 -1.0268  3.5470
 1159TIP3   OH224967   3.637   3.549  11.650  0.4537 -0.3932  0.1767
 1159TIP3    H124968   3.642   3.506  11.565 -1.8262 -1.4441  0.4892
 1159TIP3    H224969   3.600   3.483  11.708  0.4341  0.8158  1.6160
 1160TIP3   OH224970   5.729   6.111  12.292  0.3804  0.0080  0.5186
 1160TIP3    H124971   5.725   6.026  12.336 -2.8805  0.0838  0.5752
 1160TIP3    H224972   5.671   6.101  12.217  0.2221  2.0899  0.3187
 1161TIP3   OH224973   1.390   5.881   4.270  0.4000  0.5766  0.0710
 1161TIP3    H124974   1.414   5.968   4.239 -0.3889  0.9137  0.3793
 1161TIP3    H224975   1.297   5.888   4.291  0.6165  0.0105  1.2924
 1162TIP3   OH224976   2.089   3.649  15.578 -0.2650  0.2395  0.6156
 1162TIP3    H124977   2.172   3.623  15.537 -0.1662  0.0570  0.9276
 1162TIP3    H224978   2.024   3.635  15.509  0.1934  2.1874 -0.2599
 1163TIP3   OH224979   5.528   3.461  13.019 -0.3324  0.1287  0.0597
 1163TIP3    H124980   5.550   3.369  13.035 -0.8669 -0.2808 -1.3961
 1163TIP3    H224981   5.544   3.473  12.925 -1.1488  1.2759  0.0560
 1164TIP3   OH224982   0.588   6.106   0.352  0.7317  0.1469 -0.5589
 1164TIP3    H124983   0.501   6.127   0.385  0.4262  0.8228 -1.7331
 1164TIP3    H224984   0.634   6.190   0.352  1.2219 -0.1193 -0.4213
 1165TIP3   OH224985   1.086   0.558  15.933 -0.4694  0.2609 -0.3145
 1165TIP3    H124986   1.097   0.652  15.945 -0.1765  0.2479 -0.4811
 1165TIP3    H224987   1.005   0.538  15.979  0.8443  0.1272  2.0859
 1166TIP3   OH224988   4.207   2.721  12.632 -0.0591 -0.6274 -0.1057
 1166TIP3    H124989   4.118   2.754  12.644  0.1082 -0.6061  1.2591
 1166TIP3    H224990   4.228   2.740  12.541 -0.3357  2.1638  0.3476
 1167TIP3   OH224991   3.655   4.583  12.403  0.7730  0.0765  0.4765
 1167TIP3    H124992   3.661   4.602  12.496  1.3407  0.1248  0.4318
 1167TIP3    H224993   3.728   4.630  12.363 -0.1629  1.0367 -0.1571
 1168TIP3   OH224994   4.981   2.453  13.354 -0.4818 -0.1522 -0.3140
 1168TIP3    H124995   4.911   2.440  13.290 -0.9504 -2.4337  0.5977
 1168TIP3    H224996   4.998   2.366  13.390  1.7416  0.6026  0.6453
 1169TIP3   OH224997   4.941   2.035  13.114 -0.0430 -0.0569  0.2287
 1169TIP3    H124998   5.021   2.011  13.068  0.0405  1.0611 -0.2504
 1169TIP3    H224999   4.971   2.069  13.198  0.0553  0.9966 -0.2159
 1170TIP3   OH225000   2.253   0.523   5.083 -0.1580  0.0214 -0.2882
 1170TIP3    H125001   2.302   0.600   5.112 -0.7052 -0.0255  0.7923
 1170TIP3    H225002   2.181   0.516   5.144  0.0390 -1.5142 -0.2028
 1171TIP3   OH225003   0.620   4.762  14.669 -0.9107 -0.2566  0.3297
 1171TIP3    H125004   0.643   4.755  14.576  0.1502  0.2037  0.5472
 1171TIP3    H225005   0.581   4.849  14.677 -0.3218 -0.0015  0.4508
 1172TIP3   OH225006   3.572   2.364   4.722 -0.4633  0.0581  0.2806
 1172TIP3    H125007   3.496   2.312   4.697 -0.3935  0.6378 -1.2658
 1172TIP3    H225008   3.536   2.438   4.770 -0.7115 -0.4890  0.9600
 1173TIP3   OH225009   1.605   4.508   2.733  0.2707 -0.0492 -0.3475
 1173TIP3    H125010   1.594   4.552   2.648  0.3967  1.0616  0.1943
 1173TIP3    H225011   1.670   4.561   2.779 -0.7323  0.1045  0.9313
 1174TIP3   OH225012   0.110   0.084   1.222  0.2153 -0.0893  0.2971
 1174TIP3    H125013   0.107   0.169   1.266  0.6682  0.7603 -1.2154
 1174TIP3    H225014   0.188   0.089   1.167  0.8958 -1.9475  1.0255
 1175TIP3   OH225015   0.264   5.196  16.571  0.0895  0.4763  0.4810
 1175TIP3    H125016   0.265   5.152  16.486  0.7994  1.8854 -0.2822
 1175TIP3    H225017   0.179   5.174  16.609  1.0668 -3.0014  0.9845
 1176TIP3   OH225018   4.262   2.302  15.250 -0.3509  0.1012 -0.0916
 1176TIP3    H125019   4.322   2.298  15.175 -0.7350  0.0368 -0.4007
 1176TIP3    H225020   4.319   2.308  15.326  0.1308 -2.8056 -0.1327
 1177TIP3   OH225021   5.485   0.401  13.712 -0.3039 -0.0509 -0.1239
 1177TIP3    H125022   5.552   0.339  13.739  0.6546  0.9389 -0.1408
 1177TIP3    H225023   5.534   0.472  13.671 -1.3960  0.5526 -0.4138
 1178TIP3   OH225024   2.087   1.371  13.280 -0.1725 -0.5369 -0.0138
 1178TIP3    H125025   1.992   1.359  13.280 -0.4541  1.3582  0.2607
 1178TIP3    H225026   2.117   1.326  13.202 -1.2452 -1.5098  0.1168
 1179TIP3   OH225027   3.463   6.079   0.219 -0.1111 -0.6461 -0.3116
 1179TIP3    H125028   3.484   5.995   0.259 -1.5765 -1.1316 -0.5117
 1179TIP3    H225029   3.369   6.091   0.234  0.0140  0.8381 -0.5107
 1180TIP3   OH225030   6.655   6.293  12.435 -0.0266  0.4105  0.3636
 1180TIP3    H125031   6.693   6.266  12.351 -2.5903 -0.1920 -0.7006
 1180TIP3    H225032   6.644   6.388  12.428 -1.3910  0.2149 -0.5642
 1181TIP3   OH225033   3.362   5.619  11.553 -0.8536  0.0214 -0.0359
 1181TIP3    H125034   3.386   5.709  11.572 -1.3068  0.0688  0.3321
 1181TIP3    H225035   3.412   5.596  11.475  0.9185 -0.1044  1.0759
 1182TIP3   OH225036   2.385   3.607   3.144  0.2832  0.1924  0.2428
 1182TIP3    H125037   2.291   3.592   3.135  0.2149  1.3373 -1.3093
 1182TIP3    H225038   2.418   3.605   3.054  1.5802  0.8393  0.6851
 1183TIP3   OH225039   4.956   0.867  15.088 -0.0364  0.2010 -0.0478
 1183TIP3    H125040   5.030   0.923  15.064 -0.5588  1.0558  0.3007
 1183TIP3    H225041   4.927   0.901  15.172 -0.4328 -0.5350  0.1161
 1184TIP3   OH225042   5.001   3.602  16.281 -0.2343  0.5459  0.3342
 1184TIP3    H125043   5.055   3.554  16.218  0.1156  1.5821 -0.1812
 1184TIP3    H225044   4.917   3.614  16.236  0.9081  3.8268 -1.2382
 1185TIP3   OH225045   3.726   1.235  15.394 -0.5486  0.1249  0.2282
 1185TIP3    H125046   3.692   1.214  15.307 -1.3100  0.6462  0.3847
 1185TIP3    H225047   3.649   1.232  15.450 -0.5454  2.3149  0.4220
 1186TIP3   OH225048   2.774   0.513   2.993 -0.0400  0.1611  0.1389
 1186TIP3    H125049   2.682   0.533   3.014  0.3562  2.6360 -0.1442
 1186TIP3    H225050   2.772   0.488   2.901 -0.8521 -3.6395  1.0472
 1187TIP3   OH225051   6.196   2.145  17.084  0.0307 -0.3372  0.9068
 1187TIP3    H125052   6.152   2.188  17.010  0.1344 -2.2681 -0.3311
 1187TIP3    H225053   6.180   2.203  17.158 -1.8334  0.6391 -0.1976
 1188TIP3   OH225054   2.638   6.725   2.530 -0.4966  0.0378  0.1759
 1188TIP3    H125055   2.598   6.663   2.470 -1.5375  1.8938 -1.1511
 1188TIP3    H225056   2.589   6.714   2.612 -2.1530  0.5631 -0.6910
 1189TIP3   OH225057   5.414   1.047   5.528 -0.1707  0.5112  0.0401
 1189TIP3    H125058   5.353   0.974   5.533  1.6564 -1.3364 -2.2627
 1189TIP3    H225059   5.471   1.035   5.604  0.4644 -0.8858 -0.6143
 1190TIP3   OH225060   2.042   1.459  14.340  0.1435  0.1005  0.4145
 1190TIP3    H125061   2.069   1.474  14.250  0.2612 -0.4394  0.3564
 1190TIP3    H225062   1.998   1.540  14.366  0.1537  0.2757 -0.1096
 1191TIP3   OH225063   1.309   1.164  17.255 -0.6842 -0.4167 -0.7576
 1191TIP3    H125064   1.242   1.137  17.319 -1.3934  1.1652 -0.7731
 1191TIP3    H225065   1.355   1.083  17.233 -3.2852 -1.8239 -1.5565
 1192TIP3   OH225066   3.372   5.235   4.619  0.5699  0.0920  0.0467
 1192TIP3    H125067   3.451   5.220   4.567  0.7053  0.9889 -0.0237
 1192TIP3    H225068   3.381   5.324   4.651 -0.9489  0.6225 -0.9027
 1193TIP3   OH225069   5.012   1.097   4.326 -0.0995  0.0978 -0.2653
 1193TIP3    H125070   5.001   1.084   4.420 -0.7054  0.2410 -0.3150
 1193TIP3    H225071   4.945   1.161   4.302 -1.1460 -1.2549 -1.1058
 1194TIP3   OH225072   3.597   4.060  15.665 -0.1087  0.1003 -0.0621
 1194TIP3    H125073   3.603   4.009  15.584 -1.4666 -0.9113  0.4415
 1194TIP3    H225074   3.540   4.008  15.722  1.3419  0.4601  1.8156
 1195TIP3   OH225075   2.933   1.722  17.136 -0.4072 -0.4153 -0.2448
 1195TIP3    H125076   2.869   1.788  17.162  0.8764  1.5063 -1.7233
 1195TIP3    H225077   2.908   1.698  17.047  1.2588  0.9461 -1.1600
 1196TIP3   OH225078   4.823   2.803  11.400  0.2208 -0.0460  0.3266
 1196TIP3    H125079   4.797   2.715  11.371 -0.2753  0.1566  0.1517
 1196TIP3    H225080   4.754   2.830  11.460  0.7471 -0.0623  0.9519
 1197TIP3   OH225081   1.826   1.205   6.366  0.2725 -0.2928 -0.0384
 1197TIP3    H125082   1.917   1.188   6.389  0.7607  3.0821  1.0844
 1197TIP3    H225083   1.775   1.146   6.421  1.7621 -1.0646  0.5438
 1198TIP3   OH225084   1.060   2.427  13.583  0.2574 -0.7914  0.1483
 1198TIP3    H125085   1.074   2.513  13.624  0.6400 -1.0178  0.4940
 1198TIP3    H225086   1.047   2.367  13.656  2.4267 -1.4808  0.0545
 1199TIP3   OH225087   4.480   3.987   0.797  0.2322  0.1711  0.0972
 1199TIP3    H125088   4.455   4.076   0.824 -1.9300 -0.0054 -1.0591
 1199TIP3    H225089   4.398   3.948   0.766  1.2730 -1.9884 -0.1184
 1200TIP3   OH225090   5.758   3.380  12.677  0.0534 -0.2151  0.1563
 1200TIP3    H125091   5.663   3.382  12.691  0.0085 -2.1973  0.4501
 1200TIP3    H225092   5.776   3.457  12.623 -2.0621 -0.9165 -1.7145
 1201TIP3   OH225093   2.908   3.607   3.526  0.2910  0.2701  0.5113
 1201TIP3    H125094   2.955   3.657   3.592  0.7940  1.0336 -0.4231
 1201TIP3    H225095   2.817   3.608   3.556  0.5129  0.6086  1.1865
 1202TIP3   OH225096   6.421   5.784   4.168  0.3975  0.2894  0.5933
 1202TIP3    H125097   6.453   5.753   4.253 -1.5755  0.4980  1.4673
 1202TIP3    H225098   6.389   5.705   4.124  0.3780  0.3353  0.5245
 1203TIP3   OH225099   3.191   1.700  17.200  0.0648  0.3882 -0.2180
 1203TIP3    H125100   3.103   1.703  17.162  0.7794 -0.1737 -2.0143
 1203TIP3    H225101   3.243   1.758  17.145  1.4049 -1.3718 -0.9107
 1204TIP3   OH225102   5.147   2.942  12.428 -0.0470 -0.0138  0.0877
 1204TIP3    H125103   5.080   2.874  12.417 -0.7894  0.3805  1.9060
 1204TIP3    H225104   5.121   3.011  12.367 -1.5048  0.2590  0.9677
 1205TIP3   OH225105   6.331   1.566   0.773  0.4947 -0.7522  0.2313
 1205TIP3    H125106   6.352   1.562   0.680  0.6203 -2.1428  0.2967
 1205TIP3    H225107   6.247   1.519   0.780  0.9999 -1.5861  0.9351
 1206TIP3   OH225108   5.838   5.393   4.995  0.7290 -0.2601 -0.3248
 1206TIP3    H125109   5.824   5.300   5.011  0.4929 -0.2013 -0.1731
 1206TIP3    H225110   5.881   5.425   5.075 -0.8584  0.1249  0.4119
 1207TIP3   OH225111   4.557   1.340  11.740 -0.8211  0.8182 -0.4881
 1207TIP3    H125112   4.467   1.346  11.773 -1.5166 -0.7351 -1.9771
 1207TIP3    H225113   4.566   1.249  11.711  0.0503  1.7811 -3.5614
 1208TIP3   OH225114   1.844   5.518  14.914  0.0421 -0.3748 -0.0734
 1208TIP3    H125115   1.884   5.473  14.989 -2.0589  0.5040  1.6745
 1208TIP3    H225116   1.777   5.457  14.883  0.0498 -0.1989 -0.4420
 1209TIP3   OH225117   5.790   3.034   3.699  0.3419  0.2052  0.2258
 1209TIP3    H125118   5.787   3.083   3.617  2.2349  2.0627  1.1828
 1209TIP3    H225119   5.745   3.090   3.762 -0.3123 -0.8101  0.6953
 1210TIP3   OH225120   1.604   4.671  14.233 -0.3165 -0.1050 -0.0489
 1210TIP3    H125121   1.667   4.740  14.214 -1.6371  0.9114 -0.8857
 1210TIP3    H225122   1.655   4.590  14.226  0.7972  0.6573 -1.0957
 1211TIP3   OH225123   3.476   4.506  14.243 -0.1502 -0.1505  0.3387
 1211TIP3    H125124   3.451   4.598  14.231 -1.5440 -0.3064  1.7775
 1211TIP3    H225125   3.529   4.506  14.322  0.3647 -0.5268 -0.0004
 1212TIP3   OH225126   2.276   2.587   1.502  0.0422  0.4613  0.5251
 1212TIP3    H125127   2.317   2.666   1.466 -1.1983  1.2625  0.8157
 1212TIP3    H225128   2.286   2.595   1.597  0.4733 -0.0597  0.5303
 1213TIP3   OH225129   1.905   3.578  12.662 -0.0157 -0.3777 -0.2390
 1213TIP3    H125130   1.925   3.551  12.572  2.9432  0.3720  0.0921
 1213TIP3    H225131   1.836   3.518  12.690 -0.0013 -1.5816 -2.5018
 1214TIP3   OH225132   6.722   5.677   4.258 -0.1675  0.1760 -0.9103
 1214TIP3    H125133   6.658   5.706   4.323 -0.3946 -0.0017 -1.0545
 1214TIP3    H225134   6.685   5.703   4.174 -1.1330 -1.8689 -1.1827
 1215TIP3   OH225135   0.528   1.862   2.637 -0.3305  0.0851  0.0977
 1215TIP3    H125136   0.512   1.952   2.608 -0.9377 -0.1245 -0.2384
 1215TIP3    H225137   0.560   1.817   2.559 -0.0079  0.0070  0.2711
 1216TIP3   OH225138   6.660   6.811   0.706  0.0279  0.1010  0.1626
 1216TIP3    H125139   6.728   6.877   0.717  0.0010  0.1024  0.3300
 1216TIP3    H225140   6.624   6.800   0.794 -0.4738  0.4064  0.0023
 1217TIP3   OH225141   3.069   5.435   2.783 -0.5142  0.0386 -0.2920
 1217TIP3    H125142   3.156   5.403   2.759 -0.4570  0.3780 -0.5442
 1217TIP3    H225143   3.049   5.392   2.867  0.0779  0.3035 -0.0152
 1218TIP3   OH225144   2.378   4.249   5.243  0.1346  0.3270  0.5697
 1218TIP3    H125145   2.436   4.222   5.314  0.2033 -0.0039  0.3886
 1218TIP3    H225146   2.291   4.218   5.269  0.1235  0.3887  0.6065
 1219TIP3   OH225147   0.975   3.372   3.177  0.7196 -0.0431  0.3567
 1219TIP3    H125148   0.976   3.406   3.087  1.0896 -0.9490 -0.0002
 1219TIP3    H225149   1.066   3.348   3.194  0.5347 -0.4870  0.7336
 1220TIP3   OH225150   1.476   1.406   4.249  0.2821  0.0805 -0.6001
 1220TIP3    H125151   1.539   1.335   4.237  0.5032  0.3429 -1.0539
 1220TIP3    H225152   1.512   1.479   4.198  0.3411  0.7012  0.2971
 1221TIP3   OH225153   6.114   6.814   5.022  0.0676 -0.2804  0.7389
 1221TIP3    H125154   6.037   6.849   5.066 -1.5864 -0.9097 -1.4835
 1221TIP3    H225155   6.114   6.857   4.937  1.5030 -1.1917  0.2487
 1222TIP3   OH225156   0.390   4.129  14.076  0.3175  0.3809  0.0888
 1222TIP3    H125157   0.356   4.218  14.085  0.2163  0.3164  0.3843
 1222TIP3    H225158   0.463   4.125  14.138 -0.5568 -0.1578  1.1348
 1223TIP3   OH225159   5.757   4.436  10.845  0.2392  0.4750  0.5822
 1223TIP3    H125160   5.755   4.404  10.935 -0.3246 -0.3773  0.2717
 1223TIP3    H225161   5.708   4.518  10.848 -2.2870 -0.9536  0.5453
 1224TIP3   OH225162   1.961   0.539   0.653 -0.0131 -0.7811 -0.0784
 1224TIP3    H125163   1.976   0.471   0.586  0.5078 -1.7432  0.9828
 1224TIP3    H225164   2.043   0.542   0.703 -0.4661 -0.2208  0.6487
 1225TIP3   OH225165   1.102   3.717   2.239 -0.4519 -0.3348  0.6096
 1225TIP3    H125166   1.104   3.621   2.243  2.0238 -0.2972  2.3381
 1225TIP3    H225167   1.021   3.741   2.284 -1.3688 -1.5790 -0.2939
 1226TIP3   OH225168   1.666   3.975   5.852  0.0040  0.4068  0.1962
 1226TIP3    H125169   1.623   3.960   5.936  2.4606 -0.9133  1.3511
 1226TIP3    H225170   1.702   3.889   5.828  1.2457  1.2249 -1.0571
 1227TIP3   OH225171   3.410   6.630  16.927  0.1331  0.2018  0.1225
 1227TIP3    H125172   3.385   6.722  16.926  0.3507  0.2834  1.0682
 1227TIP3    H225173   3.486   6.624  16.869  0.0245  0.5881 -0.0597
 1228TIP3   OH225174   1.581   6.723   1.448  0.2374 -0.1810  0.7066
 1228TIP3    H125175   1.660   6.749   1.496  0.6530  0.9236 -0.5066
 1228TIP3    H225176   1.582   6.778   1.370 -1.1578 -0.9450  0.1228
 1229TIP3   OH225177   5.842   2.353  11.327 -0.6435 -0.6435 -0.6585
 1229TIP3    H125178   5.796   2.322  11.249  0.7014 -0.2462 -1.6402
 1229TIP3    H225179   5.823   2.287  11.394 -1.6875 -1.0694 -1.3550
 1230TIP3   OH225180   2.352   5.391  14.323 -0.4173  0.6182 -0.3930
 1230TIP3    H125181   2.371   5.426  14.410 -0.9028  0.5157 -0.2406
 1230TIP3    H225182   2.351   5.296  14.336 -1.2358  0.6248 -0.3424
 1231TIP3   OH225183   2.766   3.566   2.911 -0.3821 -0.2682 -0.2233
 1231TIP3    H125184   2.812   3.648   2.890  0.3163 -0.7935 -0.7786
 1231TIP3    H225185   2.830   3.514   2.959 -1.5683  0.4276  2.2822
 1232TIP3   OH225186   5.685   2.718  10.740  0.1854  0.0492 -0.2143
 1232TIP3    H125187   5.621   2.769  10.790  1.0462 -1.0985  2.2455
 1232TIP3    H225188   5.637   2.639  10.714  0.1532 -0.1019  0.2839
 1233TIP3   OH225189   2.092   2.388   1.514  0.1046 -0.3875 -0.7242
 1233TIP3    H125190   2.084   2.420   1.604 -1.3772 -1.4567 -0.4316
 1233TIP3    H225191   2.153   2.449   1.472  1.3472 -0.2554  1.1602
 1234TIP3   OH225192   1.100   3.949   6.507  0.0186  0.3383 -0.4959
 1234TIP3    H125193   1.102   3.859   6.476  0.3119  0.6270 -1.3481
 1234TIP3    H225194   1.009   3.965   6.530 -0.1968  0.0989 -1.1823
 1235TIP3   OH225195   3.575   4.346  10.838  0.0821  0.1359  0.1108
 1235TIP3    H125196   3.488   4.379  10.818 -0.1752 -1.1950 -1.2203
 1235TIP3    H225197   3.609   4.316  10.753  0.7669 -1.7729  0.9871
 1236TIP3   OH225198   1.706   2.811   6.128  0.4630  0.4194 -0.0453
 1236TIP3    H125199   1.792   2.818   6.170  0.7937  0.7751 -0.7601
 1236TIP3    H225200   1.646   2.790   6.199  1.1467  0.1432  0.4629
 1237TIP3   OH225201   6.482   1.792   6.313  0.2093 -0.1589 -0.0175
 1237TIP3    H125202   6.403   1.764   6.359 -1.5226  0.5006 -2.4199
 1237TIP3    H225203   6.469   1.885   6.297  2.2592  0.3438  0.9236
 1238TIP3   OH225204   5.798   5.313   1.329  0.3429 -0.3251  0.2543
 1238TIP3    H125205   5.889   5.325   1.356  0.7713  0.2805 -1.3171
 1238TIP3    H225206   5.747   5.322   1.410  1.5933  0.3854  0.9904
 1239TIP3   OH225207   1.419   5.891   5.502  0.0608  0.0619  1.1080
 1239TIP3    H125208   1.382   5.975   5.528  0.1437  0.7971 -0.9851
 1239TIP3    H225209   1.344   5.833   5.492 -0.1328  0.3179  1.0724
 1240TIP3   OH225210   1.226   4.103  17.152 -0.9427  0.0054 -0.1594
 1240TIP3    H125211   1.173   4.029  17.180 -1.6121 -0.3986 -2.3830
 1240TIP3    H225212   1.316   4.071  17.158 -1.0507 -0.1076  1.2858
 1241TIP3   OH225213   0.743   0.772  12.259 -0.3964 -0.2240  0.0265
 1241TIP3    H125214   0.727   0.846  12.319 -0.9974 -0.8311  0.6344
 1241TIP3    H225215   0.734   0.694  12.315  1.8467 -0.7214 -0.2409
 1242TIP3   OH225216   2.683   5.312   6.520  0.2772 -0.8097 -0.5166
 1242TIP3    H125217   2.728   5.281   6.599  0.0587 -0.9252 -0.4394
 1242TIP3    H225218   2.692   5.241   6.457 -2.5315 -2.1962  0.5064
 1243TIP3   OH225219   3.931   5.165  14.105  0.5773 -0.1543  0.0713
 1243TIP3    H125220   3.865   5.182  14.173 -0.0823 -0.2652 -0.5346
 1243TIP3    H225221   3.884   5.115  14.038  1.4622 -0.8540 -0.0401
 1244TIP3   OH225222   3.662   2.143  16.389 -0.0401  0.1192  0.2520
 1244TIP3    H125223   3.627   2.149  16.477 -0.5959 -1.3077  0.1694
 1244TIP3    H225224   3.621   2.215  16.341 -2.2727 -0.9729  0.3813
 1245TIP3   OH225225   3.028   0.159   4.502 -0.0240 -0.1354  0.0065
 1245TIP3    H125226   3.106   0.129   4.456  0.9617 -0.9157  2.0816
 1245TIP3    H225227   2.998   0.235   4.452  2.8847  1.0641 -0.0707
 1246TIP3   OH225228   3.619   0.973   2.952 -0.1920  0.2227  0.2920
 1246TIP3    H125229   3.606   1.005   2.863 -1.6408 -0.6676  0.1463
 1246TIP3    H225230   3.541   1.002   2.999  0.0544 -0.2210  0.9880
 1247TIP3   OH225231   5.249   5.084  11.332  0.1858 -0.3378 -0.1966
 1247TIP3    H125232   5.203   5.008  11.368 -0.6045 -0.3817 -1.2345
 1247TIP3    H225233   5.179   5.141  11.299  0.7897  0.6144  0.1058
 1248TIP3   OH225234   4.455   5.268  13.526 -0.4275  0.6952 -0.1202
 1248TIP3    H125235   4.370   5.300  13.496 -0.1250  1.3827 -0.2542
 1248TIP3    H225236   4.459   5.177  13.495 -2.3567 -0.3748  2.4107
 1249TIP3   OH225237   3.871   6.066  12.064 -0.2081 -0.7737  0.2211
 1249TIP3    H125238   3.811   6.083  11.991 -0.7600 -0.8638  0.6475
 1249TIP3    H225239   3.827   5.998  12.116 -0.2487 -0.0752  1.1288
 1250TIP3   OH225240   4.767   5.716   2.566 -0.5442 -0.3067 -0.5273
 1250TIP3    H125241   4.857   5.694   2.545 -0.1607  1.5686 -1.0180
 1250TIP3    H225242   4.764   5.720   2.662  0.4686  1.6227 -0.5178
 1251TIP3   OH225243   6.356   6.691  11.912 -0.8056 -0.2896 -0.0579
 1251TIP3    H125244   6.437   6.738  11.895 -0.5806 -0.7582 -0.2847
 1251TIP3    H225245   6.299   6.757  11.952  0.0178 -0.1990  1.0188
 1252TIP3   OH225246   0.978   4.608  10.753 -0.8734  0.0484 -1.0454
 1252TIP3    H125247   1.065   4.645  10.771 -1.0286  0.4899 -1.1929
 1252TIP3    H225248   0.952   4.647  10.670 -2.4394  2.1904  0.3608
 1253TIP3   OH225249   5.112   6.613  11.212 -0.4396 -0.9597 -0.3406
 1253TIP3    H125250   5.050   6.680  11.185 -0.5967 -0.6814  0.6874
 1253TIP3    H225251   5.127   6.561  11.133 -4.0677 -2.7443 -0.0816
 1254TIP3   OH225252   3.771   1.907   3.293  0.4756 -0.0772 -0.2661
 1254TIP3    H125253   3.800   1.999   3.291  0.2281  0.0525  1.3107
 1254TIP3    H225254   3.706   1.903   3.363  2.5215 -2.0210  1.6864
 1255TIP3   OH225255   2.661   1.496  11.629  0.5836 -0.4279  0.2907
 1255TIP3    H125256   2.689   1.565  11.690  2.1880 -0.2396 -0.6223
 1255TIP3    H225257   2.659   1.416  11.682  0.7981 -0.0560  0.8647
 1256TIP3   OH225258   4.153   2.632   2.545  0.3032 -0.5646  0.5073
 1256TIP3    H125259   4.241   2.666   2.524  0.0419  0.6794  1.2623
 1256TIP3    H225260   4.094   2.684   2.491 -0.0428 -0.5437  0.8995
 1257TIP3   OH225261   6.760   1.015   5.007 -0.2641  0.0587  0.0905
 1257TIP3    H125262   6.841   1.032   5.054 -0.3748  1.2093 -0.0871
 1257TIP3    H225263   6.764   0.923   4.982  0.5253 -0.1448  0.9456
 1258TIP3   OH225264   3.250   6.507  11.238  0.3035  0.0543  0.3277
 1258TIP3    H125265   3.253   6.581  11.300 -1.5621  2.7768 -2.5380
 1258TIP3    H225266   3.296   6.539  11.161 -2.0872 -1.0190 -1.6652
 1259TIP3   OH225267   5.219   4.132   2.482 -0.4066  0.0365  0.0604
 1259TIP3    H125268   5.308   4.169   2.477  0.5033 -1.9587  0.5603
 1259TIP3    H225269   5.222   4.055   2.424 -1.6362 -0.4009  0.5561
 1260TIP3   OH225270   0.961   2.239   0.522 -0.0821 -0.1444 -0.1119
 1260TIP3    H125271   0.905   2.261   0.596 -1.1517  0.2773 -1.0291
 1260TIP3    H225272   0.904   2.246   0.445  0.9311 -0.8397 -0.9562
 1261TIP3   OH225273   3.780   4.202   1.919  0.1371 -0.5870 -0.7291
 1261TIP3    H125274   3.812   4.131   1.864  1.3306 -1.3655  0.9119
 1261TIP3    H225275   3.855   4.261   1.928 -0.0558 -0.4570  0.0662
 1262TIP3   OH225276   2.773   3.520  11.649 -0.4453 -0.3284 -0.1815
 1262TIP3    H125277   2.713   3.594  11.663 -1.4802 -1.4034  1.4105
 1262TIP3    H225278   2.720   3.455  11.603 -0.4655 -1.1900  1.0186
 1263TIP3   OH225279   3.970   0.810  14.547 -0.5524 -0.9847 -0.0490
 1263TIP3    H125280   3.963   0.715  14.537 -0.8723 -1.2910  2.4409
 1263TIP3    H225281   4.059   0.831  14.519 -0.4260 -2.0355 -0.4675
 1264TIP3   OH225282   4.347   1.850  16.207 -0.1643  0.6237  0.1195
 1264TIP3    H125283   4.288   1.902  16.262 -2.0285 -0.2219 -0.9660
 1264TIP3    H225284   4.402   1.914  16.164 -0.8000  1.5232  0.6059
 1265TIP3   OH225285   3.072   6.131  13.195  0.5037  0.2541  0.0517
 1265TIP3    H125286   3.155   6.129  13.147 -0.0040 -0.6082 -0.8377
 1265TIP3    H225287   3.012   6.176  13.136 -0.2441 -1.2063 -0.3521
 1266TIP3   OH225288   5.553   1.301  11.956 -0.1063 -0.2719  0.0684
 1266TIP3    H125289   5.645   1.324  11.970 -0.9433  2.0812  2.4477
 1266TIP3    H225290   5.542   1.220  12.007  0.3917  0.0629  0.7329
 1267TIP3   OH225291   3.891   0.924   4.041  0.2934 -0.6586  0.2452
 1267TIP3    H125292   3.878   1.017   4.020 -0.9769 -0.8416  0.1419
 1267TIP3    H225293   3.960   0.895   3.982  0.3467  0.0957 -0.0689
 1268TIP3   OH225294   4.864   6.576  12.437  0.5590  0.4506  0.1285
 1268TIP3    H125295   4.783   6.626  12.427  0.0698 -0.3439  0.0685
 1268TIP3    H225296   4.885   6.583  12.530  0.1816  0.2964  0.2267
 1269TIP3   OH225297   2.576   0.315   4.860 -0.6230 -0.4680 -0.3645
 1269TIP3    H125298   2.671   0.313   4.869 -0.5228  2.7275  0.3719
 1269TIP3    H225299   2.561   0.303   4.766  0.5045 -0.9504 -0.4985
 1270TIP3   OH225300   6.078   3.041   1.988 -0.3888 -0.4964  1.0314
 1270TIP3    H125301   6.142   2.970   1.995 -0.6527 -0.6336  2.1142
 1270TIP3    H225302   5.997   2.997   1.964 -0.4118 -0.4870  1.0932
 1271TIP3   OH225303   3.063   4.838  15.102  0.1471 -0.0995  0.4515
 1271TIP3    H125304   2.992   4.893  15.136  0.5171 -0.8822  2.6261
 1271TIP3    H225305   3.140   4.868  15.149  0.7926 -0.9457 -0.0487
 1272TIP3   OH225306   2.561   1.492   4.012 -0.4773 -0.4916  0.1516
 1272TIP3    H125307   2.570   1.530   4.099 -0.4009  1.0210 -0.4920
 1272TIP3    H225308   2.590   1.401   4.023 -1.2971 -0.5936  1.8753
 1273TIP3   OH225309   1.414   1.186   3.084 -0.6255 -0.1444 -0.1366
 1273TIP3    H125310   1.487   1.224   3.035  0.1534  0.2155  1.2394
 1273TIP3    H225311   1.361   1.142   3.018 -0.6302  1.8785 -1.5664
 1274TIP3   OH225312   1.654   2.519  15.373 -0.1354  0.3800  0.3691
 1274TIP3    H125313   1.685   2.548  15.287 -0.0356 -2.1321 -0.5334
 1274TIP3    H225314   1.567   2.482  15.357 -0.0638 -0.2466  1.3141
 1275TIP3   OH225315   3.675   6.821  12.789 -0.0311  0.8856 -0.0933
 1275TIP3    H125316   3.677   6.808  12.884 -1.3651 -3.3764 -0.4456
 1275TIP3    H225317   3.588   6.857  12.771 -0.1097  0.8519  0.2140
 1276TIP3   OH225318   6.067   0.444  15.407  0.4018  0.7319 -0.6726
 1276TIP3    H125319   6.098   0.375  15.348 -0.3131 -0.4591  0.2923
 1276TIP3    H225320   5.995   0.485  15.360 -2.1085 -2.0920  0.3633
 1277TIP3   OH225321   0.975   0.640  14.446 -0.1962  0.6980 -0.6074
 1277TIP3    H125322   0.997   0.622  14.538 -1.1203  1.1797 -0.2846
 1277TIP3    H225323   0.884   0.612  14.438 -0.4060  1.5331 -1.1343
 1278TIP3   OH225324   5.616   6.079  13.093 -0.2171  0.6463  0.4665
 1278TIP3    H125325   5.665   6.055  13.172 -0.2341 -1.3828 -0.0845
 1278TIP3    H225326   5.681   6.120  13.036 -0.2958  2.5163  1.6449
 1279TIP3   OH225327   0.671   6.174   4.672  0.3000  0.2705 -0.0103
 1279TIP3    H125328   0.655   6.102   4.732 -0.5079 -0.2697 -0.8580
 1279TIP3    H225329   0.648   6.253   4.722 -0.8073 -0.1995  0.2445
 1280TIP3   OH225330   0.734   3.020  15.493  0.2461 -0.3130  0.3115
 1280TIP3    H125331   0.797   3.034  15.423 -1.0750  1.8959 -0.5200
 1280TIP3    H225332   0.688   2.939  15.468  0.2264  0.0941 -1.0663
 1281TIP3   OH225333   3.905   0.575   4.470  0.0935 -0.4247 -0.1025
 1281TIP3    H125334   3.925   0.488   4.437 -0.1117 -0.2686 -0.6558
 1281TIP3    H225335   3.817   0.594   4.436  0.1981  0.0559 -0.1180
 1282TIP3   OH225336   4.332   0.637  13.271 -0.2250  0.1229 -0.2253
 1282TIP3    H125337   4.372   0.592  13.196  0.2386  0.2648 -0.0717
 1282TIP3    H225338   4.407   0.664  13.325 -0.5109  0.8186 -0.1655
 1283TIP3   OH225339   1.386   4.465   6.175 -0.0291  0.3142 -0.1743
 1283TIP3    H125340   1.443   4.501   6.243  0.1177  0.8290 -0.5614
 1283TIP3    H225341   1.301   4.455   6.218  0.4779 -1.0258  0.5772
 1284TIP3   OH225342   6.657   4.847  16.494  0.3052  0.5306 -0.1530
 1284TIP3    H125343   6.678   4.757  16.520  1.0156  0.7112 -0.0751
 1284TIP3    H225344   6.605   4.837  16.415  2.8695  0.0943 -1.9026
 1285TIP3   OH225345   6.428   1.600   1.907  0.0132  0.0854 -0.3173
 1285TIP3    H125346   6.483   1.601   1.829 -0.5010 -2.1321 -0.7738
 1285TIP3    H225347   6.347   1.558   1.878 -0.6895  0.3933  1.1066
 1286TIP3   OH225348   5.351   2.761   0.223 -0.4743  0.3985 -0.1618
 1286TIP3    H125349   5.431   2.782   0.271  0.0780  1.5045 -1.4790
 1286TIP3    H225350   5.282   2.810   0.268 -0.1510  0.6081  0.1055
 1287TIP3   OH225351   0.232   5.320  13.294  0.5355  0.1035  0.4670
 1287TIP3    H125352   0.278   5.308  13.377 -0.2013  1.5349  1.1175
 1287TIP3    H225353   0.294   5.368  13.239  0.6851 -0.0355  0.5141
 1288TIP3   OH225354   4.887   0.513   0.174  0.5453 -0.2392 -0.4711
 1288TIP3    H125355   4.854   0.433   0.216 -0.0248 -0.2850 -0.9947
 1288TIP3    H225356   4.968   0.486   0.130  2.0537  0.1456  1.8763
 1289TIP3   OH225357   1.916   0.157   0.165  0.5453 -0.5438  0.1989
 1289TIP3    H125358   1.917   0.080   0.221 -0.0862  0.1421  1.1924
 1289TIP3    H225359   1.941   0.125   0.078  1.9034 -1.5760  0.9376
 1290TIP3   OH225360   3.135   3.765   5.243  0.2659 -0.4598 -0.2426
 1290TIP3    H125361   3.074   3.692   5.253  0.4501 -0.6190 -0.2810
 1290TIP3    H225362   3.079   3.843   5.240  0.1594 -0.4499  1.4393
 1291TIP3   OH225363   2.678   1.248   4.045  0.1216 -0.1488  0.3884
 1291TIP3    H125364   2.765   1.288   4.039  0.3449 -0.5751  0.7394
 1291TIP3    H225365   2.695   1.158   4.071 -0.4273 -0.2410  0.4331
 1292TIP3   OH225366   3.631   0.559   6.535  0.5673  0.0715 -0.1670
 1292TIP3    H125367   3.646   0.486   6.595 -1.2070 -0.8733 -0.8083
 1292TIP3    H225368   3.545   0.594   6.562  0.3903  0.5090 -1.2675
 1293TIP3   OH225369   3.447   2.744  12.247 -0.3013 -0.3744 -0.2019
 1293TIP3    H125370   3.418   2.816  12.191 -1.3575 -1.5304 -1.2074
 1293TIP3    H225371   3.471   2.675  12.185  0.8508 -0.8457  0.7365
 1294TIP3   OH225372   6.183   2.310   0.025 -0.6377 -0.6637 -0.2474
 1294TIP3    H125373   6.156   2.264   0.104 -1.7217 -0.4270 -0.4623
 1294TIP3    H225374   6.153   2.400   0.038 -1.2291 -0.7249 -1.1044
 1295TIP3   OH225375   5.257   1.832  16.502  0.5958  0.1093 -0.0977
 1295TIP3    H125376   5.346   1.865  16.511  0.0322  2.1385 -1.3540
 1295TIP3    H225377   5.230   1.857  16.414 -0.4991 -2.3988 -0.5710
 1296TIP3   OH225378   0.782   0.562  16.977  0.2041  0.1446 -0.1963
 1296TIP3    H125379   0.780   0.486  16.918 -0.9191 -0.0973  0.1176
 1296TIP3    H225380   0.708   0.547  17.037 -0.8453  2.0918 -0.9026
 1297TIP3   OH225381   0.994   6.548  11.041  0.1609  0.0693 -0.6773
 1297TIP3    H125382   0.962   6.458  11.044  0.6228 -0.1484 -1.7881
 1297TIP3    H225383   0.997   6.570  10.948 -0.4017  1.4119 -0.4092
 1298TIP3   OH225384   0.397   3.483   3.013 -0.3055  0.5001  0.2000
 1298TIP3    H125385   0.313   3.523   3.036 -0.3709 -1.1322  3.3322
 1298TIP3    H225386   0.374   3.397   2.978 -0.0272 -0.7768  2.9098
 1299TIP3   OH225387   2.475   1.188  11.396  0.1948  0.5680  0.8003
 1299TIP3    H125388   2.488   1.094  11.400 -0.8993  0.2702 -1.2887
 1299TIP3    H225389   2.500   1.220  11.483 -0.0591 -1.7085  1.7660
 1300TIP3   OH225390   3.180   5.911  15.585  0.2101 -0.2341  0.1357
 1300TIP3    H125391   3.268   5.949  15.582 -0.5325  1.4645 -1.0881
 1300TIP3    H225392   3.121   5.984  15.570 -1.3373 -1.6973 -1.3526
 1301TIP3   OH225393   0.253   3.099  12.082  0.2615  0.0780  0.0474
 1301TIP3    H125394   0.323   3.163  12.071  0.9308 -0.7435 -0.5679
 1301TIP3    H225395   0.292   3.015  12.056 -1.1833 -0.2616 -1.1360
 1302TIP3   OH225396   5.676   6.047   3.992 -0.2505  0.2858  0.3348
 1302TIP3    H125397   5.666   5.963   4.037  0.3258  1.7362  3.3989
 1302TIP3    H225398   5.718   6.104   4.056  1.5333  2.3274 -2.4087
 1303TIP3   OH225399   4.334   6.436  13.838  0.0752 -0.6359 -0.0642
 1303TIP3    H125400   4.422   6.405  13.861 -0.2959 -1.6571  0.0390
 1303TIP3    H225401   4.282   6.422  13.917  0.3420  2.2551  0.7214
 1304TIP3   OH225402   2.513   5.473  15.533  0.2601  0.2535 -0.2544
 1304TIP3    H125403   2.545   5.547  15.584 -0.6231  0.8345 -0.5247
 1304TIP3    H225404   2.538   5.494  15.443 -0.5626  0.5467 -0.4207
 1305TIP3   OH225405   5.755   4.239  11.098 -0.2021 -0.0419  0.2899
 1305TIP3    H125406   5.839   4.250  11.143 -0.0877 -0.2393  0.1250
 1305TIP3    H225407   5.741   4.145  11.096 -1.7857  0.0201  2.8163
 1306TIP3   OH225408   1.481   2.421   2.133 -0.0097 -0.5149 -0.6123
 1306TIP3    H125409   1.443   2.469   2.207  2.1235 -0.5574  0.5864
 1306TIP3    H225410   1.411   2.417   2.068 -2.1071 -0.7885  1.5395
 1307TIP3   OH225411   3.018   2.758   3.524 -0.2087 -0.2174 -0.3989
 1307TIP3    H125412   2.985   2.671   3.499 -0.6971 -0.0805 -0.2425
 1307TIP3    H225413   3.100   2.767   3.476 -0.6136 -0.3868 -1.1433
 1308TIP3   OH225414   3.408   6.794  15.869  0.0883  0.4340 -0.0907
 1308TIP3    H125415   3.349   6.859  15.830 -0.0033  0.6899  0.4556
 1308TIP3    H225416   3.463   6.846  15.928 -2.2730 -0.3887  3.0633
 1309TIP3   OH225417   0.623   3.012  10.869 -0.1427  0.3377 -0.0584
 1309TIP3    H125418   0.642   2.936  10.814  1.4350  1.1254 -0.6619
 1309TIP3    H225419   0.556   3.060  10.820 -0.2917 -0.0524 -0.2467
 1310TIP3   OH225420   4.797   5.983   0.908 -0.0342 -0.0180 -0.2853
 1310TIP3    H125421   4.825   5.939   0.828  0.2950  0.5753 -0.5060
 1310TIP3    H225422   4.766   5.913   0.965  0.5429 -0.5416 -0.6032
 1311TIP3   OH225423   2.397   3.152  14.838  0.3992 -0.0385 -0.7815
 1311TIP3    H125424   2.440   3.238  14.835 -3.4988  2.1428 -1.1077
 1311TIP3    H225425   2.325   3.164  14.900  1.0355 -3.9062  1.0092
 1312TIP3   OH225426   5.291   0.721  13.518 -0.4205  0.0624  0.2591
 1312TIP3    H125427   5.379   0.727  13.556 -0.7061  0.0724  0.9325
 1312TIP3    H225428   5.234   0.761  13.584 -0.9576 -0.1361 -0.0808
 1313TIP3   OH225429   2.317   5.211   3.720  0.3528 -0.5973  0.4640
 1313TIP3    H125430   2.267   5.273   3.667  0.6813  1.2347  2.1802
 1313TIP3    H225431   2.408   5.225   3.694  0.5964  0.8299  1.9066
 1314TIP3   OH225432   3.277   2.430   1.400 -0.2850  0.0676 -0.0463
 1314TIP3    H125433   3.274   2.525   1.412  0.2092  0.3341 -1.7908
 1314TIP3    H225434   3.369   2.409   1.383 -0.6992 -0.3118 -2.2455
 1315TIP3   OH225435   4.261   1.732  17.204  0.1687 -0.1358  0.6609
 1315TIP3    H125436   4.245   1.779  17.286 -0.5132 -0.7783  0.9053
 1315TIP3    H225437   4.354   1.748  17.185 -0.7598  4.4545 -1.2781
 1316TIP3   OH225438   3.437   1.484   5.817  0.0999  0.0722 -0.5081
 1316TIP3    H125439   3.530   1.501   5.831  0.1727 -0.7873  0.0771
 1316TIP3    H225440   3.412   1.425   5.888 -1.0767  0.9054 -0.1948
 1317TIP3   OH225441   0.713   3.293  16.740  0.5178  0.0112 -0.6685
 1317TIP3    H125442   0.727   3.386  16.761  1.8566 -0.3511  0.0865
 1317TIP3    H225443   0.742   3.246  16.818  2.2329 -1.1755 -1.9712
 1318TIP3   OH225444   6.233   6.701   4.530  0.0418 -0.6154 -0.2262
 1318TIP3    H125445   6.229   6.789   4.495 -1.2048 -0.0836  1.1333
 1318TIP3    H225446   6.164   6.698   4.596 -0.0258 -2.6422 -0.3075
 1319TIP3   OH225447   6.331   1.808  14.176  0.7733  0.1370  0.7932
 1319TIP3    H125448   6.378   1.811  14.092  0.2166  0.2473  0.4820
 1319TIP3    H225449   6.349   1.721  14.210  1.5076  0.3060  0.8550
 1320TIP3   OH225450   2.667   5.106   6.318  0.2728  0.1029 -0.3526
 1320TIP3    H125451   2.583   5.119   6.274 -0.4974 -0.8982  0.7684
 1320TIP3    H225452   2.686   5.013   6.304  1.2272  0.3350 -0.6349
 1321TIP3   OH225453   0.711   1.821  11.482  0.1464 -0.4577 -0.7465
 1321TIP3    H125454   0.784   1.790  11.535  0.0803  0.6967  0.0668
 1321TIP3    H225455   0.656   1.869  11.543 -0.7482 -0.4198 -1.5593
 1322TIP3   OH225456   1.760   0.629  16.373 -0.1119  0.0886 -0.6002
 1322TIP3    H125457   1.756   0.554  16.314  0.5683  0.2169 -0.8091
 1322TIP3    H225458   1.853   0.643  16.389 -0.2929 -0.9563  1.8041
 1323TIP3   OH225459   4.698   4.508  11.422 -0.0991  0.2673  0.0605
 1323TIP3    H125460   4.746   4.555  11.491  2.6404  0.0003 -1.5318
 1323TIP3    H225461   4.756   4.435  11.399 -1.9076 -0.8530 -1.1195
 1324TIP3   OH225462   5.977   0.984   2.388 -0.0290  0.9636 -0.1105
 1324TIP3    H125463   5.894   0.982   2.436  1.0780  0.8527  1.9091
 1324TIP3    H225464   5.978   0.902   2.338 -1.7297  1.6234 -1.3318
 1325TIP3   OH225465   0.966   2.848   6.469 -0.4113 -0.1397 -0.1327
 1325TIP3    H125466   1.029   2.819   6.403  0.3703 -3.1966  1.7440
 1325TIP3    H225467   1.020   2.886   6.538 -0.8093 -0.7163  0.5075
 1326TIP3   OH225468   1.161   0.535   4.957  0.2382  0.2656  0.4925
 1326TIP3    H125469   1.110   0.564   4.882 -2.5774 -0.6420  1.9138
 1326TIP3    H225470   1.223   0.606   4.973 -1.6782  2.2531 -0.3504
 1327TIP3   OH225471   1.674   2.961   4.505 -0.3553 -0.2118 -0.5348
 1327TIP3    H125472   1.677   2.962   4.601 -0.1096  1.1182 -0.5422
 1327TIP3    H225473   1.600   3.019   4.483 -0.1897 -0.2306 -1.1525
 1328TIP3   OH225474   5.241   4.944   0.222  0.0103 -0.1115 -1.0238
 1328TIP3    H125475   5.240   4.933   0.127 -1.3652  1.7111 -1.2708
 1328TIP3    H225476   5.153   4.972   0.244  0.4109 -0.1424  0.7613
 1329TIP3   OH225477   1.045   5.773   2.774 -0.2107 -0.3206 -0.1633
 1329TIP3    H125478   1.058   5.860   2.737  1.8413 -0.6457 -0.2997
 1329TIP3    H225479   1.042   5.714   2.699  1.7653 -0.7211  0.0127
 1330TIP3   OH225480   6.192   0.355  13.636 -0.3507 -0.5610 -0.3994
 1330TIP3    H125481   6.199   0.265  13.667 -0.6812 -0.8831 -1.2392
 1330TIP3    H225482   6.136   0.398  13.700  1.7347 -0.2928  1.3763
 1331TIP3   OH225483   1.126   1.906   4.896  0.1819  0.2833 -0.5583
 1331TIP3    H125484   1.178   1.943   4.824  0.6726  1.6555  0.4589
 1331TIP3    H225485   1.054   1.967   4.908  0.6765  0.6517  0.7652
 1332TIP3   OH225486   1.270   3.979  11.043 -0.1762 -0.0372  0.4431
 1332TIP3    H125487   1.239   4.067  11.020 -0.9056 -0.2058  0.7402
 1332TIP3    H225488   1.364   3.981  11.025 -0.5478  0.0615 -1.8754
 1333TIP3   OH225489   3.854   0.882   0.964  0.2645  0.2288 -0.0817
 1333TIP3    H125490   3.812   0.835   0.891  0.0241 -0.2388  0.3540
 1333TIP3    H225491   3.947   0.885   0.940  0.2464 -0.2738 -0.2246
 1334TIP3   OH225492   3.220   5.317  12.230 -0.5252 -0.1820  0.0802
 1334TIP3    H125493   3.231   5.373  12.153 -1.3802  0.2928  0.2810
 1334TIP3    H225494   3.246   5.373  12.303  0.9132 -0.8423  0.1030
 1335TIP3   OH225495   1.005   5.982  12.543 -0.3798 -0.1740 -0.0701
 1335TIP3    H125496   1.077   6.032  12.581 -0.9735  3.0706 -2.6710
 1335TIP3    H225497   0.961   5.943  12.618  3.6756 -1.9692  1.6659
 1336TIP3   OH225498   5.967   0.161   1.341  0.6862  0.7797  0.5145
 1336TIP3    H125499   6.016   0.232   1.381 -0.5649  1.4223  0.9330
 1336TIP3    H225500   5.991   0.083   1.392  1.5979  0.9908  0.4262
 1337TIP3   OH225501   3.789   5.346  11.236 -0.2339  0.1716  0.4949
 1337TIP3    H125502   3.819   5.296  11.312 -0.3909  2.0145  1.8455
 1337TIP3    H225503   3.851   5.418  11.228  0.2382 -0.3882 -1.6676
 1338TIP3   OH225504   2.858   4.637  17.072  0.6335 -0.1235  0.7713
 1338TIP3    H125505   2.882   4.664  17.160  1.7386 -0.1472  0.4903
 1338TIP3    H225506   2.926   4.575  17.046  0.8247  0.5574 -0.4314
 1339TIP3   OH225507   4.524   2.145   5.678  0.0539  1.2587  0.4069
 1339TIP3    H125508   4.492   2.055   5.680  0.0661  1.1411 -1.9003
 1339TIP3    H225509   4.619   2.137   5.688  0.3161  0.7646 -1.9487
 1340TIP3   OH225510   5.567   0.685   6.326  0.0742  0.1919  0.1054
 1340TIP3    H125511   5.471   0.677   6.326 -0.1253  2.0222  1.5818
 1340TIP3    H225512   5.583   0.778   6.337  2.0393 -0.1840  0.7219
 1341TIP3   OH225513   3.162   1.113  12.910  0.0501  0.4720  0.9211
 1341TIP3    H125514   3.100   1.041  12.896 -0.1922  0.8247  0.1090
 1341TIP3    H225515   3.176   1.116  13.005 -0.3762 -0.2759  1.0084
 1342TIP3   OH225516   3.524   4.811  13.976 -0.0777 -0.0095 -0.1861
 1342TIP3    H125517   3.468   4.786  14.049  0.0014  0.4665  0.0420
 1342TIP3    H225518   3.471   4.791  13.898  0.2617 -1.5476 -0.0568
 1343TIP3   OH225519   1.021   0.270   4.605  0.4941 -0.0864 -0.3623
 1343TIP3    H125520   0.937   0.225   4.598  0.8954 -0.8772 -0.2053
 1343TIP3    H225521   1.028   0.294   4.698  0.0286  0.8318 -0.5444
 1344TIP3   OH225522   2.353   4.350   4.973  0.0547  0.2883 -0.1276
 1344TIP3    H125523   2.373   4.343   5.067 -0.0910  0.2736 -0.0979
 1344TIP3    H225524   2.379   4.265   4.937  0.6756  0.5015 -0.2075
 1345TIP3   OH225525   5.555   0.415   4.299 -0.8632  0.0651  0.6450
 1345TIP3    H125526   5.637   0.423   4.251 -0.9854 -0.7901  0.2671
 1345TIP3    H225527   5.515   0.335   4.264 -0.6269 -0.9993  2.6324
 1346TIP3   OH225528   6.307   0.672   2.655 -0.4887  0.0282 -0.3187
 1346TIP3    H125529   6.328   0.727   2.580 -0.2427  0.6064  0.1703
 1346TIP3    H225530   6.388   0.669   2.706 -0.7924  0.0343  0.1707
 1347TIP3   OH225531   0.834   2.406  15.011 -0.2212  0.7087 -0.3595
 1347TIP3    H125532   0.841   2.326  15.062 -2.1379  0.7815  0.0849
 1347TIP3    H225533   0.821   2.475  15.076  0.3652  1.2524 -0.7981
 1348TIP3   OH225534   2.588   2.225   0.520  0.0092  0.5728 -0.3967
 1348TIP3    H125535   2.620   2.168   0.590  0.8142 -0.8533 -1.8498
 1348TIP3    H225536   2.667   2.249   0.471 -0.6108  0.8954 -1.2625
 1349TIP3   OH225537   4.787   6.678  15.734  0.0572 -0.7002 -0.1995
 1349TIP3    H125538   4.765   6.640  15.819  0.4379 -0.5809 -0.0471
 1349TIP3    H225539   4.708   6.726  15.708 -0.0574 -0.7326  0.0883
 1350TIP3   OH225540   2.547   4.425   1.724  0.1408 -0.2055  0.3945
 1350TIP3    H125541   2.556   4.490   1.654  0.6207  0.2960  0.9021
 1350TIP3    H225542   2.578   4.471   1.802  1.5043 -1.3913  0.5805
 1351TIP3   OH225543   5.691   0.640   2.880  0.6614 -0.0396  0.1350
 1351TIP3    H125544   5.617   0.581   2.894 -0.0107  0.4422 -1.2539
 1351TIP3    H225545   5.739   0.638   2.963 -0.4008 -1.0564  0.7507
 1352TIP3   OH225546   2.267   6.789  10.753 -0.3410  0.2553 -0.0991
 1352TIP3    H125547   2.362   6.801  10.751 -0.3654  0.3520 -0.6484
 1352TIP3    H225548   2.254   6.701  10.787 -0.0594  0.3068  0.1449
 1353TIP3   OH225549   6.048   5.297   5.525 -0.5104  0.0344 -0.8215
 1353TIP3    H125550   5.962   5.313   5.564  0.5722 -2.4482  3.2253
 1353TIP3    H225551   6.045   5.206   5.497  0.3366  0.3737 -2.0754
 1354TIP3   OH225552   4.696   6.152  17.083 -0.1389 -0.4816 -0.0306
 1354TIP3    H125553   4.618   6.122  17.035 -0.0746  1.0457 -1.1802
 1354TIP3    H225554   4.769   6.110  17.038 -0.1294  0.3323 -0.7881
 1355TIP3   OH225555   6.770   3.581   2.288  0.0785 -0.1517  0.8181
 1355TIP3    H125556   6.854   3.538   2.308 -0.5253 -1.1011  1.4066
 1355TIP3    H225557   6.795   3.664   2.247  1.3611  0.6243  2.9974
 1356TIP3   OH225558   4.103   2.791  10.513 -0.0371  0.1414  0.0173
 1356TIP3    H125559   4.054   2.851  10.569  0.4842  0.3777  0.2330
 1356TIP3    H225560   4.045   2.717  10.501 -0.9970  1.0128 -0.8768
 1357TIP3   OH225561   4.576   0.073   4.881  0.0193  0.2459  0.0481
 1357TIP3    H125562   4.560   0.133   4.807 -2.0416 -0.2580  0.0006
 1357TIP3    H225563   4.558   0.126   4.959  0.5485  0.3237  0.1199
 1358TIP3   OH225564   4.228   4.120  12.454 -0.5153  0.2255 -0.3559
 1358TIP3    H125565   4.242   4.208  12.419  1.3804 -0.1284 -0.6114
 1358TIP3    H225566   4.196   4.134  12.543  0.2254  1.2014 -0.2296
 1359TIP3   OH225567   1.901   0.839   1.998  0.0291 -0.7224  0.7618
 1359TIP3    H125568   1.997   0.833   1.992  0.2039  1.6816  0.0958
 1359TIP3    H225569   1.869   0.780   1.930  1.0268 -1.4384  0.8912
 1360TIP3   OH225570   4.770   3.558   3.719 -0.3741 -0.5570 -0.0629
 1360TIP3    H125571   4.839   3.588   3.661  0.4117 -0.1880  1.0181
 1360TIP3    H225572   4.805   3.478   3.758 -1.5718 -1.7450 -1.3144
 1361TIP3   OH225573   3.004   4.086  16.343 -0.0189  0.9209 -0.2651
 1361TIP3    H125574   2.935   4.059  16.403 -0.3821  1.3281 -0.4948
 1361TIP3    H225575   3.046   4.160  16.387 -1.3930  2.3587 -1.2325
 1362TIP3   OH225576   2.300   1.605   5.205 -0.3092 -0.0211  0.1701
 1362TIP3    H125577   2.218   1.556   5.195 -1.3333  1.9925 -2.6732
 1362TIP3    H225578   2.297   1.670   5.135  3.9916 -0.1505 -0.4057
 1363TIP3   OH225579   3.482   6.548  12.534  0.0819  0.3371  0.0169
 1363TIP3    H125580   3.511   6.477  12.476 -2.0329 -1.3299  0.8455
 1363TIP3    H225581   3.387   6.554  12.518 -0.0197  1.9688  1.0485
 1364TIP3   OH225582   6.736   3.865   3.180 -0.2311 -0.4416 -0.0467
 1364TIP3    H125583   6.664   3.856   3.118 -0.4867  2.4388 -0.3018
 1364TIP3    H225584   6.695   3.862   3.266 -0.1799 -2.0568 -0.0486
 1365TIP3   OH225585   5.219   2.924   3.135 -0.3380  0.6902  0.4404
 1365TIP3    H125586   5.129   2.900   3.157 -0.1792 -0.4766 -0.1348
 1365TIP3    H225587   5.227   2.907   3.041  1.2277 -1.8015  0.9293
 1366TIP3   OH225588   1.274   5.464   1.239  0.0513 -0.1248 -0.3181
 1366TIP3    H125589   1.183   5.476   1.211  0.3475 -0.6042 -1.5478
 1366TIP3    H225590   1.312   5.552   1.237 -0.8983  0.4412  2.2546
 1367TIP3   OH225591   2.754   3.297  12.569  0.0190  0.4031 -0.0074
 1367TIP3    H125592   2.843   3.331  12.581  1.1911 -2.2371 -0.4715
 1367TIP3    H225593   2.758   3.208  12.603 -1.9763 -0.3812 -1.6218
 1368TIP3   OH225594   2.645   5.786  11.090 -0.0105  0.5363  0.3795
 1368TIP3    H125595   2.667   5.709  11.037 -1.5126  0.8798 -0.8269
 1368TIP3    H225596   2.550   5.784  11.096  0.0165  1.5925  1.4641
 1369TIP3   OH225597   3.978   4.817   1.863  0.1065 -0.4479  0.0746
 1369TIP3    H125598   4.042   4.800   1.794 -0.4522  1.8138 -1.0834
 1369TIP3    H225599   3.925   4.889   1.830 -2.0844 -1.2160  1.6491
 1370TIP3   OH225600   3.577   2.818   2.844  0.0266  0.0268 -0.0491
 1370TIP3    H125601   3.557   2.908   2.870 -2.2919 -0.2078 -0.8340
 1370TIP3    H225602   3.580   2.820   2.749  1.2857 -0.5079 -0.0469
 1371TIP3   OH225603   2.159   3.215  10.545 -0.0102  0.2436 -0.3030
 1371TIP3    H125604   2.094   3.149  10.565 -0.2692  0.3650 -0.7293
 1371TIP3    H225605   2.242   3.178  10.576  0.1810 -1.1768 -2.3357
 1372TIP3   OH225606   5.354   5.060  14.324 -0.0295  0.0918 -0.3491
 1372TIP3    H125607   5.376   4.967  14.311  0.6116 -0.0683  1.5614
 1372TIP3    H225608   5.415   5.107  14.269 -0.2311 -0.6131 -1.1954
 1373TIP3   OH225609   4.274   5.761  15.853  0.0884 -0.2673  0.3653
 1373TIP3    H125610   4.251   5.674  15.820 -0.2729  0.3884 -1.1818
 1373TIP3    H225611   4.337   5.795  15.790  1.2140  0.1073  1.6553
 1374TIP3   OH225612   3.142   5.944  12.468 -0.0825  0.2616 -0.3429
 1374TIP3    H125613   3.216   5.896  12.431  0.1842 -0.5890  1.2084
 1374TIP3    H225614   3.097   5.981  12.393  0.5891 -1.1616 -1.4898
 1375TIP3   OH225615   4.044   5.121   0.556 -0.1554 -0.2235  0.3031
 1375TIP3    H125616   4.033   5.032   0.524  0.0194 -0.3205  0.5111
 1375TIP3    H225617   3.957   5.161   0.546 -0.2256 -0.4047  0.1795
 1376TIP3   OH225618   5.112   0.100   4.172  0.0452 -0.2557 -0.3825
 1376TIP3    H125619   5.105   0.195   4.164 -0.8902 -0.1549  1.2968
 1376TIP3    H225620   5.059   0.066   4.099  0.7339  0.4831 -1.2461
 1377TIP3   OH225621   5.878   1.734  12.022 -0.2438 -0.0302  0.4187
 1377TIP3    H125622   5.855   1.790  12.097  0.9451  0.6718  0.2919
 1377TIP3    H225623   5.868   1.791  11.946 -0.2760 -0.3747  0.1650
 1378TIP3   OH225624   5.252   5.292   0.145  0.0403 -0.5841 -0.1754
 1378TIP3    H125625   5.210   5.374   0.172  0.3553 -0.5414  0.1949
 1378TIP3    H225626   5.183   5.244   0.099 -0.5190 -0.6686  0.7280
 1379TIP3   OH225627   2.656   5.144  16.081  0.1206  0.1044  0.4789
 1379TIP3    H125628   2.577   5.090  16.080  0.9732 -1.2073  0.1300
 1379TIP3    H225629   2.628   5.227  16.119 -1.6510  0.0764 -0.6534
 1380TIP3   OH225630   6.284   0.310   2.511  0.3396 -0.1116 -0.6979
 1380TIP3    H125631   6.316   0.386   2.462  1.3159  0.2653  0.4673
 1380TIP3    H225632   6.267   0.343   2.599  0.3186 -1.1325 -0.2967
 1381TIP3   OH225633   2.893   5.686  14.083 -0.0761 -0.5251  0.3958
 1381TIP3    H125634   2.842   5.611  14.053  1.9459 -0.6192 -3.4603
 1381TIP3    H225635   2.836   5.762  14.068 -1.4092 -1.0264  2.5050
 1382TIP3   OH225636   5.981   0.959   4.924  0.2202 -0.2382 -0.0410
 1382TIP3    H125637   6.072   0.962   4.956  0.2237 -1.8077  0.1655
 1382TIP3    H225638   5.975   0.875   4.879 -0.9529  0.1604 -0.6451
 1383TIP3   OH225639   3.263   5.859  13.851  0.0662  0.0517 -0.1526
 1383TIP3    H125640   3.216   5.806  13.787  0.7868  0.5205 -1.1079
 1383TIP3    H225641   3.306   5.795  13.908 -0.1530 -0.3868 -0.4734
 1384TIP3   OH225642   5.676   5.149   3.376  0.2943 -0.2569 -0.1915
 1384TIP3    H125643   5.635   5.214   3.433  1.0414  1.1723 -1.2219
 1384TIP3    H225644   5.632   5.067   3.399 -0.0208  0.4009  1.8251
 1385TIP3   OH225645   1.373   6.327   1.938 -0.5246 -0.4694  0.1733
 1385TIP3    H125646   1.363   6.235   1.965 -0.2316 -1.1573 -1.8538
 1385TIP3    H225647   1.466   6.346   1.952 -0.8336 -0.0238  1.8162
 1386TIP3   OH225648   0.724   3.323   3.178 -0.1023  1.1042  0.0392
 1386TIP3    H125649   0.818   3.335   3.196  0.2932  0.0402 -1.1266
 1386TIP3    H225650   0.698   3.251   3.235  0.3322  0.0025 -1.0883
 1387TIP3   OH225651   4.292   6.817  12.976 -0.5673 -0.0159  0.0309
 1387TIP3    H125652   4.272   6.782  12.889 -0.7556 -0.0810  0.1002
 1387TIP3    H225653   4.311   6.910  12.961  1.5690 -0.4720 -0.3876
 1388TIP3   OH225654   3.666   6.484   2.454 -0.2729 -0.1117 -0.0316
 1388TIP3    H125655   3.713   6.406   2.482 -1.3362 -0.2646  1.4582
 1388TIP3    H225656   3.574   6.465   2.473 -0.8568  0.5816 -1.8992
 1389TIP3   OH225657   4.084   6.031  12.519  0.3317 -0.3096  0.4620
 1389TIP3    H125658   4.098   6.059  12.429  1.3825  3.8545  1.6933
 1389TIP3    H225659   4.021   6.094  12.554  0.7859 -1.0975  2.9322
 1390TIP3   OH225660   1.024   4.252  11.176  0.5578  0.4597  0.8149
 1390TIP3    H125661   0.944   4.304  11.178  0.3508  0.2410 -0.7893
 1390TIP3    H225662   1.047   4.246  11.084  1.9052 -0.2838  1.1699
 1391TIP3   OH225663   4.545   5.759  11.413  0.2115  0.6112  0.4148
 1391TIP3    H125664   4.640   5.764  11.413  0.2638 -0.1131  0.9210
 1391TIP3    H225665   4.519   5.795  11.498  0.0863  0.1497  0.5772
 1392TIP3   OH225666   2.684   3.246  16.074 -0.1586 -0.6910  0.3008
 1392TIP3    H125667   2.616   3.220  16.011 -0.8512  0.5895  0.4995
 1392TIP3    H225668   2.641   3.241  16.159  0.4669 -1.3864  0.5883
 1393TIP3   OH225669   0.888   5.558  11.577 -0.7214 -0.3391 -0.0636
 1393TIP3    H125670   0.938   5.636  11.556 -1.7034  0.2174 -0.3815
 1393TIP3    H225671   0.926   5.526  11.658  0.2491 -0.0223 -0.3860
 1394TIP3   OH225672   1.481   1.150  15.683 -0.2923 -0.3201 -0.3233
 1394TIP3    H125673   1.455   1.058  15.687 -0.6981 -0.1929  2.6900
 1394TIP3    H225674   1.565   1.150  15.637 -0.2440 -2.2126 -0.2986
 1395TIP3   OH225675   6.714   3.727   1.191  0.9845 -0.0317  0.3136
 1395TIP3    H125676   6.771   3.727   1.115 -0.8209  0.3503 -1.1075
 1395TIP3    H225677   6.640   3.672   1.166 -0.5498  1.6100  1.0593
 1396TIP3   OH225678   2.776   4.690   4.489 -0.1493  0.9418 -0.3480
 1396TIP3    H125679   2.819   4.756   4.544  0.4762  0.9092 -0.7830
 1396TIP3    H225680   2.843   4.622   4.476 -1.0280 -0.1940  0.7593
 1397TIP3   OH225681   6.527   5.081  15.120  0.3022  0.5896 -0.2383
 1397TIP3    H125682   6.461   5.027  15.164  2.3569 -1.6350  0.3632
 1397TIP3    H225683   6.566   5.134  15.189  0.2726  0.6380 -0.2595
 1398TIP3   OH225684   6.144   1.941   0.224  0.0064  0.2779 -0.1629
 1398TIP3    H125685   6.078   1.928   0.156  0.4962 -2.0539 -0.2868
 1398TIP3    H225686   6.227   1.918   0.182  0.4191 -0.3978  0.9706
 1399TIP3   OH225687   6.554   0.338   3.134 -0.8666  0.1622  0.6853
 1399TIP3    H125688   6.487   0.308   3.072 -1.5800  0.9372  1.0486
 1399TIP3    H225689   6.505   0.391   3.197 -0.1114 -0.3895  1.7565
 1400TIP3   OH225690   3.928   4.732   0.800  0.3200 -0.1585  0.3847
 1400TIP3    H125691   3.935   4.729   0.705  0.3332 -0.1819  0.3863
 1400TIP3    H225692   3.981   4.807   0.826 -0.5541  0.4998  0.2941
 1401TIP3   OH225693   3.871   3.016  13.222 -0.0411 -0.3485 -0.1324
 1401TIP3    H125694   3.952   2.968  13.208 -0.6780 -1.4013 -0.3531
 1401TIP3    H225695   3.898   3.106  13.241  1.1302 -0.4866 -1.0736
 1402TIP3   OH225696   6.161   0.713  13.281 -0.2991  0.0340 -0.0115
 1402TIP3    H125697   6.099   0.737  13.212 -0.5694 -0.5161  0.0386
 1402TIP3    H225698   6.129   0.760  13.358 -0.0100  0.6299 -0.2461
 1403TIP3   OH225699   2.066   4.592   0.401  0.6904 -0.0108  0.3781
 1403TIP3    H125700   1.989   4.608   0.455  0.4732 -1.7307  0.6248
 1403TIP3    H225701   2.050   4.507   0.361  2.2957 -0.2203  0.1209
 1404TIP3   OH225702   3.028   2.083  17.214  0.1866 -0.6383 -1.2397
 1404TIP3    H125703   2.957   2.029  17.249  0.8912 -0.8398 -0.0695
 1404TIP3    H225704   2.998   2.109  17.127 -1.3535 -0.6696 -0.7463
 1405TIP3   OH225705   0.855   0.098   3.464  0.0114 -0.3326 -0.3563
 1405TIP3    H125706   0.901   0.132   3.541  0.6120 -0.8258 -0.4848
 1405TIP3    H225707   0.871   0.163   3.396  0.7349 -0.6180 -0.4657
 1406TIP3   OH225708   0.071   6.321   0.165  0.0164 -0.7354  0.2988
 1406TIP3    H125709   0.049   6.331   0.258 -2.1144  1.9787 -0.3767
 1406TIP3    H225710   0.154   6.367   0.155 -0.0698 -0.4746  0.7521
 1407TIP3   OH225711   0.742   6.606   4.641  0.2557 -0.0844  0.5217
 1407TIP3    H125712   0.797   6.538   4.679  0.8434  0.3699  0.5036
 1407TIP3    H225713   0.799   6.651   4.579 -0.9698 -1.4786 -1.7219
 1408TIP3   OH225714   4.468   6.236   0.378 -0.0384  0.0966  0.1739
 1408TIP3    H125715   4.530   6.307   0.396 -1.4316  1.4051  0.0385
 1408TIP3    H225716   4.513   6.157   0.406  0.5565  1.2913  2.8464
 1409TIP3   OH225717   3.149   3.248  16.435  0.7042 -0.7701 -1.1308
 1409TIP3    H125718   3.109   3.302  16.366  2.1690  2.9158  0.5942
 1409TIP3    H225719   3.097   3.265  16.513  3.0996  1.0633  0.2382
 1410TIP3   OH225720   4.003   2.675   3.168 -0.7362 -0.3616 -0.2083
 1410TIP3    H125721   4.042   2.591   3.191 -0.3100  0.7701  3.9530
 1410TIP3    H225722   4.078   2.732   3.152 -0.9444 -0.0904 -0.2243
 1411TIP3   OH225723   2.653   3.337   4.841 -0.0558 -0.2611  0.0528
 1411TIP3    H125724   2.718   3.320   4.773  0.5612 -0.7995  0.7637
 1411TIP3    H225725   2.571   3.350   4.793  0.5450  0.3000 -0.8385
 1412TIP3   OH225726   1.511   3.644   3.771 -0.7065  0.0746  0.7217
 1412TIP3    H125727   1.550   3.678   3.851  0.4224  1.3532 -0.3291
 1412TIP3    H225728   1.417   3.660   3.781 -0.5557  0.3960  1.6896
 1413TIP3   OH225729   4.872   4.044   4.939  0.0352  0.3260 -0.0206
 1413TIP3    H125730   4.881   3.950   4.957  0.2559 -0.1050 -2.1362
 1413TIP3    H225731   4.781   4.064   4.959  0.5138  0.2385  2.6608
 1414TIP3   OH225732   1.792   6.715  11.092  0.3674  0.4308  0.0332
 1414TIP3    H125733   1.885   6.707  11.071 -0.1677 -0.7730 -2.1805
 1414TIP3    H225734   1.748   6.666  11.023 -1.8259 -0.8587  2.2105
 1415TIP3   OH225735   1.478   1.332   1.907 -0.3338  0.4868 -0.3612
 1415TIP3    H125736   1.489   1.277   1.985  0.8333 -0.4699 -1.1675
 1415TIP3    H225737   1.474   1.422   1.942 -0.3369  0.0482  0.8245
 1416TIP3   OH225738   0.420   2.618  17.072  0.5246 -0.5766 -0.5601
 1416TIP3    H125739   0.508   2.633  17.107  0.5097 -0.0278 -0.7498
 1416TIP3    H225740   0.364   2.679  17.121  0.2426 -0.9500 -0.4120
 1417TIP3   OH225741   2.719   0.274  12.992  0.4042 -0.7797  0.4115
 1417TIP3    H125742   2.628   0.292  13.015  1.0134  1.3966  1.4622
 1417TIP3    H225743   2.740   0.191  13.034 -0.6842 -0.5489  1.4411
 1418TIP3   OH225744   1.530   0.493  12.369  0.6786 -0.1551  0.3498
 1418TIP3    H125745   1.506   0.575  12.326  0.8666 -0.7137 -0.8536
 1418TIP3    H225746   1.485   0.425  12.318  1.6956 -0.9066  0.4321
 1419TIP3   OH225747   1.467   5.417   0.582 -0.5105 -0.3777  0.2758
 1419TIP3    H125748   1.461   5.324   0.602 -1.1750 -0.0711  1.6436
 1419TIP3    H225749   1.388   5.456   0.621 -0.3738  0.7207 -0.4856
 1420TIP3   OH225750   0.662   2.665  12.314  0.3697  0.5146  0.0560
 1420TIP3    H125751   0.600   2.696  12.381 -0.6019 -0.2171 -0.4915
 1420TIP3    H225752   0.709   2.593  12.356  0.9052  1.0948  0.4834
 1421TIP3   OH225753   2.647   4.957   5.236  0.1366 -0.2743 -0.4188
 1421TIP3    H125754   2.739   4.975   5.215  0.0636  0.5649 -0.0507
 1421TIP3    H225755   2.597   5.007   5.171 -0.0824 -1.7559 -1.4538
 1422TIP3   OH225756   4.451   0.210  15.212 -1.0387  0.4719 -0.3741
 1422TIP3    H125757   4.386   0.230  15.279  0.1461  0.9450  0.6829
 1422TIP3    H225758   4.535   0.234  15.252  0.2026 -3.2195 -0.3565
 1423TIP3   OH225759   0.266   6.096  14.246 -0.2758  0.5765  0.4421
 1423TIP3    H125760   0.182   6.090  14.201 -0.6007 -0.6983  1.1777
 1423TIP3    H225761   0.301   6.007  14.244  1.2317  1.1478 -0.1377
 1424TIP3   OH225762   0.867   1.268   2.622 -0.0500 -0.2369  0.7950
 1424TIP3    H125763   0.884   1.297   2.532  0.6496 -1.3264  0.5523
 1424TIP3    H225764   0.931   1.198   2.636 -1.1238 -1.0702  1.6282
 1425TIP3   OH225765   3.609   0.032  17.043 -0.3331 -0.0536  0.4166
 1425TIP3    H125766   3.628  -0.023  16.967 -1.6161  0.4160 -0.2764
 1425TIP3    H225767   3.516   0.054  17.034 -0.8508 -1.0308  2.8057
 1426TIP3   OH225768   6.649   5.940   0.518  0.3235  0.0138  0.2995
 1426TIP3    H125769   6.557   5.966   0.510  0.4787  0.6984  0.5950
 1426TIP3    H225770   6.653   5.852   0.481  0.0118  0.9035 -2.0413
 1427TIP3   OH225771   6.194   0.331   1.364 -0.3644 -0.3497  0.1675
 1427TIP3    H125772   6.149   0.410   1.334  1.6882 -0.3066 -3.3682
 1427TIP3    H225773   6.263   0.364   1.421  0.6084  0.5271 -1.4382
 1428TIP3   OH225774   5.632   2.870  11.169  0.1063 -0.0688 -0.3950
 1428TIP3    H125775   5.575   2.831  11.103 -1.5680  1.5734 -0.0267
 1428TIP3    H225776   5.609   2.963  11.168  1.1342  0.2597  1.4303
 1429TIP3   OH225777   3.968   0.739  11.322 -0.3464 -0.5228  0.2847
 1429TIP3    H125778   3.995   0.756  11.412  0.5945  0.2560 -0.1404
 1429TIP3    H225779   3.872   0.737  11.327 -0.4285  1.7895  0.9259
 1430TIP3   OH225780   1.931   3.205  14.747  0.0581 -0.2460  0.3522
 1430TIP3    H125781   1.934   3.210  14.843  0.5534 -0.9875  0.3830
 1430TIP3    H225782   1.945   3.296  14.718  0.5226 -0.1104  0.9749
 1431TIP3   OH225783   0.849   4.811  11.375 -0.0117  0.3301  0.0489
 1431TIP3    H125784   0.862   4.906  11.378  1.3630  0.1312  2.4087
 1431TIP3    H225785   0.937   4.774  11.380 -0.4947 -1.1077 -1.1921
 1432TIP3   OH225786   4.593   4.894   2.767 -0.4066  0.1214 -0.2255
 1432TIP3    H125787   4.535   4.968   2.781  1.1355  1.4852 -0.7381
 1432TIP3    H225788   4.629   4.908   2.679 -0.8429 -1.8053 -0.7752
 1433TIP3   OH225789   0.558   4.549   0.039  0.5832 -0.5885  0.0108
 1433TIP3    H125790   0.652   4.531   0.027  1.1036  1.2016  0.9948
 1433TIP3    H225791   0.548   4.641   0.011 -1.2183 -1.1979 -1.5919
 1434TIP3   OH225792   6.626   3.938   5.466 -0.0616 -0.5781  0.2625
 1434TIP3    H125793   6.613   3.933   5.371  1.7250 -0.5350 -0.0201
 1434TIP3    H225794   6.690   4.009   5.478 -0.8948 -0.0066  1.5814
 1435TIP3   OH225795   5.047   5.753  13.000 -0.0322 -0.4644  0.2729
 1435TIP3    H125796   5.123   5.697  13.018 -0.0640 -1.5922 -2.5466
 1435TIP3    H225797   5.082   5.842  12.998  1.1770 -0.9287 -0.5342
 1436TIP3   OH225798   3.500   1.301  15.573 -0.0559  0.3015 -0.8932
 1436TIP3    H125799   3.442   1.347  15.513  0.4420  1.4221 -0.5441
 1436TIP3    H225800   3.540   1.370  15.625 -1.4224 -0.6607  1.6402
 1437TIP3   OH225801   5.231   1.381   2.011  0.4601  0.0269  0.8664
 1437TIP3    H125802   5.227   1.288   1.991  0.5180  0.2384 -0.1918
 1437TIP3    H225803   5.286   1.418   1.942 -0.3305  0.9875  0.7301
 1438TIP3   OH225804   5.118   3.192  15.472 -0.2559  0.5363 -0.0156
 1438TIP3    H125805   5.189   3.188  15.409 -0.8429  0.2007 -0.6692
 1438TIP3    H225806   5.038   3.187  15.420 -0.7536 -1.4185  0.8298
 1439TIP3   OH225807   1.337   0.901  15.378  0.0700 -0.2712 -0.4166
 1439TIP3    H125808   1.410   0.954  15.347 -0.4166  2.3603  2.4917
 1439TIP3    H225809   1.259   0.955  15.362 -0.8110 -1.3539  0.0632
 1440TIP3   OH225810   6.559   5.199  13.553  0.1236 -0.2887  0.1034
 1440TIP3    H125811   6.527   5.179  13.641 -0.0471  0.3239  0.1870
 1440TIP3    H225812   6.648   5.232  13.566 -0.1169  0.3704  0.1076
 1441TIP3   OH225813   1.412   0.274   4.290 -0.4685  0.1889 -0.2234
 1441TIP3    H125814   1.327   0.257   4.330  0.1329  0.0212  1.0573
 1441TIP3    H225815   1.463   0.195   4.310  0.1769  0.5552 -0.4039
 1442TIP3   OH225816   5.180   0.878   0.476  0.4851 -0.0792 -0.0076
 1442TIP3    H125817   5.261   0.834   0.501  1.2712  1.1071 -0.4281
 1442TIP3    H225818   5.115   0.807   0.474  2.0282 -1.5680 -2.2396
 1443TIP3   OH225819   1.299   2.950  10.230  0.4349  0.3912 -0.4586
 1443TIP3    H125820   1.382   2.932  10.274  0.4294  0.1229 -0.5555
 1443TIP3    H225821   1.324   2.965  10.138 -0.0161 -4.5320 -1.6610
 1444TIP3   OH225822   1.055   1.440   3.883 -0.0774 -0.1090  0.1870
 1444TIP3    H125823   1.102   1.453   3.965  0.9611 -0.8355 -0.2693
 1444TIP3    H225824   1.118   1.396   3.826 -1.2955 -1.0502 -0.4785
 1445TIP3   OH225825   3.328   6.005  15.834  0.2189 -0.3286  0.0340
 1445TIP3    H125826   3.362   6.043  15.915  0.6208 -0.8709  0.1270
 1445TIP3    H225827   3.404   6.003  15.775  0.4064 -1.7147  0.3043
 1446TIP3   OH225828   3.636   1.985  15.714 -0.2573 -0.1195 -0.1335
 1446TIP3    H125829   3.624   1.925  15.788  1.8854  1.1339  1.3391
 1446TIP3    H225830   3.585   2.062  15.738  0.8697  0.5001  0.3476
 1447TIP3   OH225831   5.635   1.425  14.682  0.5486 -0.3664  0.0085
 1447TIP3    H125832   5.553   1.416  14.634 -0.6157  0.1987  1.7888
 1447TIP3    H225833   5.686   1.487  14.630  0.4803 -1.7894 -1.8628
 1448TIP3   OH225834   1.558   0.415   4.809 -0.4241 -0.2384  0.1262
 1448TIP3    H125835   1.635   0.371   4.771 -1.2996 -2.0574  0.3599
 1448TIP3    H225836   1.487   0.395   4.748 -1.0069  0.2297  0.6405
 1449TIP3   OH225837   6.606   0.989  13.705  0.8964 -0.2671  0.4939
 1449TIP3    H125838   6.694   0.969  13.674  0.3966 -1.0748 -0.4562
 1449TIP3    H225839   6.615   1.074  13.748  2.2374 -0.5742  0.8874
 1450TIP3   OH225840   4.676   2.233  11.272 -0.2452 -0.4124 -0.5048
 1450TIP3    H125841   4.752   2.258  11.220 -0.6948  0.7071 -0.6362
 1450TIP3    H225842   4.628   2.172  11.215 -0.8259  0.9402 -1.4994
 1451TIP3   OH225843   6.268   0.981  15.751  0.2137 -0.3962  0.4315
 1451TIP3    H125844   6.253   0.889  15.775  0.2737 -0.5513 -0.1223
 1451TIP3    H225845   6.300   1.021  15.832  1.5344 -1.1817  0.3223
 1452TIP3   OH225846   2.968   5.113  14.510 -0.1187 -0.9036 -0.0365
 1452TIP3    H125847   2.935   5.104  14.600  1.3789  0.1735  0.6628
 1452TIP3    H225848   3.010   5.199  14.508  0.9448 -1.4114 -1.4202
 1453TIP3   OH225849   4.766   3.054  14.951  0.0518  0.5806 -0.5147
 1453TIP3    H125850   4.727   3.047  15.038 -2.7509 -3.2677 -1.8280
 1453TIP3    H225851   4.697   3.093  14.896  0.9869  0.9574 -1.4678
 1454TIP3   OH225852   6.807   5.788   3.276  0.1828 -0.1974 -0.4054
 1454TIP3    H125853   6.879   5.792   3.339 -1.6562  1.0812  1.7780
 1454TIP3    H225854   6.822   5.862   3.218  0.0542  0.8046  0.7885
 1455TIP3   OH225855   5.253   0.719   3.106 -0.0842 -0.2958 -0.4183
 1455TIP3    H125856   5.267   0.766   3.188 -0.8254  1.1159 -1.0799
 1455TIP3    H225857   5.320   0.650   3.106  0.1765 -0.0742  1.1731
 1456TIP3   OH225858   3.830   6.074  15.787  0.3085  0.4262 -0.1554
 1456TIP3    H125859   3.744   6.068  15.829 -0.3154 -0.7537 -1.5010
 1456TIP3    H225860   3.825   6.152  15.732 -0.1883 -0.0020 -0.7474
 1457TIP3   OH225861   0.762   2.596  14.372 -0.4782  0.7615 -0.9328
 1457TIP3    H125862   0.836   2.643  14.335  0.0954  0.7243  0.1130
 1457TIP3    H225863   0.737   2.648  14.449 -0.0633 -0.4004  0.0311
 1458TIP3   OH225864   4.663   3.089   0.437 -0.1317 -0.0695 -0.4719
 1458TIP3    H125865   4.753   3.059   0.450  0.0881  0.4279 -0.8046
 1458TIP3    H225866   4.616   3.060   0.515  0.4739  0.2688  0.0193
 1459TIP3   OH225867   2.323   3.601  13.917 -0.1082 -0.2382  0.2242
 1459TIP3    H125868   2.337   3.643  13.832  2.0004 -0.5679  0.3511
 1459TIP3    H225869   2.292   3.513  13.896 -0.1107 -0.1385 -0.1958
 1460TIP3   OH225870   0.797   5.399  16.242 -0.0872 -0.1434  0.3140
 1460TIP3    H125871   0.784   5.476  16.185 -1.3330 -0.6903 -0.1794
 1460TIP3    H225872   0.724   5.403  16.304  1.0514  0.2394  1.6759
 1461TIP3   OH225873   6.202   5.443  12.310  0.1276  0.0208 -0.1894
 1461TIP3    H125874   6.217   5.517  12.250 -2.0329  0.0909 -0.7434
 1461TIP3    H225875   6.260   5.374  12.279  0.6205  0.7839 -1.0089
 1462TIP3   OH225876   3.498   4.362  13.174 -0.0051 -0.1689 -0.6061
 1462TIP3    H125877   3.546   4.444  13.179  1.8719 -1.1920 -1.0795
 1462TIP3    H225878   3.454   4.365  13.089 -1.4105  1.0530  0.1021
 1463TIP3   OH225879   3.853   1.811   1.491  0.6092  0.1437  0.1819
 1463TIP3    H125880   3.894   1.851   1.568  0.5610 -0.3938  0.4928
 1463TIP3    H225881   3.926   1.789   1.434  0.7901 -1.0812  0.8663
 1464TIP3   OH225882   2.653   2.095   1.857  0.3830  0.4852 -0.0193
 1464TIP3    H125883   2.622   2.041   1.784  2.4665 -0.6255 -0.1776
 1464TIP3    H225884   2.675   2.031   1.925 -1.2888  1.4840  1.5325
 1465TIP3   OH225885   1.025   4.543   6.113 -0.6511 -0.9168  0.1774
 1465TIP3    H125886   1.034   4.533   6.018 -0.7609 -0.6482  0.1407
 1465TIP3    H225887   1.057   4.631   6.132  0.2445 -1.2915  0.5058
 1466TIP3   OH225888   0.163   0.160  15.213 -0.0925  0.0773  0.2501
 1466TIP3    H125889   0.113   0.111  15.147  0.2044 -0.3679  0.3541
 1466TIP3    H225890   0.097   0.183  15.279 -0.4361  0.7165 -0.2958
 1467TIP3   OH225891   6.638   2.260   5.801  0.0071  0.1090 -0.2028
 1467TIP3    H125892   6.618   2.217   5.718 -1.4175  0.3614 -0.0133
 1467TIP3    H225893   6.683   2.194   5.852 -1.3733 -0.9072 -0.2440
 1468TIP3   OH225894   1.349   6.025  10.677  0.0885  0.2571  0.2860
 1468TIP3    H125895   1.397   6.084  10.736 -1.4173  2.2355 -0.3188
 1468TIP3    H225896   1.289   6.083  10.630 -2.0133 -1.8749  0.1373
 1469TIP3   OH225897   3.893   3.612  11.136  0.1988  0.6123  0.1415
 1469TIP3    H125898   3.799   3.605  11.152  0.1601 -0.5332 -0.4896
 1469TIP3    H225899   3.908   3.560  11.057  1.2526  1.3996 -0.1971
 1470TIP3   OH225900   4.380   5.216  12.852 -0.5977 -0.0733 -0.7987
 1470TIP3    H125901   4.380   5.299  12.805 -0.3458  0.6920  0.5055
 1470TIP3    H225902   4.449   5.225  12.918  0.0930 -1.6893 -1.2385
 1471TIP3   OH225903   2.871   2.110   1.399  0.8281 -0.0978 -0.3432
 1471TIP3    H125904   2.877   2.203   1.420  0.5169 -0.0365 -0.5186
 1471TIP3    H225905   2.956   2.088   1.361  1.5890 -0.3339  1.4183
 1472TIP3   OH225906   0.999   5.397   4.308  0.6381 -0.4656  0.4673
 1472TIP3    H125907   0.961   5.428   4.225  0.4173 -0.6060  0.5152
 1472TIP3    H225908   1.086   5.437   4.311  0.5171 -0.1922  0.3256
 1473TIP3   OH225909   0.439   3.007  14.438  0.2133  0.0268  0.1652
 1473TIP3    H125910   0.439   3.079  14.502  1.0352 -0.6932  1.0002
 1473TIP3    H225911   0.347   2.980  14.433  0.2991 -0.7787  2.0758
 1474TIP3   OH225912   0.267   3.078   0.287 -0.2128  0.5373 -0.2207
 1474TIP3    H125913   0.243   3.158   0.334  1.6331  1.2254 -0.3693
 1474TIP3    H225914   0.281   3.107   0.197 -1.2934 -0.3188 -0.6896
 1475TIP3   OH225915   2.582   0.639   1.395  0.1253  0.1894 -0.7459
 1475TIP3    H125916   2.532   0.558   1.408 -0.6206  0.8267  0.5496
 1475TIP3    H225917   2.541   0.702   1.453  0.6089  1.5640 -1.8413
 1476TIP3   OH225918   4.850   6.433   0.934 -0.2479  0.1517  0.0138
 1476TIP3    H125919   4.788   6.368   0.901  0.4890  0.2523 -1.6553
 1476TIP3    H225920   4.894   6.389   1.006  0.1508 -1.1867 -1.0012
 1477TIP3   OH225921   5.414   4.747  13.558  0.4631  0.1658 -0.1354
 1477TIP3    H125922   5.353   4.689  13.604 -0.1556 -1.6846 -3.0348
 1477TIP3    H225923   5.372   4.833  13.560 -1.3216 -0.6535 -0.3733
 1478TIP3   OH225924   0.058   0.203   6.033  0.1168 -0.3987 -0.5966
 1478TIP3    H125925   0.098   0.225   5.949 -0.6351 -0.3094 -0.9315
 1478TIP3    H225926   0.047   0.288   6.077  1.2383 -0.5016 -0.0545
 1479TIP3   OH225927   3.021   0.247  13.670 -0.2134  0.1147  0.2232
 1479TIP3    H125928   2.931   0.222  13.691  0.4087 -0.3442  2.6292
 1479TIP3    H225929   3.039   0.320  13.729  1.0452  0.0930 -0.1225
 1480TIP3   OH225930   3.152   1.607  13.534  0.1335 -0.3492  0.3816
 1480TIP3    H125931   3.125   1.675  13.473  0.5969 -0.7709 -0.3066
 1480TIP3    H225932   3.239   1.635  13.564 -0.0635 -0.1776  0.8085
 1481TIP3   OH225933   1.025   2.477   5.364  0.0781 -0.4177  0.4458
 1481TIP3    H125934   1.097   2.414   5.352  1.6269  0.8101  2.6047
 1481TIP3    H225935   0.974   2.442   5.437  0.1831  0.1527  0.7993
 1482TIP3   OH225936   6.535   2.759  13.088 -0.3494  0.5069  0.0439
 1482TIP3    H125937   6.600   2.824  13.116 -1.6481  1.5629  0.7499
 1482TIP3    H225938   6.579   2.710  13.019  0.5341  2.4631 -0.8801
 1483TIP3   OH225939   3.819   0.867   2.149 -0.0710  0.5753  0.0464
 1483TIP3    H125940   3.889   0.867   2.084 -1.1574  0.7139 -1.1600
 1483TIP3    H225941   3.826   0.953   2.191  0.3401  0.6680 -0.2028
 1484TIP3   OH225942   6.104   4.046   6.293  0.1524  0.1476 -0.2203
 1484TIP3    H125943   6.013   4.027   6.269 -0.3684  1.4957  0.6120
 1484TIP3    H225944   6.104   4.139   6.314  1.8954  0.3320 -0.9176
 1485TIP3   OH225945   2.209   5.752   1.546 -0.5731  0.0531  0.5812
 1485TIP3    H125946   2.178   5.746   1.637 -1.6506 -2.9872  0.1283
 1485TIP3    H225947   2.220   5.661   1.519  0.8617  0.9132 -1.9937
 1486TIP3   OH225948   1.679   6.143  14.816  0.3302  0.3415 -0.0786
 1486TIP3    H125949   1.645   6.157  14.904 -0.8044  0.2923 -0.5016
 1486TIP3    H225950   1.610   6.175  14.758  1.1896  0.6584 -0.9522
 1487TIP3   OH225951   2.234   4.573  17.010 -0.0480 -0.2993 -0.5923
 1487TIP3    H125952   2.218   4.503  17.074 -3.4090 -0.2607 -1.1953
 1487TIP3    H225953   2.209   4.535  16.926  1.0549  0.7102 -1.4037
 1488TIP3   OH225954   2.108   3.230  16.862  0.5937  0.3530 -0.6398
 1488TIP3    H125955   2.130   3.255  16.952  0.9025 -0.1059 -0.5855
 1488TIP3    H225956   2.016   3.204  16.865 -0.7327  4.3107 -1.2682
 1489TIP3   OH225957   1.669   0.481  16.897  0.0526  0.0989 -0.2845
 1489TIP3    H125958   1.711   0.538  16.962  0.1477 -1.2977  0.9194
 1489TIP3    H225959   1.585   0.524  16.879  0.0345  0.5395  0.7523
 1490TIP3   OH225960   1.158   6.785  15.148 -0.0491 -0.0062  0.2344
 1490TIP3    H125961   1.181   6.874  15.123 -1.6341  0.4912  0.4469
 1490TIP3    H225962   1.241   6.744  15.172  0.8986  0.9343 -1.3078
 1491TIP3   OH225963   3.934   5.414  15.918 -0.1714 -0.0862  0.4447
 1491TIP3    H125964   3.898   5.502  15.908 -0.4384 -0.3533 -1.3615
 1491TIP3    H225965   4.015   5.415  15.866  0.0011 -0.8046  0.6889
 1492TIP3   OH225966   0.072   0.107  10.632 -0.4027  0.0503  0.2335
 1492TIP3    H125967   0.077   0.045  10.705  1.7741 -0.5754 -0.3580
 1492TIP3    H225968   0.070   0.052  10.554  0.5187  0.7001 -0.2692
 1493TIP3   OH225969   2.965   0.901  15.633 -0.0267 -0.0857 -0.3150
 1493TIP3    H125970   2.908   0.971  15.600 -0.1679  0.0535  0.2254
 1493TIP3    H225971   2.909   0.848  15.689  0.2445 -0.2491 -0.1975
 1494TIP3   OH225972   6.219   2.663   1.469  0.6524  0.1127 -0.6035
 1494TIP3    H125973   6.264   2.745   1.451  0.7122  0.2928  0.3412
 1494TIP3    H225974   6.239   2.644   1.561 -1.1311  0.1502 -0.1714
 1495TIP3   OH225975   4.685   0.339  15.243  0.1812  0.2928  0.0110
 1495TIP3    H125976   4.713   0.424  15.277 -0.2733  1.1629 -1.6771
 1495TIP3    H225977   4.760   0.307  15.193  2.2349 -2.6263  4.2891
 1496TIP3   OH225978   1.324   0.398   5.726  0.6915 -0.9425  0.3662
 1496TIP3    H125979   1.255   0.384   5.791  1.3510  2.8525  2.1815
 1496TIP3    H225980   1.401   0.354   5.763  0.7303  0.0811  1.5763
 1497TIP3   OH225981   4.657   2.014   4.383 -0.5899  0.3567 -0.2206
 1497TIP3    H125982   4.708   1.934   4.372 -0.5892  0.3008  0.1510
 1497TIP3    H225983   4.672   2.039   4.474  0.8383  1.7612 -0.8034
 1498TIP3   OH225984   1.206   2.483  14.457  0.0073 -0.3550 -0.3182
 1498TIP3    H125985   1.197   2.388  14.453  1.5159 -0.6027  1.3534
 1498TIP3    H225986   1.155   2.514  14.382  0.3158 -2.5180 -1.5131
 1499TIP3   OH225987   4.362   3.712   0.154 -0.5469  0.0240  0.0529
 1499TIP3    H125988   4.363   3.725   0.249 -2.4653  0.8095  0.0092
 1499TIP3    H225989   4.366   3.617   0.143  0.3011 -0.0517  0.8761
 1500TIP3   OH225990   2.081   4.079  11.834  0.4506  0.1385 -0.3598
 1500TIP3    H125991   2.100   3.997  11.788  1.1143 -1.3530  2.3817
 1500TIP3    H225992   2.144   4.141  11.798  1.6515 -1.2295 -0.7314
 1501TIP3   OH225993   0.678   6.032  16.711  0.2763  0.5246  0.0106
 1501TIP3    H125994   0.609   5.966  16.707  0.1948  0.5674  0.6857
 1501TIP3    H225995   0.632   6.114  16.728  0.6571  0.2026  3.0496
 1502TIP3   OH225996   1.713   6.268   3.234  0.6990 -0.0426 -1.0421
 1502TIP3    H125997   1.722   6.251   3.327  0.6020 -0.5130 -1.1150
 1502TIP3    H225998   1.803   6.264   3.200  0.5681 -2.0393 -1.3163
 1503TIP3   OH225999   3.836   4.432  11.266  0.3375 -0.2215 -0.2110
 1503TIP3    H126000   3.855   4.387  11.184  0.5710  0.7381 -0.6980
 1503TIP3    H226001   3.760   4.385  11.302  0.6941 -1.1124 -0.5937
 1504TIP3   OH226002   4.710   1.881  16.323 -0.4055  0.6667  0.3186
 1504TIP3    H126003   4.639   1.944  16.329 -2.0546 -1.0653 -0.1639
 1504TIP3    H226004   4.787   1.934  16.300 -1.5630  2.5503  0.5357
 1505TIP3   OH226005   0.129   5.702  13.183 -0.3005  0.0897 -0.6735
 1505TIP3    H126006   0.138   5.629  13.122  0.5195 -0.5825  0.1974
 1505TIP3    H226007   0.140   5.662  13.270 -0.3390  1.1684 -0.1453
 1506TIP3   OH226008   4.211   0.971  14.447 -0.1321 -0.2867 -0.0267
 1506TIP3    H126009   4.284   0.910  14.432 -1.2375 -1.9241  0.9630
 1506TIP3    H226010   4.251   1.044  14.495  1.2179 -0.2183 -1.1822
 1507TIP3   OH226011   5.319   4.417  14.760 -0.6241 -0.2370  0.0490
 1507TIP3    H126012   5.365   4.334  14.752  0.5344  0.5468 -2.9083
 1507TIP3    H226013   5.284   4.417  14.849  1.7303 -2.6255  1.1045
 1508TIP3   OH226014   4.995   6.361   1.532  0.4013  0.0800  0.3607
 1508TIP3    H126015   4.911   6.330   1.497  0.4877  0.5067 -0.2396
 1508TIP3    H226016   4.988   6.347   1.627 -0.5620  0.6081  0.3797
 1509TIP3   OH226017   5.535   4.718  17.027 -0.0708 -0.2896 -0.1798
 1509TIP3    H126018   5.619   4.679  17.005  1.5315  2.9889 -0.4837
 1509TIP3    H226019   5.536   4.727  17.122  0.2261  0.2773 -0.2298
 1510TIP3   OH226020   2.908   5.635   2.824 -0.1441 -0.6662  0.3404
 1510TIP3    H126021   2.828   5.588   2.801 -0.3703  0.4862 -1.4886
 1510TIP3    H226022   2.977   5.569   2.821 -0.5075 -1.0045 -1.7212
 1511TIP3   OH226023   6.631   2.754   0.250  0.0900 -0.4549  0.4228
 1511TIP3    H126024   6.557   2.693   0.251 -0.2300 -0.1455 -1.2290
 1511TIP3    H226025   6.685   2.726   0.175  0.8802  0.1937  0.7311
 1512TIP3   OH226026   0.163   4.853  11.434  0.0804  0.3819  0.3122
 1512TIP3    H126027   0.094   4.862  11.499  1.2618  3.1967  1.3263
 1512TIP3    H226028   0.118   4.858  11.350 -1.0679  1.4011  0.9529
 1513TIP3   OH226029   1.368   4.410  16.794  0.4177 -0.0218 -0.1908
 1513TIP3    H126030   1.458   4.399  16.766  0.5486  3.2709 -1.4500
 1513TIP3    H226031   1.316   4.402  16.714 -0.1255  0.6711  0.0781
 1514TIP3   OH226032   0.380   6.687   1.345 -0.5924 -0.9857 -0.3351
 1514TIP3    H126033   0.288   6.662   1.339 -0.8441  0.2508 -2.5686
 1514TIP3    H226034   0.422   6.644   1.271  0.2225  0.0292 -0.4787
 1515TIP3   OH226035   0.315   3.693  13.453  1.1118  0.2154  0.2067
 1515TIP3    H126036   0.367   3.673  13.530  0.6699 -0.6669  0.2869
 1515TIP3    H226037   0.231   3.650  13.468  0.7350  0.7133 -0.4029
 1516TIP3   OH226038   3.121   0.989   4.607  0.1915  0.4848  0.4963
 1516TIP3    H126039   3.117   1.073   4.560  2.0765 -0.2620 -1.1293
 1516TIP3    H226040   3.042   0.943   4.579  1.3019  0.0225 -2.2056
 1517TIP3   OH226041   5.982   1.662   6.484 -0.5802 -0.0306  0.2359
 1517TIP3    H126042   6.063   1.704   6.512 -0.9145  0.6183  0.2628
 1517TIP3    H226043   5.932   1.650   6.565 -0.7019 -0.0034  0.1653
 1518TIP3   OH226044   3.900   3.272  14.897 -0.0738 -0.1792 -0.9188
 1518TIP3    H126045   3.818   3.313  14.926  1.7910  2.7413  0.6565
 1518TIP3    H226046   3.872   3.189  14.860 -3.5776 -0.2956  1.4305
 1519TIP3   OH226047   5.302   5.080  16.999 -0.1670 -0.2291 -0.0476
 1519TIP3    H126048   5.378   5.102  16.945  0.1615  0.3661  0.6473
 1519TIP3    H226049   5.325   4.996  17.040 -0.0825 -0.2768 -0.1925
 1520TIP3   OH226050   3.917   5.359   3.576  0.4365 -0.6576  0.6050
 1520TIP3    H126051   3.924   5.282   3.632  0.5370 -0.0039  1.5168
 1520TIP3    H226052   3.854   5.416   3.622  0.1537 -0.3091 -0.1899
 1521TIP3   OH226053   1.860   3.067   5.616  0.2820 -0.8079  0.1542
 1521TIP3    H126054   1.895   3.085   5.703 -0.5583 -0.6669  0.4772
 1521TIP3    H226055   1.901   2.985   5.590  0.0901 -1.1720  0.9522
 1522TIP3   OH226056   1.636   0.484  13.029 -0.2688  0.5188 -0.9240
 1522TIP3    H126057   1.727   0.474  13.055 -0.8444  0.0727  1.0596
 1522TIP3    H226058   1.627   0.430  12.950  1.3419  1.2261 -1.6264
 1523TIP3   OH226059   6.527   5.544   5.479 -0.7723 -0.3077  0.0231
 1523TIP3    H126060   6.563   5.455   5.479 -0.5882 -0.2391  0.6710
 1523TIP3    H226061   6.601   5.600   5.503 -0.6828  0.1164 -1.1509
 1524TIP3   OH226062   4.359   1.847   4.584 -0.0610 -0.3303  0.6890
 1524TIP3    H126063   4.334   1.934   4.615 -2.2047 -0.8208  0.4848
 1524TIP3    H226064   4.455   1.850   4.579 -0.1251  2.7417 -1.4729
 1525TIP3   OH226065   6.813   6.069  14.639  0.1844  0.3089 -0.2003
 1525TIP3    H126066   6.839   6.065  14.731 -0.8373 -0.5982  0.0713
 1525TIP3    H226067   6.783   6.159  14.626 -1.4662 -0.0470  0.8905
 1526TIP3   OH226068   0.886   6.380  16.267 -0.2889  0.7068 -0.1869
 1526TIP3    H126069   0.963   6.337  16.229 -0.5144  0.9207 -0.8991
 1526TIP3    H226070   0.869   6.331  16.347  0.8044  0.8731  0.1694
 1527TIP3   OH226071   0.861   4.864   4.361 -0.3666  0.4573  0.2212
 1527TIP3    H126072   0.811   4.912   4.295 -1.7117 -1.4090 -0.1983
 1527TIP3    H226073   0.952   4.874   4.334 -0.8972 -1.0689 -2.6214
 1528TIP3   OH226074   3.090   5.101  15.873 -0.1139  0.0351  0.0639
 1528TIP3    H126075   3.055   5.129  15.788 -1.8984  1.3048  1.1396
 1528TIP3    H226076   3.017   5.057  15.916  0.2548  0.7763  1.5301
 1529TIP3   OH226077   4.360   0.361   0.739 -0.0330 -0.3549  0.5014
 1529TIP3    H126078   4.323   0.276   0.716 -0.5519 -0.5648  1.9693
 1529TIP3    H226079   4.443   0.341   0.781  0.9164  0.0167 -1.1139
 1530TIP3   OH226080   1.568   6.528   6.009  0.2326  0.3184  0.1183
 1530TIP3    H126081   1.560   6.584   6.086  4.3482  1.5198 -0.0905
 1530TIP3    H226082   1.550   6.586   5.935  0.2879  0.2201  0.0273
 1531TIP3   OH226083   3.218   6.092   2.751 -0.3114 -0.7326  0.5476
 1531TIP3    H126084   3.311   6.099   2.771 -0.4248 -0.8286  1.1394
 1531TIP3    H226085   3.214   6.088   2.655  0.4323 -2.5085  0.5418
 1532TIP3   OH226086   1.924   2.953  12.830 -0.0669 -0.0179 -0.1225
 1532TIP3    H126087   1.991   3.020  12.839  1.5252 -1.4870 -0.3615
 1532TIP3    H226088   1.846   2.999  12.799  1.6661  1.3979 -2.7955
 1533TIP3   OH226089   1.031   2.001   1.941 -0.1444  0.2629 -0.6127
 1533TIP3    H126090   1.063   1.995   1.851 -0.1368 -0.3979 -0.5734
 1533TIP3    H226091   0.945   2.044   1.933 -0.9629 -1.3653 -1.1535
 1534TIP3   OH226092   0.393   1.262  11.218  0.4777 -0.2022 -0.3809
 1534TIP3    H126093   0.477   1.218  11.230  0.9467  0.5011 -0.9459
 1534TIP3    H226094   0.369   1.292  11.305 -0.4905 -2.6207  0.2679
 1535TIP3   OH226095   0.813   3.908  11.532 -0.3918 -0.0314 -0.3507
 1535TIP3    H126096   0.782   3.887  11.444 -1.6607  0.9295 -0.1669
 1535TIP3    H226097   0.764   3.848  11.589 -0.8716  0.5159 -0.1758
 1536TIP3   OH226098   5.945   3.761  16.327 -0.5793  0.5815 -0.5040
 1536TIP3    H126099   6.015   3.799  16.380 -1.4813  2.0893 -0.3433
 1536TIP3    H226100   5.875   3.743  16.389 -0.6891 -0.0532 -0.8045
 1537TIP3   OH226101   5.465   3.895   0.074  0.3196 -0.0011 -0.2597
 1537TIP3    H126102   5.432   3.843   0.147  0.8728 -0.4398 -0.3193
 1537TIP3    H226103   5.559   3.905   0.092  0.3683  0.2996 -0.6635
 1538TIP3   OH226104   1.620   4.810   4.185 -0.3902  0.2681  0.4441
 1538TIP3    H126105   1.536   4.854   4.174 -0.5207  0.1305  0.8532
 1538TIP3    H226106   1.627   4.752   4.109 -0.2857  0.8736 -0.0172
 1539TIP3   OH226107   1.985   1.302  15.951 -0.3909 -0.1000 -0.6665
 1539TIP3    H126108   1.945   1.308  15.864  0.9150  1.4085 -1.2078
 1539TIP3    H226109   1.931   1.359  16.006  2.0588  3.8450 -1.9092
 1540TIP3   OH226110   1.503   4.298  10.108 -0.3220 -0.3167  0.0022
 1540TIP3    H126111   1.475   4.213  10.141  1.4763 -0.3054  1.7243
 1540TIP3    H226112   1.598   4.299  10.120  0.0866  0.8804 -2.5610
 1541TIP3   OH226113   5.671   0.154  14.534 -0.2721 -0.1750 -0.2864
 1541TIP3    H126114   5.624   0.237  14.532  1.4532  1.0168  2.2056
 1541TIP3    H226115   5.621   0.099  14.594 -1.1523 -0.8127 -1.5640
 1542TIP3   OH226116   3.069   3.741   3.708 -0.1386  0.0604 -0.0502
 1542TIP3    H126117   3.159   3.736   3.678  0.3164  2.2255  0.7955
 1542TIP3    H226118   3.075   3.740   3.803 -1.3817 -4.1016  0.2027
 1543TIP3   OH226119   4.666   3.409  12.203 -0.5827  0.1927  0.0830
 1543TIP3    H126120   4.681   3.378  12.113 -1.1916  1.3940 -0.4500
 1543TIP3    H226121   4.637   3.499  12.193 -0.3682  0.4457  1.5196
 1544TIP3   OH226122   5.644   0.613  13.685 -0.2111  0.3536 -0.5869
 1544TIP3    H126123   5.702   0.640  13.757 -0.6570 -0.7159  0.2195
 1544TIP3    H226124   5.616   0.695  13.644  0.0319  0.9993  0.4895
 1545TIP3   OH226125   5.981   3.119  17.170  0.4502  0.1756 -0.0466
 1545TIP3    H126126   6.049   3.059  17.139  0.8123  0.6605 -0.1990
 1545TIP3    H226127   5.926   3.136  17.094  2.4714  2.9298 -1.0640
 1546TIP3   OH226128   4.516   0.832   1.158  0.3089 -0.0085  0.0468
 1546TIP3    H126129   4.587   0.807   1.099 -0.5442 -1.9098 -0.2478
 1546TIP3    H226130   4.547   0.807   1.245  0.4828  0.3328  0.0879
 1547TIP3   OH226131   2.645   6.623   6.059 -0.2710 -1.0415 -0.2711
 1547TIP3    H126132   2.578   6.633   6.125 -2.9938  2.0068 -3.1576
 1547TIP3    H226133   2.718   6.676   6.090 -1.8327  1.0740 -0.0391
 1548TIP3   OH226134   1.419   4.781   0.928  0.0171 -0.4530  0.3228
 1548TIP3    H126135   1.493   4.788   0.989 -1.0377  0.3174  1.5810
 1548TIP3    H226136   1.388   4.691   0.940  1.3186 -1.1013 -0.9421
 1549TIP3   OH226137   0.454   2.717  16.541 -0.6342 -0.4053 -0.4721
 1549TIP3    H126138   0.436   2.759  16.625 -0.4414 -1.4043  0.0925
 1549TIP3    H226139   0.422   2.627  16.552  0.9997 -1.0615 -0.8449
 1550TIP3   OH226140   0.712   1.210  16.057 -0.7926 -0.2343  0.4297
 1550TIP3    H126141   0.689   1.172  15.972 -1.2838 -0.8198  0.8145
 1550TIP3    H226142   0.789   1.264  16.039 -0.2427 -1.1789 -0.1996
 1551TIP3   OH226143   3.833   0.308  14.589  0.3268  0.0670  0.0196
 1551TIP3    H126144   3.773   0.234  14.577 -0.1054  0.3656  0.3402
 1551TIP3    H226145   3.896   0.278  14.654  1.5251 -0.8534 -1.4824
 1552TIP3   OH226146   1.649   0.661  11.712 -0.1913 -0.7911  0.2452
 1552TIP3    H126147   1.556   0.678  11.695 -0.1001 -1.2813 -0.8121
 1552TIP3    H226148   1.658   0.567  11.701  0.8384 -0.4984 -1.8577
 1553TIP3   OH226149   3.861   0.693   2.485 -0.2434 -0.2744 -0.2748
 1553TIP3    H126150   3.871   0.679   2.391  0.2877 -1.7743 -0.0163
 1553TIP3    H226151   3.767   0.709   2.497 -0.5136 -1.2972 -0.9238
 1554TIP3   OH226152   2.988   4.112   3.455  0.1882 -0.1291  0.3856
 1554TIP3    H126153   3.002   4.206   3.469  0.5808 -0.3873  1.8998
 1554TIP3    H226154   2.916   4.108   3.392 -0.0393  1.1850  0.5215
 1555TIP3   OH226155   6.320   1.096   3.455 -0.0475 -0.4572 -0.1388
 1555TIP3    H126156   6.351   1.074   3.543 -0.2716  0.2017  0.1072
 1555TIP3    H226157   6.383   1.161   3.422 -0.1655 -0.4360 -0.3279
 1556TIP3   OH226158   5.863   3.410  13.006 -0.5469  0.1558 -0.1286
 1556TIP3    H126159   5.885   3.322  12.974 -0.5047 -0.1281  0.6416
 1556TIP3    H226160   5.832   3.395  13.096 -1.3033  0.8505 -0.2675
 1557TIP3   OH226161   3.849   4.484   0.198 -0.1248 -0.2731 -0.0056
 1557TIP3    H126162   3.915   4.439   0.145 -1.6819  0.7815 -3.0986
 1557TIP3    H226163   3.768   4.437   0.181 -1.1624  1.6641 -0.7377
 1558TIP3   OH226164   6.160   2.019   2.744  0.1598 -0.3729  0.1964
 1558TIP3    H126165   6.250   1.988   2.757  0.3857 -0.1070 -0.6764
 1558TIP3    H226166   6.125   2.029   2.833  0.5549 -1.7243  0.5238
 1559TIP3   OH226167   6.251   5.265  15.269 -0.2213 -0.5540  0.4707
 1559TIP3    H126168   6.281   5.225  15.351  1.6844 -1.9134 -0.8052
 1559TIP3    H226169   6.191   5.200  15.232 -1.1230  0.0847  0.7718
 1560TIP3   OH226170   3.725   0.628  15.560  0.1350 -0.2898 -0.4302
 1560TIP3    H126171   3.745   0.588  15.645  0.9730  1.6067  0.3446
 1560TIP3    H226172   3.681   0.560  15.511  0.4244 -1.7425  1.2141
 1561TIP3   OH226173   5.498   1.125  13.215 -0.0975 -0.1441  0.4414
 1561TIP3    H126174   5.560   1.055  13.192  1.0758  1.3274 -1.1434
 1561TIP3    H226175   5.469   1.104  13.304 -1.0351 -3.4996 -0.5079
 1562TIP3   OH226176   1.563   1.816  10.514  0.2371  0.5187 -0.3615
 1562TIP3    H126177   1.633   1.751  10.508 -1.0323 -0.7974 -1.6094
 1562TIP3    H226178   1.485   1.765  10.533 -0.2662  2.0694  2.3436
 1563TIP3   OH226179   1.859   3.410   1.030  0.6457  0.4235  0.3334
 1563TIP3    H126180   1.775   3.382   1.067  1.3692 -0.3438  1.4670
 1563TIP3    H226181   1.838   3.441   0.942 -0.8367  0.3546  0.6470
 1564TIP3   OH226182   5.293   1.772  11.129 -0.8043 -0.5742  0.6040
 1564TIP3    H126183   5.260   1.682  11.122  1.7988 -1.4653 -2.6474
 1564TIP3    H226184   5.266   1.814  11.048  1.2590  0.3372  0.3275
 1565TIP3   OH226185   6.724   6.064   5.925 -0.4851 -0.8253  0.0704
 1565TIP3    H126186   6.639   6.075   5.880  0.1732  1.0669 -0.8289
 1565TIP3    H226187   6.723   6.131   5.993  1.3625  1.1988 -1.7594
 1566TIP3   OH226188   4.010   6.533   1.349 -0.0319  0.0141 -0.0323
 1566TIP3    H126189   3.998   6.508   1.258  3.6605 -0.3981 -0.5442
 1566TIP3    H226190   4.037   6.453   1.393 -0.7747  0.4284  1.2363
 1567TIP3   OH226191   0.048   0.738   5.349 -0.2169 -0.0512 -0.2592
 1567TIP3    H126192   0.130   0.693   5.370 -0.5273 -0.2999  0.4476
 1567TIP3    H226193   0.071   0.831   5.353 -0.1185 -0.1026  0.6157
 1568TIP3   OH226194   1.571   3.395   5.539  0.7531  0.7621  0.5764
 1568TIP3    H126195   1.556   3.424   5.629 -0.7092  2.2247 -0.0832
 1568TIP3    H226196   1.642   3.451   5.507  2.4853 -0.9393  1.3213
 1569TIP3   OH226197   1.740   3.207   2.529  0.8218  0.4580  0.1288
 1569TIP3    H126198   1.757   3.177   2.618 -0.5130  1.2407  0.6733
 1569TIP3    H226199   1.691   3.135   2.488  0.0121  0.7570  0.5582
 1570TIP3   OH226200   1.137   3.316  12.032  0.1827 -0.1138  0.2127
 1570TIP3    H126201   1.111   3.239  12.084  1.8873 -0.1068  1.1599
 1570TIP3    H226202   1.102   3.390  12.081 -0.9294 -0.2228 -0.3738
 1571TIP3   OH226203   0.621   2.938   1.982  0.3378  0.3789  0.0499
 1571TIP3    H126204   0.621   2.984   2.066  3.0728  1.0793 -0.2395
 1571TIP3    H226205   0.631   2.846   2.005 -0.6974  0.3564  0.4956
 1572TIP3   OH226206   3.496   6.049   1.112  0.1810  0.2173 -0.1690
 1572TIP3    H126207   3.517   5.975   1.168  2.5705  0.4491 -0.6347
 1572TIP3    H226208   3.402   6.043   1.097  0.3633 -3.0888 -0.6912
 1573TIP3   OH226209   1.663   4.030  12.062  0.0817 -0.7369 -0.2015
 1573TIP3    H126210   1.701   4.052  11.977 -1.5318  0.7943 -0.5961
 1573TIP3    H226211   1.734   4.044  12.125  0.1068  2.8273 -0.8067
 1574TIP3   OH226212   6.590   4.995   0.909  0.3692  0.1505 -0.0903
 1574TIP3    H126213   6.530   5.016   0.838  0.5335 -0.8006 -0.5323
 1574TIP3    H226214   6.668   4.962   0.865  0.3831 -0.6872  0.5266
 1575TIP3   OH226215   0.145   5.033  13.348 -0.1728 -0.6296 -0.1593
 1575TIP3    H126216   0.218   5.080  13.308 -0.9064  1.1802  0.5160
 1575TIP3    H226217   0.116   4.972  13.280  0.7391 -0.0150 -1.1346
 1576TIP3   OH226218   3.920   5.459   1.184 -0.0572 -0.0631 -0.6648
 1576TIP3    H126219   3.966   5.543   1.189  1.6267 -0.9828  0.3661
 1576TIP3    H226220   3.932   5.430   1.094  1.2580 -0.1870 -0.4638
 1577TIP3   OH226221   1.875   5.834   4.744  0.0157  0.2947 -0.1200
 1577TIP3    H126222   1.934   5.760   4.757  1.3316  1.4618  0.8765
 1577TIP3    H226223   1.929   5.911   4.759 -2.0974  1.4210  2.6332
 1578TIP3   OH226224   0.791   1.850  16.580 -0.4380  0.4854  0.1411
 1578TIP3    H126225   0.886   1.860  16.581 -0.4333  1.1117 -2.0893
 1578TIP3    H226226   0.765   1.859  16.672  1.4628  2.3182  0.5737
 1579TIP3   OH226227   3.962   4.625   1.541 -0.3796  0.6997  0.4157
 1579TIP3    H126228   4.049   4.656   1.567  0.5844 -0.7787 -0.8774
 1579TIP3    H226229   3.970   4.530   1.539 -0.9506  0.6084 -3.0890
 1580TIP3   OH226230   2.657   0.866   6.764  0.1455 -0.0533  0.2240
 1580TIP3    H126231   2.644   0.886   6.671 -1.6202 -0.1211  0.4072
 1580TIP3    H226232   2.571   0.834   6.793  0.2844  1.2101  2.1967
 1581TIP3   OH226233   2.077   3.191  12.831  0.3600 -0.4461  0.2539
 1581TIP3    H126234   2.040   3.213  12.916  0.1366  0.3094 -0.0323
 1581TIP3    H226235   2.025   3.241  12.768  0.1063 -1.4951 -0.3881
 1582TIP3   OH226236   0.627   6.538  16.721 -0.8875  0.4568 -0.8745
 1582TIP3    H126237   0.670   6.558  16.804 -1.6706  1.4185 -0.6697
 1582TIP3    H226238   0.567   6.612  16.707  0.0682  0.9169 -2.8893
 1583TIP3   OH226239   6.763   5.036  14.180 -0.2125 -1.0087  0.5409
 1583TIP3    H126240   6.723   5.028  14.093  0.3805  0.6721  0.0708
 1583TIP3    H226241   6.740   5.125  14.208  1.0268 -0.9337  1.3683
 1584TIP3   OH226242   5.775   4.297   0.020 -0.1916 -0.4398 -0.0330
 1584TIP3    H126243   5.683   4.274   0.011 -0.0768 -0.3029 -1.7980
 1584TIP3    H226244   5.779   4.390  -0.003  0.4591 -0.5698 -0.4616
 1585TIP3   OH226245   0.187   0.687   0.074  0.0965 -0.0819  0.0662
 1585TIP3    H126246   0.104   0.648   0.047 -0.7707  1.4424  0.3757
 1585TIP3    H226247   0.166   0.739   0.151  1.0643  1.3016 -0.5380
 1586TIP3   OH226248   6.336   6.684  16.023  0.5886 -0.0461 -0.0203
 1586TIP3    H126249   6.369   6.655  16.108  1.0992 -0.5317 -0.3827
 1586TIP3    H226250   6.296   6.606  15.984  1.0247 -0.0192 -0.5419
 1587TIP3   OH226251   5.512   1.258   1.041 -0.6042 -0.1522  0.0735
 1587TIP3    H126252   5.521   1.353   1.032 -0.7489 -0.1914 -0.5486
 1587TIP3    H226253   5.474   1.245   1.128 -1.7610  0.4435 -0.3107
 1588TIP3   OH226254   1.834   4.785  13.616 -0.2299  0.1875 -0.1482
 1588TIP3    H126255   1.744   4.765  13.640 -0.1017  1.1935  1.2921
 1588TIP3    H226256   1.847   4.876  13.644  1.0495  0.2696 -0.8905
 1589TIP3   OH226257   3.142   4.762   2.237 -0.2042 -0.2490 -0.4879
 1589TIP3    H126258   3.131   4.811   2.156  0.7238 -1.3980 -1.3513
 1589TIP3    H226259   3.193   4.820   2.293 -1.5906  0.9012 -0.3736
 1590TIP3   OH226260   2.591   6.032   5.345  0.0330 -0.3518 -0.9686
 1590TIP3    H126261   2.639   6.112   5.367  0.4786 -0.4639 -1.5254
 1590TIP3    H226262   2.510   6.039   5.396  0.4631  0.0199 -0.3265
 1591TIP3   OH226263   2.662   6.445  14.039  0.3470 -0.2936  0.2152
 1591TIP3    H126264   2.686   6.500  14.114 -0.0027 -0.6402  0.5908
 1591TIP3    H226265   2.604   6.500  13.986 -0.4128 -0.4552  0.8517
 1592TIP3   OH226266   4.545   2.830  17.129 -0.4363 -0.4592  0.1107
 1592TIP3    H126267   4.623   2.831  17.074 -0.7207 -0.5650 -0.2994
 1592TIP3    H226268   4.475   2.799  17.071 -1.0430  0.8126  0.1407
 1593TIP3   OH226269   3.697   6.761   5.676 -0.0998 -0.0166 -0.2175
 1593TIP3    H126270   3.763   6.749   5.744  1.6535  0.2048 -1.7872
 1593TIP3    H226271   3.700   6.854   5.655 -0.1598 -0.1900 -1.0305
 1594TIP3   OH226272   6.584   6.497  13.645  0.3106  0.0890  0.2436
 1594TIP3    H126273   6.541   6.511  13.561  0.0609  0.4608  0.4283
 1594TIP3    H226274   6.657   6.558  13.646  1.8533 -1.6515 -0.7395
 1595TIP3   OH226275   1.147   5.291  13.186 -0.6466 -0.1999  0.2808
 1595TIP3    H126276   1.192   5.365  13.226 -0.5789 -0.4440  0.6506
 1595TIP3    H226277   1.190   5.281  13.100 -1.2314  0.7366 -0.1401
 1596TIP3   OH226278   0.812   1.353  14.669  0.2362 -0.4877  0.5984
 1596TIP3    H126279   0.777   1.265  14.663  0.5511 -0.5730 -0.2154
 1596TIP3    H226280   0.798   1.380  14.760 -3.1071 -0.0092  0.0520
 1597TIP3   OH226281   4.486   0.826  15.440  0.1603 -0.2776 -0.3292
 1597TIP3    H126282   4.408   0.773  15.424 -0.9160  1.2392 -0.4204
 1597TIP3    H226283   4.497   0.825  15.535  0.5072 -1.1156 -0.3700
 1598TIP3   OH226284   0.907   3.637   5.726  0.5446 -0.2624 -0.4934
 1598TIP3    H126285   0.871   3.699   5.663  1.3588  0.2259 -0.5035
 1598TIP3    H226286   0.915   3.687   5.808  1.8981 -0.1082 -0.6950
 1599TIP3   OH226287   4.496   5.849  15.685  0.7062 -0.0738 -0.1831
 1599TIP3    H126288   4.485   5.891  15.600  0.2021 -0.5612 -0.3648
 1599TIP3    H226289   4.537   5.916  15.740  0.5018  0.4336 -0.6405
 1600TIP3   OH226290   6.698   2.074   1.557 -0.0348  0.0155 -0.2701
 1600TIP3    H126291   6.725   1.984   1.537  0.6149  0.3454 -0.9080
 1600TIP3    H226292   6.773   2.112   1.602 -0.1459  0.3645 -0.3754
 1601TIP3   OH226293   5.577   2.122   4.036  0.0587 -0.1702 -0.0389
 1601TIP3    H126294   5.542   2.057   3.976 -0.9216 -0.5198  0.8636
 1601TIP3    H226295   5.523   2.200   4.021 -1.3266 -0.7682  1.4878
 1602TIP3   OH226296   3.440   2.856   4.372 -0.6079 -0.0578  0.4449
 1602TIP3    H126297   3.441   2.940   4.418  2.1735 -0.5376  1.4776
 1602TIP3    H226298   3.486   2.873   4.289  0.6099 -0.6564  0.9704
 1603TIP3   OH226299   0.641   4.065  11.094  0.6580  0.1259  0.1731
 1603TIP3    H126300   0.556   4.021  11.102  0.9227 -0.2602  0.9942
 1603TIP3    H226301   0.623   4.143  11.042 -0.0814 -0.2620 -0.1781
 1604TIP3   OH226302   1.582   1.617  12.193  0.2496  0.1846 -0.0304
 1604TIP3    H126303   1.509   1.570  12.233  0.7325  0.5996  1.3677
 1604TIP3    H226304   1.642   1.634  12.265  1.1503  0.9439 -0.9396
 1605TIP3   OH226305   6.215   3.167  10.732 -0.1162  0.2046  0.4257
 1605TIP3    H126306   6.285   3.102  10.720 -0.9497 -0.2576 -2.9619
 1605TIP3    H226307   6.134   3.117  10.719 -0.7792  1.8362 -2.5029
 1606TIP3   OH226308   3.277   3.629  15.609  0.3805 -0.3489  0.1960
 1606TIP3    H126309   3.364   3.631  15.568  0.2806  3.6621 -0.2428
 1606TIP3    H226310   3.295   3.605  15.700  1.9551  0.0207  0.0226
 1607TIP3   OH226311   2.805   5.544  16.912  0.3392 -0.6490 -0.3021
 1607TIP3    H126312   2.796   5.589  16.996  1.0645 -0.2380 -0.4400
 1607TIP3    H226313   2.828   5.612  16.850  2.8083 -1.3399 -0.2557
 1608TIP3   OH226314   1.725   0.000   0.929 -0.1620 -0.5709 -0.1384
 1608TIP3    H126315   1.803  -0.055   0.928  0.7674  0.5349  2.4726
 1608TIP3    H226316   1.738   0.062   0.857 -1.2307 -3.5469 -3.1410
 1609TIP3   OH226317   0.777   0.942   1.019 -0.2356  0.0620 -0.2432
 1609TIP3    H126318   0.720   0.905   1.086  0.5840  0.9988  0.9938
 1609TIP3    H226319   0.716   0.976   0.953 -1.1039  0.5419  0.7742
 1610TIP3   OH226320   1.251   3.436   2.745  0.0168  0.2783  0.1444
 1610TIP3    H126321   1.250   3.510   2.684 -2.8462 -0.3109 -0.7081
 1610TIP3    H226322   1.226   3.361   2.691 -2.1493 -0.3603  1.8569
 1611TIP3   OH226323   2.380   0.118  12.742 -0.0424 -0.0220 -0.1227
 1611TIP3    H126324   2.431   0.063  12.801 -0.8925 -1.3852 -0.6315
 1611TIP3    H226325   2.442   0.143  12.673 -0.0319 -1.6866 -0.7493
 1612TIP3   OH226326   4.106   1.522   1.478  0.4143 -0.3607  0.2672
 1612TIP3    H126327   4.128   1.576   1.402 -0.5682  0.3617  0.4820
 1612TIP3    H226328   4.144   1.568   1.553 -2.6649  1.5533  0.8017
 1613TIP3   OH226329   5.285   0.319   0.032  0.0489  0.0835  0.6145
 1613TIP3    H126330   5.315   0.282   0.115 -1.3526  0.9321  1.5403
 1613TIP3    H226331   5.359   0.372   0.001  0.3921  0.2076  1.6172
 1614TIP3   OH226332   3.215   0.943  15.736  0.3248  0.2978 -0.0498
 1614TIP3    H126333   3.137   0.946  15.681 -0.3013  1.2308  0.8649
 1614TIP3    H226334   3.181   0.923  15.823  1.2310 -0.4191  0.1471
 1615TIP3   OH226335   4.921   6.280   1.169 -0.2605  0.5424  0.2020
 1615TIP3    H126336   5.001   6.233   1.144 -1.7311 -1.3375 -1.2770
 1615TIP3    H226337   4.856   6.211   1.182 -1.3138  1.8861  3.0340
 1616TIP3   OH226338   5.511   3.650   3.124 -0.3723 -0.0839 -0.7119
 1616TIP3    H126339   5.432   3.598   3.134  0.1293 -0.7357 -0.0477
 1616TIP3    H226340   5.572   3.614   3.188  0.2595  0.8047 -0.7946
 1617TIP3   OH226341   2.218   6.780  12.590  0.6566 -0.1389  0.2159
 1617TIP3    H126342   2.142   6.835  12.609  0.4472 -0.2131 -0.3952
 1617TIP3    H226343   2.282   6.804  12.657  0.3030  0.3272  0.3933
 1618TIP3   OH226344   6.806   0.267   5.735  0.3465  0.2639 -0.8043
 1618TIP3    H126345   6.797   0.254   5.829  1.5153 -0.8475 -0.8117
 1618TIP3    H226346   6.718   0.285   5.704 -0.2969 -0.9440  0.2718
 1619TIP3   OH226347   2.731   2.203   0.044 -0.0507 -0.4137  0.4024
 1619TIP3    H126348   2.805   2.263   0.051  1.2676 -1.9785  0.6422
 1619TIP3    H226349   2.655   2.253   0.074  0.8928  1.2596  0.0794
 1620TIP3   OH226350   0.259   0.168   0.991  0.0373  0.5370 -0.7564
 1620TIP3    H126351   0.309   0.105   0.940 -0.7151 -1.9115  1.3380
 1620TIP3    H226352   0.182   0.187   0.937  0.0036 -0.8119 -1.2071
 1621TIP3   OH226353   4.619   1.835   1.935  0.1313 -0.2540  0.1862
 1621TIP3    H126354   4.698   1.886   1.953  0.4677 -1.2204  1.6893
 1621TIP3    H226355   4.558   1.860   2.004 -0.5684 -0.1603 -0.4513
 1622TIP3   OH226356   4.926   6.805  16.406 -0.6584 -0.3256 -0.0359
 1622TIP3    H126357   4.913   6.812  16.501 -0.4640 -0.6694  0.0161
 1622TIP3    H226358   4.838   6.798  16.370 -0.7067 -0.8702  0.1762
 1623TIP3   OH226359   0.285   5.178   4.200 -0.3694 -0.0089 -0.1604
 1623TIP3    H126360   0.222   5.231   4.249  0.4537  0.1888  0.7269
 1623TIP3    H226361   0.349   5.242   4.168 -0.1984 -0.2971 -0.3989
 1624TIP3   OH226362   1.394   3.888  13.176 -0.0968  0.1752  0.5427
 1624TIP3    H126363   1.442   3.905  13.095  0.2144  2.5990  1.1751
 1624TIP3    H226364   1.311   3.850  13.147  0.2198  0.5117 -0.8881
 1625TIP3   OH226365   0.986   3.491  16.607  0.1889 -0.2092 -0.0774
 1625TIP3    H126366   1.071   3.530  16.626  0.6033 -0.5240 -1.1884
 1625TIP3    H226367   1.005   3.397  16.599 -0.6918 -0.6230  2.0122
 1626TIP3   OH226368   6.398   1.493  12.787  0.2260  0.1551 -0.6542
 1626TIP3    H126369   6.487   1.507  12.817  0.7551  0.1710 -2.1222
 1626TIP3    H226370   6.354   1.578  12.802  1.1621  0.9398 -2.1279
 1627TIP3   OH226371   1.186   6.029   2.128  0.0602 -0.6949 -0.0513
 1627TIP3    H126372   1.137   6.111   2.133 -0.3796 -0.7683 -1.9962
 1627TIP3    H226373   1.122   5.966   2.093  0.6027 -1.6920  0.6898
 1628TIP3   OH226374   6.259   4.725  13.080  0.4803 -0.1098  0.1607
 1628TIP3    H126375   6.286   4.654  13.139  0.9759  1.3891  1.8390
 1628TIP3    H226376   6.341   4.768  13.056  0.4052 -1.2312 -2.4900
 1629TIP3   OH226377   0.417   1.894   4.772  0.5519 -0.1610  0.4460
 1629TIP3    H126378   0.353   1.958   4.742 -1.0985 -1.4084  1.1776
 1629TIP3    H226379   0.479   1.886   4.699 -1.1228 -0.2155 -1.0302
 1630TIP3   OH226380   5.337   1.077   5.890 -0.4546 -0.7656 -0.2264
 1630TIP3    H126381   5.242   1.087   5.889 -0.2954  1.7807 -2.5897
 1630TIP3    H226382   5.363   1.105   5.978 -1.7800  0.4444 -0.1811
 1631TIP3   OH226383   0.190   2.711  10.821 -0.2276  0.4081  0.0846
 1631TIP3    H126384   0.121   2.673  10.875  0.8497 -0.7672  0.7130
 1631TIP3    H226385   0.180   2.806  10.832 -1.0361  0.2269  1.0670
 1632TIP3   OH226386   0.797   4.006   3.940 -0.0149 -0.4165 -0.0700
 1632TIP3    H126387   0.820   4.062   3.865 -0.6257  0.4908  0.4068
 1632TIP3    H226388   0.882   3.974   3.972  0.4654  1.1743  0.3497
 1633TIP3   OH226389   0.071   6.474   1.755  0.3371  0.5509 -0.3414
 1633TIP3    H126390   0.052   6.558   1.716  0.2459  0.8704  0.3716
 1633TIP3    H226391   0.161   6.483   1.788  0.9200 -0.1738 -1.6715
 1634TIP3   OH226392   2.247   6.365   5.055 -0.1018 -0.2609  0.3570
 1634TIP3    H126393   2.256   6.460   5.065  2.3794 -0.3916 -0.0383
 1634TIP3    H226394   2.192   6.338   5.128  0.4354  1.2950  1.3749
 1635TIP3   OH226395   1.926   3.976   5.235 -1.0296  0.3352  0.0575
 1635TIP3    H126396   1.866   4.035   5.281 -1.4306 -0.1732  0.1923
 1635TIP3    H226397   1.868   3.917   5.187 -0.6410 -0.5133  0.6286
 1636TIP3   OH226398   4.548   1.855   5.438  0.1627 -0.9808  0.1728
 1636TIP3    H126399   4.634   1.828   5.472  0.9659 -0.2272 -1.1725
 1636TIP3    H226400   4.551   1.832   5.345 -1.5702 -2.0189  0.3305
 1637TIP3   OH226401   0.419   1.932  16.010 -0.0717 -0.4041 -0.1913
 1637TIP3    H126402   0.416   2.019  15.970 -0.0027 -0.3800 -0.1421
 1637TIP3    H226403   0.493   1.935  16.070 -0.8714 -0.0702  0.8070
 1638TIP3   OH226404   6.006   3.167  12.282  0.1782  0.0796 -0.3364
 1638TIP3    H126405   6.041   3.111  12.352 -1.1568 -2.4689 -1.5751
 1638TIP3    H226406   6.079   3.177  12.222  0.6291  0.2478  0.2277
 1639TIP3   OH226407   5.758   3.984  15.146  0.1970  0.0696  0.5062
 1639TIP3    H126408   5.808   4.056  15.184 -0.2771  0.0835  1.1184
 1639TIP3    H226409   5.819   3.910  15.145  1.3057  0.9031 -1.8449
 1640TIP3   OH226410   2.800   4.734   0.993  1.1162  0.4819  0.3318
 1640TIP3    H126411   2.748   4.655   0.975 -0.4113  1.4620  0.2369
 1640TIP3    H226412   2.826   4.726   1.084  0.2421  0.2541  0.5714
 1641TIP3   OH226413   1.417   1.362  12.969  0.4841 -0.1104 -0.6444
 1641TIP3    H126414   1.452   1.451  12.965  1.4371 -0.4283  0.1404
 1641TIP3    H226415   1.412   1.333  12.878 -2.0008  1.5313 -1.1324
 1642TIP3   OH226416   4.985   5.415   4.075 -0.5142 -0.7453 -0.3995
 1642TIP3    H126417   4.941   5.479   4.019 -0.9221 -1.2511 -0.6653
 1642TIP3    H226418   4.943   5.332   4.054  0.2622 -1.1639 -0.3236
 1643TIP3   OH226419   4.862   5.582   3.894 -0.0423  0.6582 -0.3302
 1643TIP3    H126420   4.801   5.526   3.846  2.6642 -1.4209 -1.5695
 1643TIP3    H226421   4.857   5.667   3.850  0.4809 -0.4763 -2.7283
 1644TIP3   OH226422   5.771   1.743   2.513  0.1744  0.1116 -0.3041
 1644TIP3    H126423   5.856   1.708   2.485 -0.4050 -1.3815 -0.2744
 1644TIP3    H226424   5.783   1.766   2.605  0.6517  0.2732 -0.4045
 1645TIP3   OH226425   0.690   3.823   3.263  0.4404  0.4719 -0.3858
 1645TIP3    H126426   0.597   3.847   3.259 -0.0424 -0.9787  0.9434
 1645TIP3    H226427   0.690   3.729   3.245  1.6709  0.4807 -0.4777
 1646TIP3   OH226428   4.932   4.458  16.377  0.0124 -0.1507 -0.1801
 1646TIP3    H126429   4.871   4.518  16.335  0.3447  0.3966  0.1141
 1646TIP3    H226430   4.893   4.439  16.462  1.4639  2.2594  1.1248
 1647TIP3   OH226431   3.042   1.401   3.648  0.0966  0.6787  0.0175
 1647TIP3    H126432   2.996   1.380   3.729  0.2042  2.4826  0.5876
 1647TIP3    H226433   3.054   1.496   3.650  0.3647  0.7427 -1.9847
 1648TIP3   OH226434   0.970   0.709   0.926  0.2229  0.5642  0.2108
 1648TIP3    H126435   0.935   0.775   0.986  0.6009  1.4589 -0.5225
 1648TIP3    H226436   0.982   0.757   0.844 -1.2638 -0.8722 -0.9065
 1649TIP3   OH226437   1.103   5.114  14.639 -0.4149  0.6478  0.0580
 1649TIP3    H126438   1.084   5.119  14.545 -1.1308 -1.3404  0.0497
 1649TIP3    H226439   1.033   5.165  14.680 -1.2257 -0.0590 -0.4095
 1650TIP3   OH226440   3.037   0.621   2.533 -0.2318 -0.0199 -0.0724
 1650TIP3    H126441   3.015   0.669   2.453  1.8049  0.5913 -0.3369
 1650TIP3    H226442   3.073   0.538   2.503  0.4162  0.1564  0.1798
 1651TIP3   OH226443   4.764   1.736  13.135  0.4258  0.1555  0.2995
 1651TIP3    H126444   4.729   1.817  13.098 -0.2532 -1.1347 -2.0981
 1651TIP3    H226445   4.830   1.707  13.072  1.5881 -0.5230  1.7664
 1652TIP3   OH226446   0.105   3.864   0.037  0.0216 -0.1058 -0.1504
 1652TIP3    H126447   0.171   3.920  -0.004 -0.6215  1.6268  1.0369
 1652TIP3    H226448   0.089   3.906   0.122 -1.2517 -1.5439  0.3542
 1653TIP3   OH226449   0.081   1.516  12.086  0.3461  0.8079  0.3561
 1653TIP3    H126450   0.132   1.588  12.123  0.9306  0.6590 -0.1458
 1653TIP3    H226451   0.091   1.526  11.991 -0.6256  0.8204  0.2443
 1654TIP3   OH226452   0.169   2.417   2.467 -0.0348 -0.6172  0.4876
 1654TIP3    H126453   0.119   2.440   2.389 -0.5430 -1.5119  0.5271
 1654TIP3    H226454   0.256   2.394   2.434  0.6027  1.6049  0.4906
 1655TIP3   OH226455   3.424   4.046  16.874  0.1120  0.3215  0.3198
 1655TIP3    H126456   3.428   4.076  16.965  1.3136  0.3448  0.2810
 1655TIP3    H226457   3.509   4.071  16.837 -0.3377  0.2580 -0.7933
 1656TIP3   OH226458   4.502   5.028  16.594 -0.0881  0.1237  0.2956
 1656TIP3    H126459   4.448   4.980  16.530  1.0484 -1.1785  0.2679
 1656TIP3    H226460   4.543   5.097  16.543 -0.3936  0.0605 -0.0445
 1657TIP3   OH226461   5.590   5.549  14.905  0.7499 -0.3807  0.1379
 1657TIP3    H126462   5.580   5.645  14.900  0.7673 -0.3191  1.0345
 1657TIP3    H226463   5.626   5.524  14.820 -1.4565  0.1234 -1.0113
 1658TIP3   OH226464   2.689   3.338   1.633  0.0225 -0.7342  0.2232
 1658TIP3    H126465   2.664   3.347   1.541 -0.2584  1.4510  0.4621
 1658TIP3    H226466   2.606   3.330   1.680 -0.0851  1.6387  0.5584
 1659TIP3   OH226467   0.648   0.746   2.879 -0.5139  0.1029 -0.1753
 1659TIP3    H126468   0.570   0.734   2.933  0.2906 -0.4360  0.9133
 1659TIP3    H226469   0.622   0.810   2.812 -2.3837 -1.3499 -0.9111
 1660TIP3   OH226470   4.305   1.460  17.258  0.4940  0.3189  0.5470
 1660TIP3    H126471   4.382   1.468  17.314  0.6087  2.1882  0.1921
 1660TIP3    H226472   4.289   1.549  17.226 -0.1227 -0.4919 -1.6309
 1661TIP3   OH226473   1.862   2.622  14.666 -0.1867  0.3498 -0.1697
 1661TIP3    H126474   1.888   2.530  14.670  0.9519  0.6757  0.2459
 1661TIP3    H226475   1.894   2.652  14.581  1.8068  1.0227  0.7680
 1662TIP3   OH226476   3.662   2.668  15.578 -0.1015  0.2559 -0.0907
 1662TIP3    H126477   3.657   2.749  15.629 -0.4181  1.1251 -1.4594
 1662TIP3    H226478   3.752   2.667  15.544 -0.3266  0.4348 -0.7028
 1663TIP3   OH226479   0.677   6.520  10.969 -0.2726 -0.0386 -0.0414
 1663TIP3    H126480   0.727   6.485  10.895  0.0389  1.2987 -0.4924
 1663TIP3    H226481   0.677   6.450  11.034  1.7720 -0.2695 -0.2322
 1664TIP3   OH226482   6.427   6.605   6.206 -0.0834  0.0658  0.1113
 1664TIP3    H126483   6.340   6.626   6.173 -0.0591  2.6942  1.4196
 1664TIP3    H226484   6.437   6.661   6.283  1.3969 -2.7806  2.1751
 1665TIP3   OH226485   1.074   1.444  10.906  0.3107  0.2545 -0.1135
 1665TIP3    H126486   1.023   1.511  10.861 -0.2316 -0.3058 -0.3363
 1665TIP3    H226487   1.165   1.464  10.882  0.1867  1.1008  0.0838
 1666TIP3   OH226488   5.132   2.083   5.949  0.1109  0.3684  0.6377
 1666TIP3    H126489   5.073   2.157   5.957  0.3701  0.4591  1.8444
 1666TIP3    H226490   5.215   2.121   5.920  0.2305  0.5393  1.2107
 1667TIP3   OH226491   5.867   2.066   6.163 -0.1458  0.0370 -0.6250
 1667TIP3    H126492   5.872   2.143   6.220 -1.2789 -0.9675  0.9085
 1667TIP3    H226493   5.928   2.004   6.201 -1.6250 -1.0094  0.1460
 1668TIP3   OH226494   6.272   0.546  16.467  0.5804 -0.3900 -0.2180
 1668TIP3    H126495   6.287   0.641  16.467  0.2473 -0.3339 -0.1478
 1668TIP3    H226496   6.253   0.525  16.558  3.1465 -0.9521  0.2712
 1669TIP3   OH226497   2.958   2.340  16.004 -0.1857 -0.1352  0.0580
 1669TIP3    H126498   3.006   2.269  15.960 -0.8993 -0.6314  0.0583
 1669TIP3    H226499   2.949   2.407  15.936 -1.3593 -0.9360 -0.6092
 1670TIP3   OH226500   1.629   6.366  13.388  0.2851 -0.0633 -0.1073
 1670TIP3    H126501   1.562   6.324  13.441  1.4302  0.4155  1.7969
 1670TIP3    H226502   1.636   6.310  13.310 -2.3559 -0.0536 -0.4548
 1671TIP3   OH226503   2.603   2.155  10.168  0.1387 -0.2105  0.2924
 1671TIP3    H126504   2.550   2.075  10.168  1.0074 -0.8381  2.1929
 1671TIP3    H226505   2.544   2.223  10.200  0.6644 -1.1268  3.4969
 1672TIP3   OH226506   3.159   2.688   1.139 -0.0331  0.0167  0.0654
 1672TIP3    H126507   3.087   2.749   1.155 -1.3560 -1.7267  1.2287
 1672TIP3    H226508   3.237   2.732   1.173 -0.6378  1.6808 -0.6115
 1673TIP3   OH226509   4.990   1.717  14.796 -0.0859 -0.1649  0.1658
 1673TIP3    H126510   4.947   1.789  14.749 -1.8742 -2.2894 -1.6786
 1673TIP3    H226511   5.048   1.678  14.731  3.3306  1.3560  2.0291
 1674TIP3   OH226512   1.887   5.670  14.027 -0.2055 -0.0313  1.1980
 1674TIP3    H126513   1.932   5.586  14.014  2.2808  1.2744  0.5358
 1674TIP3    H226514   1.924   5.726  13.959 -3.0410  1.2032  0.5518
 1675TIP3   OH226515   0.027   2.749  13.800 -0.2516  0.1993 -0.2518
 1675TIP3    H126516  -0.066   2.770  13.805 -0.0849  1.1153 -0.7307
 1675TIP3    H226517   0.030   2.653  13.796 -1.0927  0.0962  1.1305
 1676TIP3   OH226518   5.856   0.429   3.577 -0.2173  0.2517 -0.5515
 1676TIP3    H126519   5.876   0.335   3.582 -0.0818  0.2740 -0.6563
 1676TIP3    H226520   5.779   0.440   3.632  0.9036  0.4226  1.0331
 1677TIP3   OH226521   1.374   6.037   3.933  0.0308 -0.2248  0.0584
 1677TIP3    H126522   1.463   6.014   3.907  0.2974 -0.0869  0.8369
 1677TIP3    H226523   1.383   6.074   4.020 -0.8203 -0.4256  0.2413
 1678TIP3   OH226524   2.193   0.346  14.676 -0.0822 -0.2066  0.3360
 1678TIP3    H126525   2.208   0.409  14.606  2.7886 -1.4815 -0.3351
 1678TIP3    H226526   2.247   0.377  14.749 -1.0124 -0.2955  1.0897
 1679TIP3   OH226527   5.634   5.979   5.905 -0.2402  0.1663  0.1745
 1679TIP3    H126528   5.581   6.043   5.953 -1.1309  0.8985 -1.6580
 1679TIP3    H226529   5.611   5.895   5.943 -0.3810  0.7592  1.4632
 1680TIP3   OH226530   1.868   3.641   0.526  0.2115 -0.6732 -0.2386
 1680TIP3    H126531   1.960   3.621   0.509  0.0308 -2.7147  0.9413
 1680TIP3    H226532   1.871   3.717   0.585  1.0423  0.4284 -1.6325
 1681TIP3   OH226533   6.614   6.077  14.248 -0.8755 -0.1472  0.0985
 1681TIP3    H126534   6.663   6.126  14.313 -1.5054 -1.0186  1.2685
 1681TIP3    H226535   6.546   6.137  14.218 -1.1817 -0.0423  0.9766
 1682TIP3   OH226536   2.447   3.266  11.317 -0.4643  0.3762 -0.1327
 1682TIP3    H126537   2.378   3.216  11.362  0.4697  0.2396  1.2039
 1682TIP3    H226538   2.469   3.213  11.240 -0.7989 -0.3328  0.2543
 1683TIP3   OH226539   0.302   2.992  14.756 -0.8381 -0.6678  0.4661
 1683TIP3    H126540   0.223   2.981  14.808  0.4062 -1.8503  2.2334
 1683TIP3    H226541   0.318   2.906  14.717 -0.6533 -0.3236 -0.2444
 1684TIP3   OH226542   1.113   3.172  12.319  0.2700 -0.0367  0.3877
 1684TIP3    H126543   1.083   3.125  12.241  1.0138 -0.3224  0.2646
 1684TIP3    H226544   1.047   3.154  12.385 -1.3394  1.6573 -0.6599
 1685TIP3   OH226545   3.800   6.556  16.996 -0.4804  0.5299  1.0386
 1685TIP3    H126546   3.856   6.518  17.063 -0.6174 -0.6223  0.5356
 1685TIP3    H226547   3.813   6.650  17.003 -0.1875  0.4051  2.4012
 1686TIP3   OH226548   2.236   5.635  12.902  0.1239  0.4560  0.2907
 1686TIP3    H126549   2.314   5.657  12.851  0.7374 -3.1297 -0.5759
 1686TIP3    H226550   2.170   5.698  12.872  1.9629  1.9745 -0.8192
 1687TIP3   OH226551   5.776   6.809  12.616  0.3540  0.2196 -0.1737
 1687TIP3    H126552   5.780   6.717  12.644  0.7507  0.5920  1.0575
 1687TIP3    H226553   5.867   6.830  12.593  0.3492  0.4434  0.0168
 1688TIP3   OH226554   3.923   0.963   2.573 -0.6389 -0.7104 -0.4851
 1688TIP3    H126555   3.917   0.867   2.568 -0.6700 -0.7447  0.1086
 1688TIP3    H226556   3.994   0.986   2.514  0.5220 -1.2608  0.6466
 1689TIP3   OH226557   0.006   2.544   0.265 -0.4269 -0.2695  0.2805
 1689TIP3    H126558  -0.035   2.516   0.347  0.5520  0.0982  0.9074
 1689TIP3    H226559   0.068   2.611   0.292  1.6900 -1.8442 -0.4536
 1690TIP3   OH226560   2.085   1.548   5.670  0.4116  0.0304 -0.2308
 1690TIP3    H126561   2.010   1.494   5.643 -1.1536  0.7902  2.2524
 1690TIP3    H226562   2.130   1.495   5.736 -1.0638  1.5369  2.1307
 1691TIP3   OH226563   6.749   1.745  14.467  0.4899  0.5083  0.2073
 1691TIP3    H126564   6.676   1.807  14.472 -0.8607 -0.9932 -0.2134
 1691TIP3    H226565   6.778   1.736  14.558 -1.3056 -0.4836  0.7447
 1692TIP3   OH226566   5.592   2.158  14.292 -0.0493 -0.3512  0.5759
 1692TIP3    H126567   5.560   2.191  14.376  2.9489 -0.3456  1.8184
 1692TIP3    H226568   5.680   2.127  14.310  0.0851 -1.9321 -2.2472
 1693TIP3   OH226569   3.522   4.093   5.026  0.2612 -0.6665 -0.4421
 1693TIP3    H126570   3.586   4.161   5.047  1.2541 -1.8788  0.6232
 1693TIP3    H226571   3.440   4.126   5.064  0.2972  0.7418 -1.5137
 1694TIP3   OH226572   0.000   0.124  14.313 -0.1535 -0.0672 -0.1683
 1694TIP3    H126573   0.004   0.069  14.235 -0.9434  0.0171 -0.2729
 1694TIP3    H226574   0.092   0.139  14.336  0.0865 -1.4360 -0.1237
 1695TIP3   OH226575   2.003   0.901   0.217  0.0040  0.4660  0.7840
 1695TIP3    H126576   1.924   0.907   0.272  0.1262 -0.0062  1.0166
 1695TIP3    H226577   2.061   0.969   0.251  0.0300  0.2558  1.1608
 1696TIP3   OH226578   5.682   5.639  10.622 -0.1574  0.6043  0.9075
 1696TIP3    H126579   5.673   5.713  10.562  1.1668  0.0215 -0.0762
 1696TIP3    H226580   5.630   5.663  10.698 -0.7540  1.9946  0.1013
 1697TIP3   OH226581   3.165   2.560   2.365 -1.0459 -0.1021  0.4476
 1697TIP3    H126582   3.217   2.621   2.417 -1.0171 -0.2543  0.5992
 1697TIP3    H226583   3.160   2.481   2.419 -2.4675  0.3188  0.9867
 1698TIP3   OH226584   3.077   4.851   3.866  0.1416 -0.6335 -0.3001
 1698TIP3    H126585   3.166   4.826   3.892  0.5954 -1.5076 -2.4476
 1698TIP3    H226586   3.075   4.835   3.772 -1.9919  0.3636 -0.4759
 1699TIP3   OH226587   3.509   6.750  10.607  0.2608 -0.8600 -0.0250
 1699TIP3    H126588   3.562   6.760  10.528 -0.3993 -0.0272 -0.3659
 1699TIP3    H226589   3.426   6.715  10.576 -0.9679  1.8982 -0.0747
 1700TIP3   OH226590   4.644   4.038   4.055  0.1548  0.4940 -0.6442
 1700TIP3    H126591   4.709   3.983   4.013  1.7573  0.7709  1.3241
 1700TIP3    H226592   4.688   4.122   4.069 -0.7470  0.8248  0.3832
 1701TIP3   OH226593   3.701   4.040  14.488  0.3934  0.6070  0.3713
 1701TIP3    H126594   3.623   4.055  14.542  0.0316 -0.2919  0.1259
 1701TIP3    H226595   3.679   3.962  14.437  1.0563  0.9600 -0.4643
 1702TIP3   OH226596   4.419   1.294  12.565  0.1028  0.1837  0.3259
 1702TIP3    H126597   4.334   1.258  12.540  0.1528  0.3802 -0.1295
 1702TIP3    H226598   4.442   1.355  12.495  1.8481 -1.8026 -0.9517
 1703TIP3   OH226599   2.285   4.582  11.683 -0.4486 -0.3337  0.3694
 1703TIP3    H126600   2.225   4.657  11.689  0.4535  0.3436  1.4734
 1703TIP3    H226601   2.309   4.578  11.591 -1.6622 -0.2018  0.0282
 1704TIP3   OH226602   2.693   1.579  13.847 -0.2000  0.8231 -0.0153
 1704TIP3    H126603   2.637   1.596  13.772 -0.0540  0.2364 -0.2675
 1704TIP3    H226604   2.758   1.516  13.814  0.7867  1.7007  0.1810
 1705TIP3   OH226605   1.676   3.100  14.697 -0.4795 -0.5043 -0.1255
 1705TIP3    H126606   1.757   3.146  14.715 -0.0184 -0.9675 -0.9451
 1705TIP3    H226607   1.679   3.023  14.754  0.8503 -1.8306 -1.8913
 1706TIP3   OH226608   1.432   6.409  14.823 -0.3155  0.4807  0.1391
 1706TIP3    H126609   1.337   6.408  14.837 -0.5701  1.6971 -1.2080
 1706TIP3    H226610   1.450   6.323  14.784 -1.1482  0.7898 -1.0076
 1707TIP3   OH226611   3.287   0.992   2.525  0.2551 -0.6606  0.6810
 1707TIP3    H126612   3.333   1.076   2.524  0.0902 -0.5549  1.4627
 1707TIP3    H226613   3.334   0.938   2.461  2.5102 -1.1003  2.5427
 1708TIP3   OH226614   1.510   2.591  13.020  1.1675 -0.1792  0.6130
 1708TIP3    H126615   1.502   2.584  13.116  2.4420 -3.2299  0.6052
 1708TIP3    H226616   1.576   2.526  12.997  3.1567  2.5410 -2.1082
 1709TIP3   OH226617   3.994   4.871   4.791  0.4279  0.1983 -0.1955
 1709TIP3    H126618   3.913   4.849   4.837  0.5345 -0.8132 -0.4768
 1709TIP3    H226619   4.021   4.789   4.749  0.6096  0.9638 -1.6325
 1710TIP3   OH226620   3.090   0.988   6.553 -0.4061 -0.3365  0.1375
 1710TIP3    H126621   3.146   0.915   6.576 -0.7922 -0.6691  0.0371
 1710TIP3    H226622   3.012   0.947   6.514 -0.2597  0.1515 -0.7052
 1711TIP3   OH226623   3.222   5.550  12.479 -0.1680 -0.3716 -0.1999
 1711TIP3    H126624   3.288   5.535  12.546 -0.3926  0.7378  0.3057
 1711TIP3    H226625   3.249   5.631  12.437 -1.7132  0.6843  0.7150
 1712TIP3   OH226626   2.950   4.643   5.502  0.2869 -0.0112  0.2919
 1712TIP3    H126627   2.981   4.554   5.483 -0.7922 -0.2439 -0.4132
 1712TIP3    H226628   2.858   4.642   5.478  0.4554  1.5453 -0.5247
 1713TIP3   OH226629   1.085   0.473   2.921 -0.0220  0.3578 -0.0362
 1713TIP3    H126630   1.132   0.399   2.961 -0.0462  0.7265  0.6911
 1713TIP3    H226631   1.027   0.505   2.990 -1.1908  0.0586 -0.8505
 1714TIP3   OH226632   5.328   0.593  17.052  0.3750  0.2451 -0.0386
 1714TIP3    H126633   5.367   0.631  16.973  0.2310 -1.8867 -1.2058
 1714TIP3    H226634   5.256   0.652  17.073  1.8830  2.2168  0.0110
 1715TIP3   OH226635   3.074   2.015   1.230 -0.1904 -0.0767  0.8474
 1715TIP3    H126636   3.153   2.062   1.256  0.8701 -1.7101  0.7245
 1715TIP3    H226637   3.078   1.932   1.278 -0.0160 -1.6649 -1.7353
 1716TIP3   OH226638   4.695   1.777   2.475  0.3002 -0.0803  0.2205
 1716TIP3    H126639   4.764   1.754   2.538  0.2804 -0.6364  0.0466
 1716TIP3    H226640   4.624   1.812   2.529  1.4531  2.3982  0.2463
 1717TIP3   OH226641   0.838   1.283   3.860 -0.1207  0.2518 -0.0455
 1717TIP3    H126642   0.906   1.351   3.862 -0.4753  0.6394 -0.8303
 1717TIP3    H226643   0.886   1.203   3.839  0.7521 -0.3566  3.5493
 1718TIP3   OH226644   1.258   4.899  11.676  0.1171 -0.4108 -0.0677
 1718TIP3    H126645   1.287   4.901  11.767 -1.0369 -1.9310  0.3727
 1718TIP3    H226646   1.336   4.874  11.626  0.9059  1.0313  0.4081
 1719TIP3   OH226647   2.335   5.788   5.875  0.3316  0.0111  0.1541
 1719TIP3    H126648   2.396   5.779   5.948  0.3338  0.8862  0.2743
 1719TIP3    H226649   2.360   5.870   5.832  0.5684 -0.6804 -1.0689
 1720TIP3   OH226650   6.772   6.394   3.091 -0.3678 -0.0392 -0.0059
 1720TIP3    H126651   6.738   6.418   3.178 -0.6891  0.6899 -0.3209
 1720TIP3    H226652   6.817   6.473   3.061  0.0530 -0.4104 -0.3504
 1721TIP3   OH226653   2.148   4.466  15.030 -0.5367 -0.2133 -0.6133
 1721TIP3    H126654   2.189   4.517  14.960 -1.9212 -1.3179 -2.3153
 1721TIP3    H226655   2.100   4.530  15.081 -1.3536  0.3844 -2.0652
 1722TIP3   OH226656   6.400   0.328   3.462 -0.2809  0.2111 -0.1386
 1722TIP3    H126657   6.334   0.350   3.528  1.1688  0.0120  1.4366
 1722TIP3    H226658   6.480   0.370   3.493  0.8305 -1.2559 -0.9088
 1723TIP3   OH226659   2.957   2.129   6.338  1.2411 -0.2544  0.4467
 1723TIP3    H126660   2.882   2.088   6.381 -0.2452 -0.4015 -2.0915
 1723TIP3    H226661   2.937   2.222   6.339  1.6213 -0.1728  0.7893
 1724TIP3   OH226662   6.474   0.629   3.503  0.3078 -0.4316 -0.3949
 1724TIP3    H126663   6.421   0.616   3.425 -1.1907 -0.5920  0.5996
 1724TIP3    H226664   6.564   0.633   3.471 -0.4182  2.8534 -2.5201
 1725TIP3   OH226665   5.166   6.593   4.252 -0.0442 -0.2446 -0.1450
 1725TIP3    H126666   5.128   6.553   4.330 -1.1214  1.9487  0.5506
 1725TIP3    H226667   5.136   6.684   4.255  2.1442  0.6170 -1.6685
 1726TIP3   OH226668   0.101   6.783  16.828 -0.2692  0.6077 -0.1518
 1726TIP3    H126669   0.051   6.777  16.909  0.7862  1.8905  0.6451
 1726TIP3    H226670   0.040   6.755  16.760 -1.6617  0.9050  0.9154
 1727TIP3   OH226671   0.206   4.576   1.967  0.5584 -0.3581 -0.2940
 1727TIP3    H126672   0.156   4.653   1.939  1.3941  0.2963 -0.0289
 1727TIP3    H226673   0.152   4.501   1.941 -0.4072  0.3223 -0.2915
 1728TIP3   OH226674   2.412   5.737  13.126 -0.1206 -0.6466  0.2048
 1728TIP3    H126675   2.339   5.686  13.090 -0.3483  0.5504 -1.1413
 1728TIP3    H226676   2.488   5.710  13.074  0.6918 -2.6729  2.2993
 1729TIP3   OH226677   6.243   3.328   4.913 -0.0189 -0.5187  0.3932
 1729TIP3    H126678   6.148   3.317   4.915 -0.4176  2.1564  1.5162
 1729TIP3    H226679   6.261   3.366   4.826 -0.4116  1.3580  1.0730
 1730TIP3   OH226680   3.367   1.240  16.845  0.2864 -0.4520 -0.3983
 1730TIP3    H126681   3.340   1.152  16.871  2.5415 -0.6022  1.7470
 1730TIP3    H226682   3.312   1.298  16.896 -2.1013 -0.4674 -2.7433
 1731TIP3   OH226683   4.379   6.728  15.715  0.0593 -0.1410 -0.2576
 1731TIP3    H126684   4.447   6.741  15.650 -1.1872  1.8199 -1.2565
 1731TIP3    H226685   4.297   6.734  15.666 -0.8938  0.0008  1.2882
 1732TIP3   OH226686   3.149   0.772  13.421  0.0497 -0.9180 -0.5882
 1732TIP3    H126687   3.205   0.783  13.498  1.2014 -0.9038 -1.4091
 1732TIP3    H226688   3.200   0.717  13.361 -0.1959  0.2847 -1.9602
 1733TIP3   OH226689   4.714   2.239   2.308  0.6399  0.4556 -0.6892
 1733TIP3    H126690   4.698   2.233   2.213  0.0733  0.4594 -0.5951
 1733TIP3    H226691   4.675   2.322   2.333 -0.5825 -0.2549 -0.1787
 1734TIP3   OH226692   1.124   1.184  11.198  0.1659  0.2200  0.7526
 1734TIP3    H126693   1.217   1.192  11.173  0.3098 -2.3759  0.1040
 1734TIP3    H226694   1.118   1.226  11.283  1.8179  0.9352  0.5606
 1735TIP3   OH226695   5.545   5.805  13.181 -0.3646 -0.7165  0.2769
 1735TIP3    H126696   5.581   5.892  13.202  0.4374 -0.3972 -2.1485
 1735TIP3    H226697   5.545   5.801  13.086  1.1322 -3.9919  0.2754
 1736TIP3   OH226698   3.922   5.098   2.107 -0.1665  0.4427 -0.3342
 1736TIP3    H126699   4.009   5.110   2.067  0.5306  1.4050  1.3903
 1736TIP3    H226700   3.889   5.187   2.119 -1.5543  0.0825 -1.2095
 1737TIP3   OH226701   1.773   6.237  12.490 -0.5600  0.3815 -0.3964
 1737TIP3    H126702   1.686   6.237  12.531 -0.6758  1.2475 -0.6057
 1737TIP3    H226703   1.755   6.246  12.396 -0.2503  0.9686 -0.4086
 1738TIP3   OH226704   3.294   1.913  13.529  0.3989 -0.2100  0.0437
 1738TIP3    H126705   3.214   1.962  13.511  1.3207  1.8578  1.2301
 1738TIP3    H226706   3.353   1.936  13.458  1.0876  1.0431  0.9960
 1739TIP3   OH226707   3.747   1.344  12.666 -0.1072 -0.0214 -0.0872
 1739TIP3    H126708   3.684   1.385  12.606  1.6507  0.3930 -1.7416
 1739TIP3    H226709   3.830   1.347  12.619  0.8460 -2.0969  1.3237
 1740TIP3   OH226710   2.051   5.953   3.063 -0.4095  0.4607  0.1410
 1740TIP3    H126711   2.092   6.038   3.050  0.3307  0.1777  0.4971
 1740TIP3    H226712   2.053   5.912   2.976 -2.9736  1.7007 -0.5925
 1741TIP3   OH226713   1.107   6.274  11.948  0.0787  0.1426 -0.1608
 1741TIP3    H126714   1.070   6.348  11.996 -0.2682 -0.5366  0.6595
 1741TIP3    H226715   1.185   6.250  11.998  0.5094  0.3091 -0.7489
 1742TIP3   OH226716   3.665   0.679  13.956 -0.0743  0.1993  0.3756
 1742TIP3    H126717   3.691   0.723  14.037 -2.4805  1.3839  0.6051
 1742TIP3    H226718   3.705   0.592  13.961 -0.3386  0.1702  2.9294
 1743TIP3   OH226719   0.729   5.833  13.112 -0.3065  0.1876  0.3094
 1743TIP3    H126720   0.689   5.880  13.039  0.3974  1.6340  0.8056
 1743TIP3    H226721   0.805   5.789  13.075 -0.4036  0.2699  0.0134
 1744TIP3   OH226722   0.247   2.762   5.501  0.1229  0.3237 -0.2368
 1744TIP3    H126723   0.328   2.737   5.457  0.1266 -0.0649 -0.0189
 1744TIP3    H226724   0.224   2.847   5.463  1.2241  0.9764  0.5007
 1745TIP3   OH226725   2.843   0.231  16.457 -0.4954 -0.5551 -0.4090
 1745TIP3    H126726   2.768   0.208  16.403 -0.4797 -0.6940 -0.3718
 1745TIP3    H226727   2.881   0.308  16.415 -0.9985 -0.1351 -0.1091
 1746TIP3   OH226728   5.055   6.323  16.933 -0.7123 -0.2725  0.2333
 1746TIP3    H126729   5.011   6.321  17.018 -0.2186 -0.6391  0.4824
 1746TIP3    H226730   4.984   6.335  16.869 -1.1326 -0.4991  0.6557
 1747TIP3   OH226731   3.617   5.805  14.497  0.2815  0.0140 -0.2987
 1747TIP3    H126732   3.546   5.834  14.555 -1.3954  0.0150 -2.2277
 1747TIP3    H226733   3.617   5.709  14.507  0.4691  0.0570  0.1748
 1748TIP3   OH226734   6.800   0.374   0.898 -0.2639 -0.2696 -0.3139
 1748TIP3    H126735   6.742   0.322   0.955  1.4856 -0.9532  0.9182
 1748TIP3    H226736   6.852   0.309   0.851  1.1758  0.3440  0.4001
 1749TIP3   OH226737   2.353   4.176  14.105 -0.2727 -0.6615  0.3479
 1749TIP3    H126738   2.433   4.206  14.147 -0.0037 -3.3150  1.9932
 1749TIP3    H226739   2.373   4.178  14.011  0.4461  1.8796  0.4819
 1750TIP3   OH226740   5.368   3.473   2.601 -0.0236  0.1220  0.1016
 1750TIP3    H126741   5.286   3.448   2.644 -0.8821  1.1105 -0.9263
 1750TIP3    H226742   5.345   3.548   2.547  0.4379 -2.3673 -3.9524
 1751TIP3   OH226743   5.332   3.683   1.345  0.3237 -0.8931  0.3922
 1751TIP3    H126744   5.364   3.604   1.300  0.5601 -0.5072 -0.1397
 1751TIP3    H226745   5.246   3.659   1.378 -0.6537 -0.7008 -1.7830
 1752TIP3   OH226746   6.582   4.926  10.663  0.1022 -0.3214 -0.6510
 1752TIP3    H126747   6.625   4.845  10.635  0.0593 -0.0035 -1.6881
 1752TIP3    H226748   6.499   4.896  10.701  0.2237 -0.7868 -0.7387
 1753TIP3   OH226749   1.526   3.649  11.607  0.1506 -0.8004  0.4646
 1753TIP3    H126750   1.481   3.732  11.624  1.8158  0.0445  0.9836
 1753TIP3    H226751   1.456   3.586  11.591 -1.2203  0.3720  1.5999
 1754TIP3   OH226752   0.007   5.386   2.972 -0.1526  0.2136  0.1979
 1754TIP3    H126753  -0.015   5.478   2.958 -0.1517 -0.0846 -2.1280
 1754TIP3    H226754  -0.010   5.344   2.888  1.1646 -1.6730  0.8058
 1755TIP3   OH226755   1.051   4.347  13.324 -0.6719 -0.3704 -0.2794
 1755TIP3    H126756   1.113   4.325  13.394 -1.9216 -1.3130  0.5768
 1755TIP3    H226757   1.079   4.433  13.294  0.9597 -0.7092  0.1756
 1756TIP3   OH226758   4.433   4.398  13.825  0.6152 -0.3105  0.4080
 1756TIP3    H126759   4.467   4.482  13.855 -0.4619 -0.1545  1.2566
 1756TIP3    H226760   4.352   4.387  13.873 -0.0990 -1.0742 -0.9227
 1757TIP3   OH226761   1.526   3.299   5.061 -0.9344  0.1905 -0.2053
 1757TIP3    H126762   1.475   3.297   4.980 -1.7906 -2.6449  0.2900
 1757TIP3    H226763   1.460   3.308   5.130 -0.3777  0.5645  0.2929
 1758TIP3   OH226764   1.780   5.472   4.867  0.6018 -0.3106  0.3190
 1758TIP3    H126765   1.829   5.549   4.898 -0.3861 -0.1493  1.5599
 1758TIP3    H226766   1.690   5.488   4.895 -0.0828 -0.8531 -1.4727
 1759TIP3   OH226767   6.769   2.437   2.901  0.0237 -0.1294  0.0573
 1759TIP3    H126768   6.674   2.450   2.911  0.0187  0.6410 -0.8633
 1759TIP3    H226769   6.805   2.525   2.898  0.6659 -0.4055 -0.5870
 1760TIP3   OH226770   3.700   1.574   4.432 -0.0046  0.0799  0.4851
 1760TIP3    H126771   3.645   1.622   4.494  0.1166  0.5332  0.2497
 1760TIP3    H226772   3.668   1.602   4.346 -0.7684 -1.2124  0.3183
 1761TIP3   OH226773   0.611   3.795   6.649 -0.0138  0.3094  0.5929
 1761TIP3    H126774   0.601   3.711   6.693 -0.9641  1.9697  3.8124
 1761TIP3    H226775   0.523   3.818   6.620  0.4909 -0.4404 -1.7465
 1762TIP3   OH226776   5.985   3.691   0.059 -0.4521  1.0583  0.3417
 1762TIP3    H126777   6.031   3.609   0.075 -0.5923  0.8418 -0.3124
 1762TIP3    H226778   5.997   3.742   0.139 -2.0706 -0.3830  1.5703
 1763TIP3   OH226779   0.828   6.338   1.650  0.2141 -0.0993 -0.4244
 1763TIP3    H126780   0.898   6.368   1.591 -0.2209 -0.5513 -1.1917
 1763TIP3    H226781   0.752   6.392   1.625  0.2845  0.4126  0.4253
 1764TIP3   OH226782   1.186   1.161  12.351  0.1704 -0.1912  0.3816
 1764TIP3    H126783   1.158   1.116  12.431 -1.9962 -0.3373 -0.3917
 1764TIP3    H226784   1.205   1.250  12.380  1.9037 -0.8720  1.4699
 1765TIP3   OH226785   1.703   5.321   1.476  0.0718 -0.2619  0.5161
 1765TIP3    H126786   1.782   5.343   1.527 -0.9209  1.0576  1.5629
 1765TIP3    H226787   1.736   5.269   1.403  2.2940  2.4737 -0.6103
 1766TIP3   OH226788   0.923   5.397   1.018 -0.1819 -0.2946 -0.0655
 1766TIP3    H126789   0.958   5.444   0.943 -0.4578 -2.4372 -1.6220
 1766TIP3    H226790   0.973   5.316   1.022 -1.2956 -0.9755  1.0363
 1767TIP3   OH226791   0.571   0.887   0.622  0.3328 -0.2760  0.0815
 1767TIP3    H126792   0.585   0.978   0.597  2.3074 -0.5745 -0.0575
 1767TIP3    H226793   0.608   0.836   0.549 -2.3603 -1.2617 -0.7323
 1768TIP3   OH226794   2.861   2.228   3.638 -0.1156  0.7543  0.0945
 1768TIP3    H126795   2.928   2.161   3.627  0.8791  1.8769 -0.8856
 1768TIP3    H226796   2.810   2.198   3.713  0.0244 -1.3148 -0.5512
 1769TIP3   OH226797   6.181   0.827  11.792 -0.5017 -0.6548  0.5456
 1769TIP3    H126798   6.244   0.891  11.826 -1.9363  0.9113  0.3764
 1769TIP3    H226799   6.129   0.802  11.868 -2.3869  1.2975 -0.0268
 1770TIP3   OH226800   2.231   2.829  11.603 -0.9560  0.4930  0.3680
 1770TIP3    H126801   2.158   2.766  11.606 -0.8018  0.3192  0.4780
 1770TIP3    H226802   2.308   2.777  11.627 -0.8033  0.6879  0.2944
 1771TIP3   OH226803   5.860   5.374  15.339 -0.0318  0.3958  0.5730
 1771TIP3    H126804   5.780   5.405  15.298 -0.1529  0.9740  1.2168
 1771TIP3    H226805   5.884   5.295  15.291 -0.5138  0.7009 -0.1728
 1772TIP3   OH226806   1.712   1.593   1.741  0.0938 -0.0744 -0.6392
 1772TIP3    H126807   1.731   1.661   1.806  1.3931  0.3183 -1.3860
 1772TIP3    H226808   1.646   1.631   1.684 -1.1168 -0.4495  0.4627
 1773TIP3   OH226809   6.783   3.812   4.960 -0.2803 -0.2242  0.1382
 1773TIP3    H126810   6.865   3.790   4.915 -0.9902  0.9256 -1.8571
 1773TIP3    H226811   6.718   3.755   4.920 -0.4352 -1.4754  2.0554
 1774TIP3   OH226812   1.085   1.504  13.341  0.1442  0.5395  0.0355
 1774TIP3    H126813   1.164   1.482  13.291  0.9079 -0.5615  1.6309
 1774TIP3    H226814   1.102   1.592  13.374  1.0111  0.0741  0.8829
 1775TIP3   OH226815   3.293   1.071   5.726  0.1588 -0.9464  0.2735
 1775TIP3    H126816   3.328   0.982   5.726  1.8970 -0.3759  2.9100
 1775TIP3    H226817   3.201   1.060   5.701  0.4403 -3.4048  0.0283
 1776TIP3   OH226818   0.617   5.255   2.471 -0.3269 -0.4221  0.3530
 1776TIP3    H126819   0.621   5.254   2.375 -0.9920  0.8619  0.2980
 1776TIP3    H226820   0.593   5.165   2.494 -1.0446 -0.5276 -0.7387
 1777TIP3   OH226821   6.026   2.066  12.244  0.0556 -0.8434 -0.0667
 1777TIP3    H126822   5.956   2.127  12.222  0.2623 -0.4198  0.4402
 1777TIP3    H226823   5.988   2.008  12.310 -0.2056 -1.3978 -0.6970
 1778TIP3   OH226824   3.246   5.723   6.321 -0.8202  0.0481 -0.0434
 1778TIP3    H126825   3.194   5.779   6.263 -1.1197 -0.7573 -0.5691
 1778TIP3    H226826   3.228   5.634   6.291  0.8266 -0.2578 -0.1915
 1779TIP3   OH226827   1.271   3.008   0.064 -0.0555  0.0478 -0.1249
 1779TIP3    H126828   1.339   2.999   0.131  0.4755  0.0717 -0.6503
 1779TIP3    H226829   1.318   3.042  -0.013 -0.8495  1.0991 -0.1718
 1780TIP3   OH226830   1.014   1.218  11.532  0.0370 -0.4025 -0.8053
 1780TIP3    H126831   0.950   1.190  11.597 -0.0993  1.5770  0.0007
 1780TIP3    H226832   1.092   1.239  11.583 -0.0306  1.0538 -1.2295
 1781TIP3   OH226833   0.310   5.577  16.247 -0.0955 -0.0033  0.5713
 1781TIP3    H126834   0.403   5.598  16.246  0.0703 -0.7293  0.4074
 1781TIP3    H226835   0.271   5.639  16.185  0.4844 -0.5868 -0.4019
 1782TIP3   OH226836   2.913   2.292   4.133 -0.6296  0.0899 -0.1484
 1782TIP3    H126837   2.878   2.380   4.124  1.2441  1.1053  1.7351
 1782TIP3    H226838   2.969   2.295   4.210  2.0388 -1.8753 -1.7972
 1783TIP3   OH226839   6.073   2.110  13.224 -0.0101  0.3581 -0.2005
 1783TIP3    H126840   6.168   2.111  13.214  0.0800  1.4023  0.5378
 1783TIP3    H226841   6.057   2.048  13.294 -0.0107 -0.9404 -1.3121
 1784TIP3   OH226842   6.550   6.053   4.494  0.5115  0.5334 -0.3553
 1784TIP3    H126843   6.464   6.049   4.536  0.1576  0.9984 -1.0230
 1784TIP3    H226844   6.574   6.146   4.497  0.1391  0.6996 -1.8437
 1785TIP3   OH226845   4.725   2.018  16.628 -0.7234 -0.0036  0.0227
 1785TIP3    H126846   4.660   2.072  16.584 -2.4450 -0.9702  1.2708
 1785TIP3    H226847   4.674   1.955  16.679  1.1976 -1.3437  0.4087
 1786TIP3   OH226848   1.878   6.013  10.978 -0.1394  0.2870  0.3637
 1786TIP3    H126849   1.911   6.100  11.002 -0.9909  1.1216 -1.2752
 1786TIP3    H226850   1.948   5.953  11.002  0.2892  1.3602  1.9663
 1787TIP3   OH226851   1.419   3.800  12.852  0.6722  0.3808  0.5516
 1787TIP3    H126852   1.401   3.893  12.867 -0.2388  0.4371 -0.7178
 1787TIP3    H226853   1.344   3.769  12.801  2.6697 -0.1465 -2.3120
 1788TIP3   OH226854   4.062   0.364  15.686  0.1164  0.0369  0.3122
 1788TIP3    H126855   4.056   0.308  15.609 -0.7796  1.8929 -1.0267
 1788TIP3    H226856   3.980   0.413  15.688 -0.0674 -0.2076  2.6984
 1789TIP3   OH226857   5.680   5.918   0.805 -0.1694  0.5700 -0.6226
 1789TIP3    H126858   5.745   5.945   0.740  0.0966  0.7426 -0.2930
 1789TIP3    H226859   5.646   5.835   0.773  0.7247  0.1203 -0.4476
 1790TIP3   OH226860   1.431   2.070   1.566  0.8794  0.4955  0.5540
 1790TIP3    H126861   1.398   2.156   1.543  0.5822  0.0175 -0.9155
 1790TIP3    H226862   1.468   2.035   1.485 -0.8397 -1.5596  0.5664
 1791TIP3   OH226863   0.578   3.613  13.499  0.2538  0.4095 -0.0355
 1791TIP3    H126864   0.579   3.555  13.575  0.7063  1.5458  0.8602
 1791TIP3    H226865   0.647   3.677  13.517 -1.2860  2.2120 -0.1726
 1792TIP3   OH226866   6.247   4.325  16.316  0.1262 -0.4508 -0.3210
 1792TIP3    H126867   6.166   4.283  16.288  0.0542  0.1494 -1.0765
 1792TIP3    H226868   6.219   4.409  16.353  0.4549  0.3957 -1.8682
 1793TIP3   OH226869   5.519   2.441   4.885  0.0207 -0.1078 -1.0125
 1793TIP3    H126870   5.476   2.450   4.970 -1.0466  0.4890 -1.5972
 1793TIP3    H226871   5.596   2.498   4.892  0.0490 -0.2111 -0.3892
 1794TIP3   OH226872   5.468   6.130  11.219 -0.2809  0.4037  0.3246
 1794TIP3    H126873   5.429   6.152  11.134  0.2851  0.3952  0.0568
 1794TIP3    H226874   5.540   6.070  11.198  1.1503  1.9264  0.5845
 1795TIP3   OH226875   3.988   6.421  13.987  0.4346 -0.1805 -0.4826
 1795TIP3    H126876   3.974   6.403  13.894  0.2830 -1.3820 -0.2427
 1795TIP3    H226877   3.967   6.339  14.031 -1.6724  0.9861  0.8356
 1796TIP3   OH226878   6.572   3.478   3.607 -0.6014 -0.3055  0.8956
 1796TIP3    H126879   6.560   3.385   3.588  3.0465 -0.8208  0.3996
 1796TIP3    H226880   6.571   3.521   3.521  0.5764 -0.3725  0.8258
 1797TIP3   OH226881   1.306   0.901   0.431  0.0055 -0.2637  0.1237
 1797TIP3    H126882   1.223   0.860   0.407  0.4425 -0.6970 -0.6928
 1797TIP3    H226883   1.371   0.831   0.425  0.2926 -0.1705  1.7183
 1798TIP3   OH226884   1.228   0.179  14.973 -0.2853 -0.2936 -0.7023
 1798TIP3    H126885   1.145   0.217  14.943  0.3820  0.1291 -2.1160
 1798TIP3    H226886   1.292   0.249  14.958  0.8295 -1.6295 -2.5519
 1799TIP3   OH226887   3.503   4.088   1.945  0.6766 -0.1901  0.6316
 1799TIP3    H126888   3.474   4.107   2.034 -0.8051  0.2525  0.0873
 1799TIP3    H226889   3.586   4.134   1.936 -0.5055  2.1036  0.8959
 1800TIP3   OH226890   3.284   3.534   5.533  0.4246  0.1931  0.3196
 1800TIP3    H126891   3.304   3.519   5.625 -1.1693 -1.1015  0.4940
 1800TIP3    H226892   3.357   3.587   5.501  1.6901 -0.4664  1.9827
 1801TIP3   OH226893   4.917   4.839   5.775  0.4886 -0.1127  0.2013
 1801TIP3    H126894   4.971   4.918   5.769 -1.8579  1.5554 -0.6323
 1801TIP3    H226895   4.928   4.795   5.691  1.3670 -0.3790  0.4492
 1802TIP3   OH226896   2.330   3.268   2.565  0.0980  0.7274 -0.4295
 1802TIP3    H126897   2.387   3.289   2.491  1.1072 -0.9519 -0.1856
 1802TIP3    H226898   2.376   3.199   2.612 -2.4726 -1.2604 -0.6210
 1803TIP3   OH226899   5.508   4.696  16.359  0.1858  0.0466  0.2086
 1803TIP3    H126900   5.550   4.761  16.416 -1.0198  0.5920  0.4997
 1803TIP3    H226901   5.455   4.643  16.419  0.9455 -1.0658 -0.0632
 1804TIP3   OH226902   2.976   3.700  16.012  0.1508 -0.3774  0.5309
 1804TIP3    H126903   2.999   3.690  16.105 -0.7534 -0.0845  0.8003
 1804TIP3    H226904   2.921   3.624  15.992  0.8983 -0.8017  0.0383
 1805TIP3   OH226905   0.515   6.254   0.785  0.0615  0.3118  0.3738
 1805TIP3    H126906   0.428   6.288   0.803  0.2219  0.9234  0.0162
 1805TIP3    H226907   0.527   6.266   0.690  0.9279  1.1937  0.5759
 1806TIP3   OH226908   4.838   3.748   2.705  0.5119  0.1340  0.3093
 1806TIP3    H126909   4.817   3.733   2.797  0.1956 -0.6037  0.1259
 1806TIP3    H226910   4.815   3.666   2.662  0.1076  0.6704 -0.5175
 1807TIP3   OH226911   2.374   1.683   3.097  0.2764  0.3203  0.3363
 1807TIP3    H126912   2.343   1.696   3.187  0.0724 -1.2120  0.5191
 1807TIP3    H226913   2.362   1.589   3.081  0.8554  0.4650 -1.0925
 1808TIP3   OH226914   6.581   1.974   2.944  0.4744 -0.3070  0.1082
 1808TIP3    H126915   6.611   1.960   3.034 -1.4946  0.1459  0.8873
 1808TIP3    H226916   6.662   1.982   2.893  1.6458 -0.2292  1.8783
 1809TIP3   OH226917   3.473   4.544  16.081  0.6654 -0.0834  0.4141
 1809TIP3    H126918   3.470   4.619  16.023 -1.8462 -0.4813 -0.1098
 1809TIP3    H226919   3.439   4.472  16.029 -0.8152 -0.6539  2.0636
 1810TIP3   OH226920   6.245   5.443  17.238 -0.1716  0.7572 -0.0701
 1810TIP3    H126921   6.246   5.500  17.162  0.1882  0.5420 -0.2303
 1810TIP3    H226922   6.332   5.405  17.241  0.0942  1.4066  0.9472
 1811TIP3   OH226923   6.361   3.942  10.570  0.0650  0.1688  0.2715
 1811TIP3    H126924   6.451   3.945  10.539 -0.0433 -1.8246 -0.4034
 1811TIP3    H226925   6.368   3.927  10.664  0.4971 -1.2503  0.0426
 1812TIP3   OH226926   6.378   1.441   0.021 -0.2918 -0.1726  0.0257
 1812TIP3    H126927   6.382   1.534  -0.001 -0.5559  0.1678  1.3384
 1812TIP3    H226928   6.351   1.439   0.113 -1.4103 -1.5824 -0.2948
 1813TIP3   OH226929   0.743   5.959  15.095  0.0646 -0.3254  0.7043
 1813TIP3    H126930   0.670   6.007  15.055  0.5168 -0.8478 -0.8441
 1813TIP3    H226931   0.809   5.955  15.025  0.6635 -1.8136  1.3304
 1814TIP3   OH226932   4.913   1.178   6.469 -0.1057 -0.0980  0.2243
 1814TIP3    H126933   4.819   1.175   6.488 -0.0975 -0.9395  0.1520
 1814TIP3    H226934   4.950   1.233   6.539 -0.7314  0.7843 -0.1216
 1815TIP3   OH226935   1.328   0.647  12.584 -0.0210 -0.9441  0.1927
 1815TIP3    H126936   1.417   0.612  12.580  0.2812 -0.1008 -0.8110
 1815TIP3    H226937   1.273   0.575  12.552  0.3713 -1.2209  0.1334
 1816TIP3   OH226938   6.232   4.434   3.223  0.3111 -0.5456 -0.0414
 1816TIP3    H126939   6.258   4.526   3.211  0.6716 -0.6536 -0.0859
 1816TIP3    H226940   6.215   4.402   3.135  1.3768 -0.8713 -0.1323
 1817TIP3   OH226941   6.654   1.965  14.754 -0.2700  0.0299  0.0461
 1817TIP3    H126942   6.695   1.880  14.771  2.6524  1.3287 -0.0490
 1817TIP3    H226943   6.642   1.966  14.659 -1.0157 -0.5182  0.1176
 1818TIP3   OH226944   3.909   5.251  11.473 -0.0566 -0.5067 -0.1548
 1818TIP3    H126945   3.874   5.163  11.490 -0.9948  0.0062  0.6523
 1818TIP3    H226946   3.910   5.293  11.559  0.7861  0.1367 -0.4706
 1819TIP3   OH226947   3.068   4.659   4.765  0.2825  0.1516 -0.5670
 1819TIP3    H126948   3.042   4.655   4.857 -0.4818 -1.0739 -0.8098
 1819TIP3    H226949   3.158   4.625   4.764  0.3707  0.3785 -0.2411
 1820TIP3   OH226950   6.145   5.781   2.633 -0.2628 -0.1224  1.1840
 1820TIP3    H126951   6.210   5.790   2.563 -0.4331  1.0436  1.1725
 1820TIP3    H226952   6.062   5.802   2.592 -0.3362  0.7921  1.7749
 1821TIP3   OH226953   5.031   1.243  11.702  0.0387 -0.4381  0.1591
 1821TIP3    H126954   5.062   1.218  11.789 -0.4687 -0.7262  0.2596
 1821TIP3    H226955   5.111   1.253  11.650  0.3286 -0.5651  0.5767
 1822TIP3   OH226956   2.761   3.816   4.443 -0.1733 -0.1782  0.1077
 1822TIP3    H126957   2.853   3.806   4.418  0.3330  1.6637  1.0558
 1822TIP3    H226958   2.760   3.795   4.536 -1.2651 -2.8667 -0.4367
 1823TIP3   OH226959   0.350   3.189  14.188 -0.5105 -0.1684 -0.5740
 1823TIP3    H126960   0.329   3.258  14.125 -1.2359 -0.2162 -0.3883
 1823TIP3    H226961   0.433   3.217  14.227  0.6918 -0.8060 -2.5018
 1824TIP3   OH226962   2.448   1.234  15.694  0.1148 -0.2419  0.0809
 1824TIP3    H126963   2.363   1.257  15.732  0.3741  1.1463 -0.1122
 1824TIP3    H226964   2.444   1.266  15.604  1.5615  1.8366  0.6744
 1825TIP3   OH226965   2.242   2.210  13.615 -0.5727 -0.3714 -0.9163
 1825TIP3    H126966   2.239   2.120  13.648  0.3498 -0.4882 -1.1014
 1825TIP3    H226967   2.163   2.219  13.562 -1.6889 -0.4356  0.6627
 1826TIP3   OH226968   0.734   0.423  10.841  0.4976 -0.0422 -0.3093
 1826TIP3    H126969   0.806   0.406  10.781 -0.0651 -1.7897 -0.5319
 1826TIP3    H226970   0.767   0.396  10.927  0.2047 -0.6382 -0.3767
 1827TIP3   OH226971   1.948   6.537   5.207 -0.3430 -1.0459  0.2265
 1827TIP3    H126972   1.891   6.529   5.130  1.3253  0.7536 -1.3292
 1827TIP3    H226973   1.982   6.448   5.221 -1.6666 -1.6576 -0.2839
 1828TIP3   OH226974   2.210   6.488  11.711 -0.4023  0.2817 -0.0938
 1828TIP3    H126975   2.197   6.517  11.621  2.0761  0.2886 -0.5299
 1828TIP3    H226976   2.264   6.410  11.704 -1.4766 -0.6437  1.3599
 1829TIP3   OH226977   1.251   1.942   6.604 -0.1459  0.0845  0.1469
 1829TIP3    H126978   1.209   1.860   6.576 -0.8082  0.8997 -1.3295
 1829TIP3    H226979   1.236   2.003   6.532  2.1839  0.9070  0.2838
 1830TIP3   OH226980   3.105   5.557  11.494 -0.2304  0.2158 -0.0037
 1830TIP3    H126981   3.125   5.480  11.441 -0.5015  0.2020 -0.0857
 1830TIP3    H226982   3.187   5.575  11.542 -0.5377 -0.9008  0.9981
 1831TIP3   OH226983   2.289   6.632  15.822  0.1152 -0.0523  0.3950
 1831TIP3    H126984   2.382   6.647  15.835  0.1696 -0.0178 -0.0018
 1831TIP3    H226985   2.257   6.597  15.905  0.3774  0.4355  0.7012
 1832TIP3   OH226986   2.824   4.423   3.433 -0.0293 -0.3780  0.2048
 1832TIP3    H126987   2.915   4.448   3.450  0.3931 -2.4558  1.2291
 1832TIP3    H226988   2.825   4.389   3.343  0.5447 -1.7849  0.7274
 1833TIP3   OH226989   1.533   3.328  13.178  0.6812 -0.0445  0.3473
 1833TIP3    H126990   1.508   3.405  13.127  2.0824  0.6230  0.6225
 1833TIP3    H226991   1.629   3.334  13.185  0.7888 -1.6802  0.5853
 1834TIP3   OH226992   4.778   3.011  16.146  0.2226  0.3628 -0.1515
 1834TIP3    H126993   4.839   3.084  16.143  0.4467  0.2784  1.5278
 1834TIP3    H226994   4.770   2.989  16.239 -0.3404 -1.3231 -0.5464
 1835TIP3   OH226995   6.803   3.758  16.238  0.0828  0.4313  0.1680
 1835TIP3    H126996   6.805   3.670  16.277  0.3763  1.1572  1.8756
 1835TIP3    H226997   6.717   3.764  16.196  0.0715 -0.6697 -0.0022
 1836TIP3   OH226998   2.971   4.083   4.206 -0.2727  0.1987  0.5474
 1836TIP3    H126999   2.973   4.173   4.172 -0.1558  1.1753  2.9203
 1836TIP3    H227000   3.061   4.053   4.198 -0.4139  0.0775 -0.7420
 1837TIP3   OH227001   2.846   6.024  11.783  0.4437 -0.2097 -0.1526
 1837TIP3    H127002   2.921   5.987  11.736  0.2532  0.5176 -1.0614
 1837TIP3    H227003   2.773   6.015  11.722  0.3292  1.3609 -0.2776
 1838TIP3   OH227004   5.641   3.976   2.378  0.1093 -0.2652 -0.1553
 1838TIP3    H127005   5.641   4.064   2.340 -2.9513  0.9627  2.2671
 1838TIP3    H227006   5.568   3.932   2.334  0.0911 -0.7536  0.3613
 1839TIP3   OH227007   1.686   3.619  15.603 -0.1714  0.2833  0.0429
 1839TIP3    H127008   1.690   3.588  15.694  1.8857  2.4679  0.8183
 1839TIP3    H227009   1.778   3.629  15.578 -0.6957  2.3010 -1.2856
 1840TIP3   OH227010   5.902   2.605   5.354  0.1080  0.3234  0.4277
 1840TIP3    H127011   5.888   2.523   5.306  0.8660  0.2306  0.3438
 1840TIP3    H227012   5.985   2.638   5.321 -0.7299  1.7231 -0.3608
 1841TIP3   OH227013   0.743   0.420   4.001 -0.1967  0.1012  0.2012
 1841TIP3    H127014   0.667   0.456   4.047  0.1159  0.3213  0.5529
 1841TIP3    H227015   0.744   0.327   4.025 -1.2259 -0.2514 -1.0075
 1842TIP3   OH227016   2.242   0.440  10.721  0.2603  0.1370 -0.1241
 1842TIP3    H127017   2.296   0.377  10.672  0.0684 -0.7653  0.7889
 1842TIP3    H227018   2.305   0.496  10.765  0.4812 -0.6881  0.6494
 1843TIP3   OH227019   3.143   3.592  11.523  0.3421 -0.5084 -0.2565
 1843TIP3    H127020   3.161   3.668  11.467  2.6729 -1.2247 -0.5908
 1843TIP3    H227021   3.100   3.529  11.465 -0.1200 -0.0778 -0.3933
 1844TIP3   OH227022   3.106   5.668  11.851  0.3512 -0.0792 -0.2752
 1844TIP3    H127023   3.106   5.761  11.831  0.2937  0.6075  2.4320
 1844TIP3    H227024   3.014   5.642  11.850  0.2342  0.2811  0.3500
 1845TIP3   OH227025   5.709   0.227   3.226  0.2725  0.1344 -0.1718
 1845TIP3    H127026   5.710   0.317   3.259 -1.2561  0.2274 -0.2729
 1845TIP3    H227027   5.655   0.179   3.288 -1.3224 -0.0422 -1.6030
 1846TIP3   OH227028   4.465   4.243   0.951 -0.2034 -0.0002  0.0855
 1846TIP3    H127029   4.547   4.289   0.933  0.5039 -1.1999  0.1183
 1846TIP3    H227030   4.465   4.228   1.046 -0.3708 -0.1580  0.0629
 1847TIP3   OH227031   4.098   1.527  11.813  0.9272 -0.4668 -0.6437
 1847TIP3    H127032   4.046   1.590  11.864 -0.8244 -2.9431  0.8153
 1847TIP3    H227033   4.038   1.491  11.749  1.6483 -1.2631 -0.8925
 1848TIP3   OH227034   4.679   1.558  11.894 -0.3048  0.3130 -0.4759
 1848TIP3    H127035   4.614   1.534  11.828 -1.1810  1.6300 -0.1248
 1848TIP3    H227036   4.741   1.615  11.848 -0.2668  0.3061 -0.4340
 1849TIP3   OH227037   6.040   3.026   3.446 -0.2594 -0.0144 -0.0306
 1849TIP3    H127038   6.067   2.978   3.525  0.9407  0.3827 -0.1738
 1849TIP3    H227039   6.098   2.993   3.378 -0.4937  0.4995 -0.4815
 1850TIP3   OH227040   3.960   3.361  12.732 -0.1817  0.4935  0.9619
 1850TIP3    H127041   3.930   3.270  12.738  2.6238 -0.6915 -0.7365
 1850TIP3    H227042   4.001   3.378  12.817 -0.0740 -0.1072  1.0363
 1851TIP3   OH227043   6.050   3.519   5.750  0.5780 -0.0973 -0.7163
 1851TIP3    H127044   6.030   3.492   5.660  0.7140  3.1551 -1.8818
 1851TIP3    H227045   5.982   3.583   5.770  3.2470  2.9330 -0.5087
 1852TIP3   OH227046   2.925   5.513  15.659 -0.1300  0.3222 -0.0754
 1852TIP3    H127047   2.929   5.553  15.572  1.4053  0.4865  0.0538
 1852TIP3    H227048   2.950   5.583  15.719  0.9903 -0.3778  0.2918
 1853TIP3   OH227049   1.182   1.151  15.383  0.5310 -0.0995  0.3249
 1853TIP3    H127050   1.090   1.170  15.401  0.6999 -0.7126  2.0712
 1853TIP3    H227051   1.230   1.189  15.457  1.7296  0.4422 -0.6859
 1854TIP3   OH227052   3.947   0.595  12.833 -0.3063  0.8562 -0.0083
 1854TIP3    H127053   3.925   0.676  12.879  1.3145  1.4129 -0.1316
 1854TIP3    H227054   3.901   0.602  12.750 -0.5498  1.4443  0.1677
 1855TIP3   OH227055   0.103   5.952  12.801  0.1953 -0.8729  0.1978
 1855TIP3    H127056   0.068   5.868  12.830  0.9234 -1.2870 -0.0802
 1855TIP3    H227057   0.126   5.938  12.710  2.4709 -1.1263  0.7465
 1856TIP3   OH227058   1.259   6.766  13.607  0.2485  0.5068 -0.4222
 1856TIP3    H127059   1.294   6.685  13.645 -1.4092 -0.2287 -0.3510
 1856TIP3    H227060   1.297   6.836  13.660 -0.8750 -0.4237  1.7504
 1857TIP3   OH227061   5.649   3.484  11.669 -0.5186 -0.6011  0.1724
 1857TIP3    H127062   5.677   3.399  11.701  1.3640  0.0528  0.3786
 1857TIP3    H227063   5.677   3.546  11.736  1.5493  0.5506 -1.6131
 1858TIP3   OH227064   1.710   3.136  12.850  0.0390 -0.4012  0.3271
 1858TIP3    H127065   1.755   3.220  12.841  0.2444 -0.1617  2.9263
 1858TIP3    H227066   1.629   3.147  12.799  0.5706  0.9715 -0.2686
 1859TIP3   OH227067   2.032   6.461  12.125  0.3478  0.1193  0.0041
 1859TIP3    H127068   2.058   6.369  12.125 -1.7195 -0.5272 -0.3228
 1859TIP3    H227069   2.063   6.495  12.209  1.9130 -0.6119 -0.2507
 1860TIP3   OH227070   6.499   1.961  12.229 -0.8260  0.0954  0.3717
 1860TIP3    H127071   6.534   1.988  12.314  0.4374 -0.9025  0.2018
 1860TIP3    H227072   6.410   1.994  12.228 -0.0357  2.4398  0.9844
 1861TIP3   OH227073   6.480   6.690   5.396 -0.1968  0.0402  0.4588
 1861TIP3    H127074   6.502   6.603   5.361 -0.7728 -0.1045  0.4462
 1861TIP3    H227075   6.398   6.713   5.353 -0.3308  0.3510  0.8757
 1862TIP3   OH227076   1.380   2.974  13.595  0.8860 -0.0423 -0.0056
 1862TIP3    H127077   1.301   2.995  13.546  0.4178 -0.3720  0.6022
 1862TIP3    H227078   1.451   2.982  13.531  0.5816  1.9395 -0.1727
 1863TIP3   OH227079   4.585   2.324  11.873  0.2027 -0.6299 -0.2451
 1863TIP3    H127080   4.676   2.325  11.842 -0.2171  0.3195 -1.5412
 1863TIP3    H227081   4.533   2.326  11.793 -0.9633  0.0678  0.5037
 1864TIP3   OH227082   2.578   5.063  11.631  0.1566  0.1247 -0.7409
 1864TIP3    H127083   2.513   5.119  11.590 -0.4703 -1.1106 -1.4769
 1864TIP3    H227084   2.556   4.974  11.601 -0.3463 -0.8675  2.2069
 1865TIP3   OH227085   1.496   3.655  14.506  0.0292 -0.4842  0.6430
 1865TIP3    H127086   1.457   3.725  14.454  4.3464  1.1660 -0.8597
 1865TIP3    H227087   1.498   3.580  14.446  2.0084  0.4423 -0.5634
 1866TIP3   OH227088   3.936   5.821   2.904 -0.0622 -0.4691  0.6533
 1866TIP3    H127089   3.872   5.752   2.886  0.3359 -0.9043  0.8615
 1866TIP3    H227090   3.921   5.887   2.837 -0.5597 -0.6840  0.5492
 1867TIP3   OH227091   1.420   6.387   3.066  0.1487  0.4667  0.0125
 1867TIP3    H127092   1.505   6.389   3.111  0.9791  1.0854 -1.4955
 1867TIP3    H227093   1.391   6.478   3.066  0.3641  0.5507 -1.0274
 1868TIP3   OH227094   5.151   1.161  15.878 -0.4096 -0.6740 -0.3144
 1868TIP3    H127095   5.106   1.089  15.922  0.2594 -0.9329 -0.0440
 1868TIP3    H227096   5.086   1.231  15.874 -1.8549 -1.9850 -2.5211
 1869TIP3   OH227097   6.764   4.148   0.725  0.8276 -0.2873 -0.6000
 1869TIP3    H127098   6.767   4.242   0.713 -1.3113  0.0381  0.7283
 1869TIP3    H227099   6.686   4.120   0.677 -0.8003 -0.7079  2.0405
 1870TIP3   OH227100   1.086   6.153   5.906 -0.3840  0.3960 -0.5790
 1870TIP3    H127101   1.170   6.125   5.942 -0.6121 -1.6772 -1.5604
 1870TIP3    H227102   1.103   6.241   5.873  1.2205  0.2720 -0.1930
 1871TIP3   OH227103   6.490   0.462  12.824  0.1746  0.6255 -0.0773
 1871TIP3    H127104   6.481   0.367  12.827  1.5158  0.4897  0.1312
 1871TIP3    H227105   6.447   0.493  12.903 -1.3868  0.3189 -0.7563
 1872TIP3   OH227106   0.280   4.191   0.450 -0.3211  0.5223 -0.1276
 1872TIP3    H127107   0.295   4.156   0.362 -1.4447 -0.1494 -0.0712
 1872TIP3    H227108   0.185   4.200   0.457 -0.3705 -0.6454  1.4355
 1873TIP3   OH227109   1.886   6.600  12.525  0.4153 -0.3251  0.3730
 1873TIP3    H127110   1.926   6.684  12.502  0.2541 -0.4016 -0.1877
 1873TIP3    H227111   1.796   6.623  12.548  0.7936 -0.1356  1.7541
 1874TIP3   OH227112   0.842   2.592   2.695  0.2471  0.8394 -0.4428
 1874TIP3    H127113   0.857   2.685   2.679  0.4204  0.7107 -1.0783
 1874TIP3    H227114   0.809   2.587   2.784  0.8105  1.4538 -0.1949
 1875TIP3   OH227115   2.830   1.960  15.519  0.1869 -0.0927 -0.2281
 1875TIP3    H127116   2.913   1.947  15.474  1.0309 -0.0554  1.2544
 1875TIP3    H227117   2.764   1.962  15.449  1.7441  3.3848 -1.7870
 1876TIP3   OH227118   2.870   3.986  11.313  0.1211 -0.1448 -0.4814
 1876TIP3    H127119   2.959   4.007  11.284  0.2316  0.5243  0.2976
 1876TIP3    H227120   2.883   3.933  11.392 -0.1123  2.3113  1.3147
 1877TIP3   OH227121   2.632   0.061  14.143 -0.6804  0.6855  0.0429
 1877TIP3    H127122   2.709   0.097  14.100 -0.5563 -0.0968 -0.4267
 1877TIP3    H227123   2.615   0.119  14.217 -0.5810  1.7665 -0.7586
 1878TIP3   OH227124   4.230   1.384   2.259  0.4966 -0.5224 -0.5237
 1878TIP3    H127125   4.176   1.414   2.332  0.6942 -0.8713 -0.2280
 1878TIP3    H227126   4.244   1.462   2.206 -0.1847 -0.4031 -0.5329
 1879TIP3   OH227127   1.922   5.021   0.022 -0.3655  0.5200  0.1082
 1879TIP3    H127128   1.951   5.088  -0.040 -0.9309  0.9547  0.3012
 1879TIP3    H227129   1.998   4.964   0.034 -0.5367 -0.2144 -1.8173
 1880TIP3   OH227130   5.596   0.907   2.185  0.5048 -0.3327  0.6401
 1880TIP3    H127131   5.546   0.836   2.226 -0.1617 -0.7378 -0.7827
 1880TIP3    H227132   5.552   0.987   2.214  0.2208 -0.5913  0.9324
 1881TIP3   OH227133   6.701   6.777   6.296 -0.1709 -0.2621 -0.1647
 1881TIP3    H127134   6.687   6.749   6.386 -0.0826 -0.3218 -0.1697
 1881TIP3    H227135   6.725   6.696   6.249 -0.9349 -0.3713 -0.3902
 1882TIP3   OH227136   0.939   3.078  10.998 -0.1324 -0.5488 -0.2558
 1882TIP3    H127137   0.872   3.075  10.930 -0.2608 -1.0093 -0.1106
 1882TIP3    H227138   1.020   3.095  10.951 -0.1888 -1.0623 -0.5515
 1883TIP3   OH227139   0.914   1.667   3.947  0.4287  0.5286  0.3244
 1883TIP3    H127140   0.994   1.717   3.935  1.2210 -0.8098 -0.1720
 1883TIP3    H227141   0.944   1.579   3.973 -0.8686  0.0210  0.2047
 1884TIP3   OH227142   6.053   1.701   4.190 -0.3409 -0.1509  0.0118
 1884TIP3    H127143   6.063   1.791   4.160  0.1042  0.1741  1.0691
 1884TIP3    H227144   5.966   1.675   4.161 -0.3223  0.4906 -0.6295
 1885TIP3   OH227145   5.792   5.400   3.046 -0.1481  0.1039  0.4879
 1885TIP3    H127146   5.872   5.448   3.030  0.5421 -0.9708  0.5945
 1885TIP3    H227147   5.747   5.450   3.114  0.6519  0.4712  0.7578
 1886TIP3   OH227148   1.680   4.334  17.174  0.7934  0.5400 -0.1874
 1886TIP3    H127149   1.718   4.358  17.259  0.1933 -0.2312  0.3159
 1886TIP3    H227150   1.607   4.396  17.162  0.7149  0.4834 -0.0100
 1887TIP3   OH227151   5.004   0.416   4.759 -0.6225 -0.2451 -0.7844
 1887TIP3    H127152   5.067   0.354   4.721 -0.3767 -1.6538  1.7132
 1887TIP3    H227153   5.058   0.487   4.794 -0.5213 -0.7067  0.0194
 1888TIP3   OH227154   3.687   1.095   3.457  0.6137 -0.2917 -0.0940
 1888TIP3    H127155   3.625   1.024   3.440  1.5890 -2.1408  3.1700
 1888TIP3    H227156   3.678   1.113   3.551  3.3445  1.0011  0.0245
 1889TIP3   OH227157   1.714   5.516   5.697 -0.2828 -0.3745  0.5261
 1889TIP3    H127158   1.807   5.536   5.685 -0.2738 -1.4714 -1.8278
 1889TIP3    H227159   1.669   5.580   5.643 -0.8131 -0.5494  0.7588
 1890TIP3   OH227160   2.942   4.465  15.886  0.5599 -0.0067 -0.3227
 1890TIP3    H127161   2.920   4.415  15.964  1.3904  0.0424 -0.0510
 1890TIP3    H227162   2.933   4.557  15.912  1.6673  0.0259 -0.0260
 1891TIP3   OH227163   5.567   2.519  12.523 -0.0751  0.0714 -0.0282
 1891TIP3    H127164   5.638   2.501  12.584 -0.4537 -0.1978  0.3386
 1891TIP3    H227165   5.535   2.605  12.549 -0.1408  0.0206  0.0599
 1892TIP3   OH227166   4.210   3.432  11.920 -0.1558 -0.3046 -0.2067
 1892TIP3    H127167   4.135   3.483  11.888 -0.1400  0.0752  0.3454
 1892TIP3    H227168   4.274   3.437  11.850 -0.5016 -0.3074 -0.5255
 1893TIP3   OH227169   2.152   2.605  12.154  0.6019 -0.2491 -0.0867
 1893TIP3    H127170   2.189   2.580  12.069  0.9999 -0.9053  0.2735
 1893TIP3    H227171   2.218   2.663  12.192  0.4775 -0.0503 -0.1732
 1894TIP3   OH227172   4.902   4.929  16.614 -0.0326 -0.2178  0.0832
 1894TIP3    H127173   4.905   4.997  16.681 -0.1552 -0.8362  0.7271
 1894TIP3    H227174   4.971   4.952  16.552  0.1181  0.3231  0.4538
 1895TIP3   OH227175   0.265   1.605  11.443  0.8860  0.5672  0.7740
 1895TIP3    H127176   0.308   1.690  11.450  2.5606  0.0143 -1.5341
 1895TIP3    H227177   0.206   1.613  11.367  0.6055 -0.1549  0.8991
 1896TIP3   OH227178   3.859   4.225  16.334  0.3935  0.4758 -0.4428
 1896TIP3    H127179   3.791   4.229  16.267  0.5475 -0.1358 -0.6455
 1896TIP3    H227180   3.890   4.315  16.343 -0.6265  0.8128 -0.1494
 1897TIP3   OH227181   3.769   6.094   3.839  0.1111 -0.4012  0.6013
 1897TIP3    H127182   3.723   6.088   3.923 -0.3912 -0.4776  0.3192
 1897TIP3    H227183   3.703   6.123   3.777  0.4956 -0.2978  0.2345
 1898TIP3   OH227184   2.265   6.770   6.383  0.2849 -0.0289  0.2639
 1898TIP3    H127185   2.199   6.836   6.363  0.5836  0.0501 -0.4908
 1898TIP3    H227186   2.339   6.820   6.420  1.8858  0.5967 -3.3513
 1899TIP3   OH227187   6.541   2.944  14.079 -0.3612 -0.2077 -0.2117
 1899TIP3    H127188   6.541   2.883  14.004  0.1662  0.4636 -0.7735
 1899TIP3    H227189   6.537   3.031  14.039  1.3916  0.2276  0.4513
 1900TIP3   OH227190   6.722   0.416   0.208  0.1765 -0.3785 -0.2152
 1900TIP3    H127191   6.668   0.486   0.245  1.5478 -0.3650  1.9683
 1900TIP3    H227192   6.743   0.447   0.120 -2.6760 -0.0729 -0.8859
 1901TIP3   OH227193   4.712   1.339  16.460  0.2146 -0.2140 -0.3125
 1901TIP3    H127194   4.744   1.352  16.371  1.2657  2.0913  0.3211
 1901TIP3    H227195   4.791   1.327  16.513 -0.3751 -1.1996  0.3845
 1902TIP3   OH227196   2.588   0.713   1.129 -0.8150  0.5595  0.3557
 1902TIP3    H127197   2.570   0.712   1.223 -2.2894  0.3412  0.1013
 1902TIP3    H227198   2.611   0.622   1.108 -1.0309  0.4911  0.4133
 1903TIP3   OH227199   1.211   2.427   2.539  0.1466  0.3233  0.5917
 1903TIP3    H127200   1.260   2.401   2.618 -0.0098  1.0069  0.9164
 1903TIP3    H227201   1.279   2.443   2.473  0.2662 -0.5776  0.4720
 1904TIP3   OH227202   3.360   1.944  12.402  0.1313  0.2069  0.4701
 1904TIP3    H127203   3.304   1.939  12.325  0.1563 -0.0974  0.4698
 1904TIP3    H227204   3.446   1.914  12.370 -0.2978 -1.7658  1.0443
 1905TIP3   OH227205   4.839   1.614   3.785  0.4761 -0.8603  0.6062
 1905TIP3    H127206   4.784   1.692   3.779  1.4188 -0.2135  0.1696
 1905TIP3    H227207   4.912   1.641   3.840  0.6296 -1.5513  0.7452
 1906TIP3   OH227208   2.385   1.437  14.199 -0.1278 -0.2350 -0.2165
 1906TIP3    H127209   2.330   1.413  14.124 -0.5657  1.2857 -0.4003
 1906TIP3    H227210   2.456   1.489  14.161 -0.0085  0.0290  0.3608
 1907TIP3   OH227211   6.691   2.585  16.324  0.1255  0.0780 -0.0195
 1907TIP3    H127212   6.693   2.527  16.247  0.4565  0.3072 -0.1844
 1907TIP3    H227213   6.756   2.548  16.383  1.0173  0.8085 -0.5135
 1908TIP3   OH227214   2.528   5.619   6.006 -0.0695  0.0339  0.0598
 1908TIP3    H127215   2.451   5.578   6.047  1.4620 -0.9332  2.1392
 1908TIP3    H227216   2.535   5.577   5.920 -1.3008 -0.5453  0.2202
 1909TIP3   OH227217   3.908   1.889   4.764  0.2511 -0.3621  0.2298
 1909TIP3    H127218   3.976   1.822   4.763  0.3941 -0.2239  0.5359
 1909TIP3    H227219   3.910   1.924   4.853  0.2231  0.0989  0.0522
 1910TIP3   OH227220   4.223   6.222   0.473 -0.0671 -0.2113 -0.0468
 1910TIP3    H127221   4.307   6.210   0.430  0.5139 -1.2889  1.3100
 1910TIP3    H227222   4.180   6.136   0.466 -0.6941  0.0896  0.0144
 1911TIP3   OH227223   0.644   5.114   3.807  0.2723 -0.3742 -0.4510
 1911TIP3    H127224   0.572   5.051   3.801 -0.4058  0.4851 -1.9220
 1911TIP3    H227225   0.716   5.073   3.760  0.1309 -0.4513 -0.6016
 1912TIP3   OH227226   5.114   2.859   5.085  0.2802 -0.5677  0.2933
 1912TIP3    H127227   5.190   2.901   5.045  0.9852 -1.7797  0.2983
 1912TIP3    H227228   5.080   2.801   5.017 -0.7652  0.0952  0.2338
 1913TIP3   OH227229   1.339   5.362  15.580 -0.1035 -0.4366  0.1299
 1913TIP3    H127230   1.334   5.301  15.507  1.6929 -1.7289  1.0072
 1913TIP3    H227231   1.257   5.412  15.576 -0.0237 -0.3741 -2.7808
 1914TIP3   OH227232   3.702   1.710  16.103 -0.2056 -0.3036  0.0182
 1914TIP3    H127233   3.767   1.768  16.063  0.8307 -1.6282 -0.3284
 1914TIP3    H227234   3.729   1.704  16.194 -0.2720 -0.2811  0.0388
 1915TIP3   OH227235   4.828   4.222  17.170 -0.2162 -0.5276 -0.0954
 1915TIP3    H127236   4.826   4.170  17.250 -0.0553  0.2799  0.4454
 1915TIP3    H227237   4.918   4.214  17.139 -0.4648 -1.4605 -0.6308
 1916TIP3   OH227238   2.475   4.815  12.611  0.4765 -0.0677 -0.3294
 1916TIP3    H127239   2.387   4.784  12.633  0.2317  0.1822 -0.9373
 1916TIP3    H227240   2.528   4.794  12.688 -0.2817  0.5007  0.3671
 1917TIP3   OH227241   2.540   6.339   2.833  0.2981  0.1405 -0.1997
 1917TIP3    H127242   2.498   6.261   2.869  0.7860 -0.1172 -0.1712
 1917TIP3    H227243   2.601   6.304   2.767 -1.1431  0.6437 -1.8780
 1918TIP3   OH227244   5.106   0.631  11.913  0.2000  0.1371  0.0745
 1918TIP3    H127245   5.071   0.669  11.993  1.1955  2.2213 -0.4066
 1918TIP3    H227246   5.071   0.686  11.843 -0.6730 -1.6522 -0.9796
 1919TIP3   OH227247   2.992   6.791  11.369 -0.5141 -0.2107  0.4612
 1919TIP3    H127248   2.968   6.853  11.437  1.5854 -0.1787  1.2529
 1919TIP3    H227249   3.004   6.845  11.290  0.3011  0.2822  0.9043
 1920TIP3   OH227250   4.226   4.835  15.714  0.8703 -0.5817 -0.8215
 1920TIP3    H127251   4.216   4.808  15.805  2.7406 -1.2323 -0.7751
 1920TIP3    H227252   4.238   4.930  15.718 -1.4394 -0.2345 -0.6336
 1921TIP3   OH227253   2.109   0.910   1.026  0.5415  0.8495  0.7183
 1921TIP3    H127254   2.202   0.914   1.047  0.5188 -0.1979  1.0842
 1921TIP3    H227255   2.065   0.947   1.103  0.6004 -0.0513  1.1980
 1922TIP3   OH227256   2.897   2.691  13.080 -0.1286  0.5387 -0.3818
 1922TIP3    H127257   2.887   2.596  13.079  0.0046  0.5283 -1.1210
 1922TIP3    H227258   2.924   2.711  13.170  0.1929 -0.1569 -0.3165
 1923TIP3   OH227259   4.114   3.481  12.542  0.0897  0.0593  0.2053
 1923TIP3    H127260   4.065   3.439  12.613  0.5899 -0.6904  0.1193
 1923TIP3    H227261   4.046   3.511  12.481 -0.2976 -0.2299  0.4867
 1924TIP3   OH227262   4.857   3.185  11.429 -0.2701  0.5860 -1.0921
 1924TIP3    H127263   4.865   3.214  11.520 -0.4986 -0.6364 -0.6639
 1924TIP3    H227264   4.937   3.135  11.413 -0.9371 -0.5168 -1.0533
 1925TIP3   OH227265   2.988   6.394  16.161 -0.0523 -0.4906 -0.3222
 1925TIP3    H127266   2.989   6.314  16.108  1.7355 -0.9167  0.2757
 1925TIP3    H227267   2.978   6.362  16.251  0.4930 -0.0363 -0.0950
 1926TIP3   OH227268   5.608   4.600   5.403 -0.3470  0.1821  0.0811
 1926TIP3    H127269   5.631   4.692   5.387 -0.2120  0.2670  0.7259
 1926TIP3    H227270   5.692   4.553   5.395  0.2087  0.5535  2.8899
 1927TIP3   OH227271   1.179   4.621  13.533  0.0893 -0.4885 -0.0090
 1927TIP3    H127272   1.240   4.655  13.599 -1.2064 -1.0835  1.5965
 1927TIP3    H227273   1.093   4.647  13.567 -0.6190 -0.7563 -1.5448
 1928TIP3   OH227274   4.135   2.731  16.737  0.4479  0.2689  0.4442
 1928TIP3    H127275   4.074   2.658  16.722  0.1797  0.7978 -1.3645
 1928TIP3    H227276   4.080   2.807  16.752  0.7170  0.2808  1.4377
 1929TIP3   OH227277   6.329   4.761   3.932  0.0407  0.1796  0.1317
 1929TIP3    H127278   6.284   4.684   3.896 -1.7389  0.2633  1.9692
 1929TIP3    H227279   6.270   4.834   3.913  0.7219  0.7645  0.2197
 1930TIP3   OH227280   6.113   1.267  11.772  0.3177  0.1285  0.1089
 1930TIP3    H127281   6.068   1.191  11.735  0.4498  0.8483 -1.6524
 1930TIP3    H227282   6.104   1.335  11.705  0.7687  1.4695  1.3489
 1931TIP3   OH227283   0.267   5.121   0.092 -0.0482 -0.1886  0.4302
 1931TIP3    H127284   0.339   5.117   0.155 -0.3345  0.1395  0.7812
 1931TIP3    H227285   0.297   5.183   0.026  0.2889 -0.5967  0.1912
 1932TIP3   OH227286   5.891   4.686  15.470 -0.1628 -0.4149 -0.0828
 1932TIP3    H127287   5.814   4.659  15.519 -0.5535 -3.7853 -2.1776
 1932TIP3    H227288   5.957   4.620  15.491  0.9478  0.3695 -1.0003
 1933TIP3   OH227289   0.236   6.105   0.761  0.3197 -0.4717 -0.1691
 1933TIP3    H127290   0.151   6.128   0.799 -0.4987 -1.9421 -1.0525
 1933TIP3    H227291   0.219   6.096   0.668  1.5949 -0.2180 -0.4497
 1934TIP3   OH227292   0.173   4.658   0.129 -0.5503  0.1999 -0.2068
 1934TIP3    H127293   0.137   4.675   0.216 -1.7464  0.2806 -0.6936
 1934TIP3    H227294   0.239   4.590   0.143  0.8888  1.7877  1.0719
 1935TIP3   OH227295   6.687   6.446   3.372 -0.4718 -0.0963  0.2091
 1935TIP3    H127296   6.606   6.478   3.333 -0.4068  0.2329  0.3446
 1935TIP3    H227297   6.735   6.525   3.398  1.0316 -0.1312 -2.1251
 1936TIP3   OH227298   4.496   3.663   3.252 -0.1192  0.1646 -0.0006
 1936TIP3    H127299   4.510   3.752   3.218 -0.3358 -0.5726 -2.1647
 1936TIP3    H227300   4.432   3.674   3.323  0.4047  1.8002  0.2669
 1937TIP3   OH227301   6.669   5.141   5.108 -0.3369 -0.1561 -0.1723
 1937TIP3    H127302   6.754   5.151   5.149 -1.0910  2.0186  1.0776
 1937TIP3    H227303   6.611   5.113   5.179 -0.4020 -3.6639 -1.4207
 1938TIP3   OH227304   3.435   0.132   1.607 -0.0443  0.0468 -1.1567
 1938TIP3    H127305   3.399   0.216   1.637  4.4974  1.7083  0.5890
 1938TIP3    H227306   3.382   0.066   1.652 -1.5645  2.1100  0.2819
 1939TIP3   OH227307   2.462   3.010   3.147  0.3512  0.0287  0.1588
 1939TIP3    H127308   2.544   3.059   3.154  1.2537 -1.4026  0.1511
 1939TIP3    H227309   2.490   2.918   3.144 -1.3407 -0.5826  1.6111
 1940TIP3   OH227310   3.839   4.735   3.517  0.0612  0.1296  0.5079
 1940TIP3    H127311   3.899   4.808   3.510 -0.1360  0.2845  0.4143
 1940TIP3    H227312   3.859   4.680   3.441  0.1251  0.1518  0.5090
 1941TIP3   OH227313   6.383   4.452  12.082  0.0185 -0.4408 -0.1944
 1941TIP3    H127314   6.438   4.428  12.157  0.4173 -2.6986 -1.1530
 1941TIP3    H227315   6.444   4.459  12.009 -0.7734 -1.7978 -1.0260
 1942TIP3   OH227316   5.701   4.840  16.513 -0.1479  0.4204 -0.6896
 1942TIP3    H127317   5.670   4.915  16.564  0.5515 -0.7788  1.6004
 1942TIP3    H227318   5.795   4.836  16.530 -0.0283 -0.4793 -1.5032
 1943TIP3   OH227319   3.601   0.407   6.049  0.3711  0.3732 -0.4166
 1943TIP3    H127320   3.534   0.405   5.980  0.4620 -0.6203 -0.4892
 1943TIP3    H227321   3.568   0.471   6.112 -0.7941 -0.2862 -0.3154
 1944TIP3   OH227322   6.229   0.582   0.812 -0.3902 -0.0227 -0.0401
 1944TIP3    H127323   6.319   0.594   0.781 -1.6856  1.8144 -3.5992
 1944TIP3    H227324   6.195   0.671   0.821 -1.9727 -0.6945  1.0854
 1945TIP3   OH227325   0.306   2.821   0.306  0.1393  0.4658 -0.2852
 1945TIP3    H127326   0.274   2.910   0.296  1.1842  1.2238  2.2027
 1945TIP3    H227327   0.270   2.791   0.390  2.0467 -0.3425  0.3273
 1946TIP3   OH227328   6.438   6.133   2.623  0.0085  0.2141  0.1573
 1946TIP3    H127329   6.423   6.116   2.530 -0.1493  0.0676  0.2074
 1946TIP3    H227330   6.522   6.179   2.626 -0.2593  0.7283 -0.1004
 1947TIP3   OH227331   4.119   6.649  13.999  0.4935  0.2033 -0.4243
 1947TIP3    H127332   4.086   6.560  14.010  1.1345 -0.0186 -0.1834
 1947TIP3    H227333   4.123   6.662  13.905  1.2111 -0.3581 -0.4900
 1948TIP3   OH227334   0.450   1.343  16.982  0.0155  0.0674  0.4714
 1948TIP3    H127335   0.507   1.338  17.059 -2.0154 -2.1704  1.9968
 1948TIP3    H227336   0.391   1.416  17.001  0.0051  0.0105  0.6580
 1949TIP3   OH227337   6.565   0.376   4.683  0.0530  1.0180  0.1906
 1949TIP3    H127338   6.653   0.355   4.713 -0.6139  0.3030  1.8161
 1949TIP3    H227339   6.569   0.371   4.588  1.3971 -0.5972  0.2990
 1950TIP3   OH227340   4.158   5.971  11.799 -0.4471 -0.5833  0.2954
 1950TIP3    H127341   4.076   5.987  11.753  0.8115 -0.6672 -2.1097
 1950TIP3    H227342   4.148   5.884  11.836  0.2969 -3.0022 -4.4276
 1951TIP3   OH227343   3.790   4.046  11.170  0.2929 -0.0202 -0.0501
 1951TIP3    H127344   3.748   4.095  11.100 -1.1188  1.0571  1.4879
 1951TIP3    H227345   3.846   3.983  11.124 -0.7568  0.4642 -2.1326
 1952TIP3   OH227346   0.119   1.560   2.074  0.2522 -0.5263  0.5201
 1952TIP3    H127347   0.075   1.487   2.029 -1.5241  0.1105  1.1887
 1952TIP3    H227348   0.110   1.634   2.014  1.6628 -0.6927  0.0487
 1953TIP3   OH227349   4.056   4.192  14.661 -0.7488 -0.4524  0.1244
 1953TIP3    H127350   4.023   4.277  14.631 -0.6926 -0.2926  0.5131
 1953TIP3    H227351   4.042   4.134  14.586 -0.2749  0.0304 -0.3544
 1954TIP3   OH227352   5.804   5.934   0.526  0.6831 -0.1080 -0.0433
 1954TIP3    H127353   5.720   5.943   0.482  1.5075  0.3429 -1.5781
 1954TIP3    H227354   5.869   5.947   0.458  2.0575 -3.4556  0.4267
 1955TIP3   OH227355   0.036   6.012  14.135 -0.4779 -0.3703 -0.3752
 1955TIP3    H127356  -0.044   6.014  14.188  0.1593  1.3645  0.6181
 1955TIP3    H227357   0.015   6.065  14.059  0.0931  1.1800  0.5132
 1956TIP3   OH227358   6.325   5.397  11.780  0.0451 -0.1320  0.1479
 1956TIP3    H127359   6.256   5.353  11.830  0.4771  0.1711  1.0257
 1956TIP3    H227360   6.388   5.426  11.846  0.4853  0.5354 -0.5473
 1957TIP3   OH227361   1.914   1.711   2.728  0.3389 -0.6592 -0.0105
 1957TIP3    H127362   1.912   1.616   2.741  0.5991 -0.2036  4.8447
 1957TIP3    H227363   2.007   1.733   2.731  0.1902 -0.0993  0.6562
 1958TIP3   OH227364   6.032   1.830   0.881 -0.1790 -0.1000  0.1453
 1958TIP3    H127365   5.978   1.782   0.943 -0.8416  0.5063  0.0419
 1958TIP3    H227366   6.013   1.789   0.796 -0.0472 -0.2551  0.1900
 1959TIP3   OH227367   3.945   0.285   5.681  0.3210 -0.4921 -0.2569
 1959TIP3    H127368   3.916   0.267   5.771  0.6680 -1.0385 -0.2501
 1959TIP3    H227369   3.984   0.203   5.652  2.0936  0.2615 -0.1666
 1960TIP3   OH227370   5.742   2.762   4.649 -0.7162  0.2337 -0.2013
 1960TIP3    H127371   5.650   2.741   4.633 -0.1534 -0.7402 -2.8254
 1960TIP3    H227372   5.781   2.679   4.677 -0.5716  0.6035  0.7433
 1961TIP3   OH227373   5.120   1.957  15.376  0.7409  0.7418  0.2826
 1961TIP3    H127374   5.209   1.964  15.409  0.5261  0.6852  0.8905
 1961TIP3    H227375   5.066   1.997  15.444  0.2869  0.6326 -0.0078
 1962TIP3   OH227376   0.317   4.204  11.952  0.0559  0.2222 -0.3862
 1962TIP3    H127377   0.305   4.222  12.046  0.8501  0.5169 -0.3330
 1962TIP3    H227378   0.303   4.109  11.944 -0.3603  0.2514 -0.0277
 1963TIP3   OH227379   5.015   4.712   0.685 -0.0804  0.4628  0.9843
 1963TIP3    H127380   4.938   4.764   0.707 -0.4478  0.3114  0.0723
 1963TIP3    H227381   5.022   4.717   0.590  0.1452 -0.7634  0.9101
 1964TIP3   OH227382   6.061   3.486   2.229 -0.1044 -0.0578  0.3151
 1964TIP3    H127383   6.068   3.573   2.268 -1.4289 -0.0868  0.6560
 1964TIP3    H227384   6.036   3.502   2.138  3.1521  0.0165 -0.7060
 1965TIP3   OH227385   5.576   1.314   1.913 -0.4164  0.1431 -0.2941
 1965TIP3    H127386   5.549   1.226   1.885 -0.3182  0.4622 -1.4542
 1965TIP3    H227387   5.520   1.373   1.862  0.7268  0.7771 -0.8404
 1966TIP3   OH227388   2.678   1.636   2.727 -0.4420  0.5088 -0.0918
 1966TIP3    H127389   2.621   1.656   2.653  0.3005  0.8336 -0.5846
 1966TIP3    H227390   2.657   1.703   2.793  1.2312  2.2952 -1.2932
 1967TIP3   OH227391   4.848   3.807  15.628 -0.0096  0.3554 -0.0976
 1967TIP3    H127392   4.921   3.761  15.670  1.0937 -0.7351 -2.9757
 1967TIP3    H227393   4.832   3.759  15.547 -1.9081  2.3943 -1.0426
 1968TIP3   OH227394   0.337   0.885  15.887 -0.2909 -0.0903  0.0935
 1968TIP3    H127395   0.276   0.950  15.854  0.8217  1.2638  0.5953
 1968TIP3    H227396   0.377   0.847  15.809 -0.9268 -0.1620 -0.2042
 1969TIP3   OH227397   2.881   2.924   3.706 -0.7157 -0.2761 -0.3822
 1969TIP3    H127398   2.923   2.856   3.652 -2.0514  0.6259 -2.6906
 1969TIP3    H227399   2.836   2.875   3.774  0.2296 -1.5409 -0.6213
 1970TIP3   OH227400   3.801   5.593   4.055  0.4449 -0.1493 -0.4154
 1970TIP3    H127401   3.829   5.505   4.029  1.8589  0.3144 -0.5174
 1970TIP3    H227402   3.787   5.639   3.972 -1.9792 -0.7339 -0.4123
 1971TIP3   OH227403   6.036   2.480  14.866 -0.5760  0.0576 -0.4843
 1971TIP3    H127404   6.012   2.455  14.955  3.2887 -2.6183  0.0844
 1971TIP3    H227405   5.997   2.412  14.811  0.1964 -0.5322 -0.3235
 1972TIP3   OH227406   4.017   4.431  17.018  0.5325  0.3770  0.3589
 1972TIP3    H127407   4.077   4.371  16.973  1.7221 -0.0197  2.3503
 1972TIP3    H227408   4.015   4.508  16.962  2.5389  0.1977 -0.0568
 1973TIP3   OH227409   5.025   2.143  14.884 -0.3454 -0.0624  0.3769
 1973TIP3    H127410   5.051   2.211  14.946  0.3574  0.6941 -0.7038
 1973TIP3    H227411   5.002   2.068  14.938  0.4629  0.5011  1.5374
 1974TIP3   OH227412   6.663   2.769   3.965 -0.4004 -0.0197  0.2896
 1974TIP3    H127413   6.641   2.790   4.056  2.0357  3.0772  0.3121
 1974TIP3    H227414   6.756   2.788   3.957 -0.3295 -1.0502 -2.7013
 1975TIP3   OH227415   0.694   5.259   3.464  0.0079  0.0664  0.0343
 1975TIP3    H127416   0.633   5.197   3.505 -0.3806 -0.1557 -0.8397
 1975TIP3    H227417   0.700   5.331   3.526  0.7422 -0.9880  1.2375
 1976TIP3   OH227418   2.349   3.303  12.828  0.1433  0.2702  0.5431
 1976TIP3    H127419   2.378   3.360  12.757 -1.5242  1.9770  1.1383
 1976TIP3    H227420   2.263   3.273  12.800  1.2677 -2.6767 -0.0951
 1977TIP3   OH227421   0.874   4.734   2.958 -0.6890  0.1481 -0.0755
 1977TIP3    H127422   0.944   4.799   2.964  0.8648 -1.5702  1.3989
 1977TIP3    H227423   0.802   4.781   2.915  1.3332  1.9658 -1.6955
 1978TIP3   OH227424   2.125   4.578   0.775 -0.1342 -0.1898  0.6142
 1978TIP3    H127425   2.030   4.580   0.782 -0.5364 -3.2481 -1.6275
 1978TIP3    H227426   2.145   4.630   0.697  0.0194  0.3671  1.0245
 1979TIP3   OH227427   3.695   0.005  13.057  0.2108 -0.6682  0.0573
 1979TIP3    H127428   3.713   0.099  13.062 -0.6718 -0.5525  2.3278
 1979TIP3    H227429   3.767  -0.036  13.105 -0.4938 -0.9494  0.9066
 1980TIP3   OH227430   6.293   2.845   2.629  0.0628  0.0972 -0.0737
 1980TIP3    H127431   6.332   2.926   2.661 -0.0502  0.4554 -0.8346
 1980TIP3    H227432   6.199   2.862   2.627 -0.1572 -0.6826  1.5176
 1981TIP3   OH227433   2.769   2.394   6.400 -0.2503 -0.1025  0.0167
 1981TIP3    H127434   2.754   2.486   6.421  1.1623 -0.5673  3.6881
 1981TIP3    H227435   2.853   2.394   6.353  0.0697  0.4479  0.5704
 1982TIP3   OH227436   1.413   2.984   0.719  0.0790 -0.4100  0.2941
 1982TIP3    H127437   1.507   2.969   0.725  0.2314  0.3185 -0.1616
 1982TIP3    H227438   1.387   2.941   0.638  0.3449  0.8831 -0.5052
 1983TIP3   OH227439   4.877   0.484  13.983  0.1364  0.1474  0.2109
 1983TIP3    H127440   4.943   0.462  13.918 -0.1895 -0.0877 -0.0402
 1983TIP3    H227441   4.809   0.417  13.974  0.3337 -0.2029  1.1537
 1984TIP3   OH227442   1.598   2.990   1.760 -0.2294  0.6578  0.7007
 1984TIP3    H127443   1.506   3.000   1.787 -0.6691 -0.8341 -0.1253
 1984TIP3    H227444   1.611   3.059   1.695 -0.7688  0.8851  0.8222
 1985TIP3   OH227445   2.691   2.511   0.939  0.5138 -0.2001  0.0690
 1985TIP3    H127446   2.652   2.507   0.852  0.3413 -0.3920  0.1544
 1985TIP3    H227447   2.757   2.442   0.940  0.7967  0.0665 -0.0453
 1986TIP3   OH227448   0.897   4.117  14.911  0.4366 -0.0395  0.2411
 1986TIP3    H127449   0.823   4.126  14.851 -1.8653 -3.4859  2.1784
 1986TIP3    H227450   0.898   4.198  14.962 -2.7964 -0.2431  0.8125
 1987TIP3   OH227451   2.066   3.438  15.974 -0.0145 -0.6277 -0.4128
 1987TIP3    H127452   2.049   3.347  16.000  2.2193 -0.5896  1.5248
 1987TIP3    H227453   2.155   3.436  15.941  0.6357  1.0920  1.1047
 1988TIP3   OH227454   2.559   5.341  16.462  0.4479  0.1549 -0.1304
 1988TIP3    H127455   2.629   5.278  16.481 -1.6137 -1.5986  2.4555
 1988TIP3    H227456   2.545   5.387  16.545 -1.9330 -0.1417 -0.2843
 1989TIP3   OH227457   3.248   0.564  14.207 -0.0391  0.2021 -0.5638
 1989TIP3    H127458   3.255   0.566  14.303  0.8967 -0.4810 -0.6023
 1989TIP3    H227459   3.306   0.493  14.181  0.3419  0.9034 -1.6918
 1990TIP3   OH227460   1.014   0.749   5.242 -0.0086  0.0618  0.1780
 1990TIP3    H127461   1.083   0.701   5.197  0.5706  0.1253  0.9653
 1990TIP3    H227462   0.938   0.743   5.185  0.1998 -1.3571  0.0292
 1991TIP3   OH227463   2.828   1.270  14.874  0.3527  0.2026  0.0821
 1991TIP3    H127464   2.767   1.327  14.920  0.1721 -0.6078  0.8902
 1991TIP3    H227465   2.914   1.305  14.895  0.1850  1.3980 -1.1249
 1992TIP3   OH227466   4.382   4.333   4.890  0.0327  0.4356 -0.2608
 1992TIP3    H127467   4.458   4.374   4.849 -0.2110 -0.2329 -1.4254
 1992TIP3    H227468   4.336   4.289   4.818 -0.4270 -0.7666  0.7201
 1993TIP3   OH227469   5.180   0.001  15.252 -0.2312  0.1672 -0.3832
 1993TIP3    H127470   5.216  -0.084  15.273 -1.4102  0.2322  2.2483
 1993TIP3    H227471   5.256   0.059  15.245  0.4908 -0.8216 -0.9994
 1994TIP3   OH227472   3.370   1.967   1.519 -0.9415  0.5150  0.1402
 1994TIP3    H127473   3.324   2.042   1.482 -0.3294  0.5231 -0.5992
 1994TIP3    H227474   3.433   1.941   1.453  0.4733  0.7967  1.3302
 1995TIP3   OH227475   5.646   4.438  12.014  0.5129  0.2982  0.4413
 1995TIP3    H127476   5.585   4.479  12.076  1.0138  2.2605 -0.2771
 1995TIP3    H227477   5.695   4.375  12.067 -1.5639 -0.7611  1.1987
 1996TIP3   OH227478   5.522   6.718   4.655  0.2854  0.4456 -0.2135
 1996TIP3    H127479   5.502   6.644   4.712  0.9613  1.3012  1.2187
 1996TIP3    H227480   5.612   6.741   4.677  0.4826  0.9619 -1.4883
 1997TIP3   OH227481   0.961   2.838   0.299  0.0526  0.2957  0.2492
 1997TIP3    H127482   0.924   2.759   0.258 -0.8610  0.9806 -0.2794
 1997TIP3    H227483   0.931   2.833   0.390  0.1537 -0.0544  0.2674
 1998TIP3   OH227484   4.937   3.344   0.497 -0.0788  0.3742  0.2137
 1998TIP3    H127485   4.974   3.402   0.431 -0.8113  0.3909 -0.1920
 1998TIP3    H227486   4.853   3.384   0.521  0.5188  0.7745  1.7260
 1999TIP3   OH227487   0.207   3.570  15.853 -0.4788 -0.1143  0.1596
 1999TIP3    H127488   0.288   3.575  15.803 -2.0500  4.8024 -2.6453
 1999TIP3    H227489   0.152   3.509  15.804 -0.1155  0.3577 -0.8481
 2000TIP3   OH227490   1.262   4.601   2.840  0.5216  0.1225  0.1477
 2000TIP3    H127491   1.337   4.609   2.899  0.7505  1.4993 -0.2946
 2000TIP3    H227492   1.187   4.628   2.892  0.0701 -2.5130  0.9999
 2001TIP3   OH227493   2.731   1.823  12.526 -0.2402  0.3285 -0.0706
 2001TIP3    H127494   2.736   1.730  12.549  2.0084  0.4371  0.0212
 2001TIP3    H227495   2.637   1.840  12.523 -0.8249 -1.0310  3.6495
 2002TIP3   OH227496   5.631   0.656   1.182 -0.3084 -0.6348 -0.3400
 2002TIP3    H127497   5.586   0.714   1.121  0.9418  1.2547  0.4435
 2002TIP3    H227498   5.583   0.664   1.264  1.0057  0.9140  0.3259
 2003TIP3   OH227499   5.952   3.322  14.375 -0.1297  0.0077  0.5308
 2003TIP3    H127500   5.891   3.252  14.353 -1.1039  0.8676  0.3809
 2003TIP3    H227501   5.917   3.399  14.331  0.7017  0.6723  0.9910
 2004TIP3   OH227502   5.398   3.810  15.538 -0.2226 -0.3862 -0.1350
 2004TIP3    H127503   5.491   3.828  15.555  0.0837 -3.0008  1.5465
 2004TIP3    H227504   5.352   3.866  15.601  0.4272 -1.4510  1.3588
 2005TIP3   OH227505   3.310   6.196  11.293  0.0200 -0.0511  0.1158
 2005TIP3    H127506   3.352   6.267  11.343 -0.2935 -0.5591  1.1277
 2005TIP3    H227507   3.359   6.118  11.318 -1.2446 -0.5929  0.9987
 2006TIP3   OH227508   5.494   0.104  13.540 -0.4773 -0.0760  0.3001
 2006TIP3    H127509   5.552   0.057  13.480  0.3732  0.8751  0.3504
 2006TIP3    H227510   5.529   0.193  13.542 -1.6002  0.3677  0.7878
 2007TIP3   OH227511   4.527   5.302  14.077 -0.1028 -0.2578  0.3611
 2007TIP3    H127512   4.549   5.268  14.163 -2.0382 -1.0487  0.5953
 2007TIP3    H227513   4.470   5.235  14.038 -1.1047  1.0881 -0.6095
 2008TIP3   OH227514   1.427   1.331  12.702  0.2165  0.2223 -0.7231
 2008TIP3    H127515   1.357   1.374  12.653  1.7396  2.2432 -1.2859
 2008TIP3    H227516   1.429   1.242  12.667 -2.8183 -0.3253  0.2106
 2009TIP3   OH227517   2.671   1.901   2.068 -0.1421  0.1835 -0.4627
 2009TIP3    H127518   2.762   1.874   2.080 -0.5907 -0.1337  3.4830
 2009TIP3    H227519   2.627   1.823   2.034  0.3947 -0.9529  1.3447
 2010TIP3   OH227520   4.340   3.430   2.321  0.0055  0.0126  0.0808
 2010TIP3    H127521   4.268   3.480   2.283 -1.4830 -1.7459  0.4400
 2010TIP3    H227522   4.303   3.343   2.339  2.3734 -1.1782 -0.2849
 2011TIP3   OH227523   0.476   2.686   5.787 -0.2001  0.0272  0.7763
 2011TIP3    H127524   0.437   2.604   5.757 -1.1657  0.1396  1.6552
 2011TIP3    H227525   0.546   2.704   5.725 -0.2930 -1.2130  0.2958
 2012TIP3   OH227526   4.019   0.648   6.794  0.2309 -0.0361 -0.8415
 2012TIP3    H127527   3.982   0.736   6.797 -2.0579 -0.9486  1.1959
 2012TIP3    H227528   3.948   0.592   6.825  2.3191 -2.3573  0.0100
 2013TIP3   OH227529   5.299   5.468   1.116  0.1788  0.1318  0.2168
 2013TIP3    H127530   5.371   5.411   1.086  0.9445 -1.3546  4.2472
 2013TIP3    H227531   5.337   5.518   1.188 -1.9383  2.0093  0.1130
 2014TIP3   OH227532   1.948   4.534  14.347 -0.3712 -0.0783  0.0747
 2014TIP3    H127533   1.922   4.590  14.420  0.1369 -0.3164  0.4425
 2014TIP3    H227534   1.865   4.502  14.310 -0.6480  0.5620  0.1337
 2015TIP3   OH227535   1.433   3.428  15.799  0.0543  0.5003 -0.0827
 2015TIP3    H127536   1.434   3.502  15.859 -2.9873 -0.2510  1.1107
 2015TIP3    H227537   1.487   3.361  15.841  1.5848  1.4678 -0.4419
 2016TIP3   OH227538   6.048   4.327  15.423 -0.0969  0.5606  0.8179
 2016TIP3    H127539   6.121   4.302  15.366  0.6986 -0.8665  2.3577
 2016TIP3    H227540   6.090   4.355  15.504 -1.2131 -1.7591  2.3109
 2017TIP3   OH227541   4.078   4.487  11.428  0.3206 -0.4760 -0.8349
 2017TIP3    H127542   4.131   4.458  11.354 -0.0576 -0.7783 -0.9908
 2017TIP3    H227543   3.988   4.470  11.401  0.1898 -0.7950 -0.2163
 2018TIP3   OH227544   2.967   1.373   3.926  0.1252 -0.0959  0.2255
 2018TIP3    H127545   2.982   1.460   3.964 -0.3488 -0.3264  0.9591
 2018TIP3    H227546   3.026   1.315   3.975  0.3383 -0.2091 -0.1652
 2019TIP3   OH227547   6.173   0.184  12.916 -0.7743 -0.2725  0.2604
 2019TIP3    H127548   6.081   0.197  12.895 -0.9987 -0.6160  1.0054
 2019TIP3    H227549   6.173   0.149  13.005  0.0691 -0.3795  0.2291
 2020TIP3   OH227550   1.233   4.408  16.527 -0.3699 -0.3983  0.2052
 2020TIP3    H127551   1.200   4.346  16.462  0.4426  0.5321 -1.1313
 2020TIP3    H227552   1.245   4.490  16.480  0.9225  0.1230  1.3473
 2021TIP3   OH227553   3.169   2.683   5.274 -0.0478 -0.2286 -0.0024
 2021TIP3    H127554   3.118   2.617   5.227  0.4470  0.2594 -1.2671
 2021TIP3    H227555   3.132   2.766   5.245  0.1720  0.0796  0.5992
 2022TIP3   OH227556   6.329   1.238   2.057 -0.0216 -0.5686 -0.2928
 2022TIP3    H127557   6.289   1.157   2.090 -0.7881 -1.5503 -3.2768
 2022TIP3    H227558   6.264   1.305   2.075 -0.5112 -1.0980 -0.0284
 2023TIP3   OH227559   6.049   1.387  16.482 -0.2796  0.2498  0.4897
 2023TIP3    H127560   5.979   1.323  16.471 -1.8509  1.9848 -0.1527
 2023TIP3    H227561   6.071   1.414  16.393  0.2929  0.6733  0.7539
 2024TIP3   OH227562   6.008   0.186   2.576 -0.0021  0.3934 -0.7005
 2024TIP3    H127563   5.920   0.219   2.556 -0.3834 -0.0187  0.2101
 2024TIP3    H227564   6.024   0.216   2.666  0.9684  0.8199 -1.0026
 2025TIP3   OH227565   1.947   5.754   3.506 -0.0562  0.6194  0.3807
 2025TIP3    H127566   1.981   5.665   3.517 -0.2472  0.6911  1.8165
 2025TIP3    H227567   1.879   5.761   3.573 -1.1473  1.3264 -0.7738
 2026TIP3   OH227568   2.780   0.627  15.216  0.3275 -0.6581 -0.1347
 2026TIP3    H127569   2.849   0.631  15.281  0.9947  2.0102 -0.8433
 2026TIP3    H227570   2.809   0.687  15.147 -1.5803 -1.3161 -1.6161
 2027TIP3   OH227571   5.007   4.732  13.710  0.3119  0.1238 -0.4473
 2027TIP3    H127572   5.005   4.811  13.765  0.8541  1.1590 -1.8609
 2027TIP3    H227573   4.918   4.725  13.676 -0.0451 -0.5615  0.5776
 2028TIP3   OH227574   4.035   5.557  10.898  0.0415  0.6028 -0.6845
 2028TIP3    H127575   3.998   5.543  10.811  0.4691  0.9200 -0.9227
 2028TIP3    H227576   4.112   5.612  10.883 -0.1868  1.1050 -0.0469
 2029TIP3   OH227577   0.986   2.619  12.768  0.0644  0.1228  0.4009
 2029TIP3    H127578   1.069   2.633  12.723 -1.0259  2.1523 -1.1309
 2029TIP3    H227579   0.958   2.532  12.740  1.3467 -0.3298  0.4441
 2030TIP3   OH227580   5.810   1.780   5.326  0.3535  0.1742 -0.4965
 2030TIP3    H127581   5.863   1.703   5.348  0.9381  0.4745 -0.8327
 2030TIP3    H227582   5.769   1.758   5.242 -2.5745 -1.3320  1.1617
 2031TIP3   OH227583   6.159   5.495  16.617  0.3301  0.0477  0.6725
 2031TIP3    H127584   6.243   5.488  16.661 -0.0461 -1.4197  1.2380
 2031TIP3    H227585   6.177   5.468  16.527  0.6004  0.4181  0.6166
 2032TIP3   OH227586   6.237   2.661   4.272  0.5281  0.0794 -0.3587
 2032TIP3    H127587   6.168   2.695   4.328  0.9546 -0.7606  0.7121
 2032TIP3    H227588   6.246   2.726   4.202 -0.5676  0.7406  0.0976
 2033TIP3   OH227589   1.344   0.391  14.871  0.1511 -0.1536  0.0914
 2033TIP3    H127590   1.294   0.471  14.887 -0.4548 -0.6386  0.7149
 2033TIP3    H227591   1.427   0.421  14.834  0.2805  0.8261  1.1219
 2034TIP3   OH227592   5.788   2.206  16.881  0.2216  0.3448  0.1833
 2034TIP3    H127593   5.830   2.200  16.795 -0.9424 -0.4721 -0.3525
 2034TIP3    H227594   5.771   2.299  16.893  0.6538  0.5017 -0.3356
 2035TIP3   OH227595   0.368   0.783  13.254  0.8775 -0.0635  0.4297
 2035TIP3    H127596   0.445   0.737  13.289  0.1495 -1.3335  0.4261
 2035TIP3    H227597   0.293   0.734  13.289  0.0377  1.5685  0.9990
 2036TIP3   OH227598   6.619   3.462   5.501 -0.0307  0.2452 -0.8803
 2036TIP3    H127599   6.552   3.416   5.450 -0.6554 -0.7042  0.6953
 2036TIP3    H227600   6.578   3.544   5.527 -1.1627 -0.8673  1.1402
 2037TIP3   OH227601   4.005   4.026  12.315  0.0130  0.2352 -0.0481
 2037TIP3    H127602   3.986   3.951  12.371 -1.5676 -0.7452 -1.8036
 2037TIP3    H227603   4.098   4.043  12.329  0.9633 -3.3898 -1.1067
 2038TIP3   OH227604   4.821   0.779  11.960 -0.4118 -0.0175 -0.2113
 2038TIP3    H127605   4.760   0.706  11.966  0.3151 -0.7433 -1.2853
 2038TIP3    H227606   4.791   0.829  11.884  1.4968 -1.5568 -2.0848
 2039TIP3   OH227607   1.624   4.742  16.717 -0.4134  0.5704  0.5503
 2039TIP3    H127608   1.703   4.724  16.768  1.2524 -1.8398 -2.5433
 2039TIP3    H227609   1.552   4.715  16.775  1.2805 -1.0984  2.0008
 2040TIP3   OH227610   5.587   5.551   2.424  0.1813 -0.9123  0.0714
 2040TIP3    H127611   5.611   5.635   2.464  0.7913 -0.4738 -1.1505
 2040TIP3    H227612   5.585   5.489   2.497 -0.2747  0.1533  0.9974
 2041TIP3   OH227613   5.296   1.214  16.581  0.0087  0.8817 -0.3947
 2041TIP3    H127614   5.367   1.159  16.548  1.8339  2.8480 -0.0209
 2041TIP3    H227615   5.259   1.254  16.502 -1.1061 -0.5780 -0.6385
 2042TIP3   OH227616   5.114   1.536  14.188 -0.0488  0.3708 -0.0537
 2042TIP3    H127617   5.184   1.519  14.124  0.9696  0.0955  1.0921
 2042TIP3    H227618   5.059   1.602  14.147 -0.6535 -1.3047 -2.1094
 2043TIP3   OH227619   3.122   6.718  15.506 -0.0705  0.1329 -0.5912
 2043TIP3    H127620   3.100   6.674  15.424 -0.3156  0.7886 -0.8844
 2043TIP3    H227621   3.197   6.774  15.484  0.9866 -0.9691  0.0504
 2044TIP3   OH227622   2.177   1.006  16.726  0.2451  0.0505 -0.3611
 2044TIP3    H127623   2.111   1.072  16.708  0.0875  0.1452  0.5021
 2044TIP3    H227624   2.251   1.029  16.669 -0.0849  0.5320 -0.6020
 2045TIP3   OH227625   6.279   0.143   6.512  0.4863  0.5271  0.1981
 2045TIP3    H127626   6.258   0.140   6.419  2.2135 -1.5759 -0.2038
 2045TIP3    H227627   6.220   0.080   6.553 -1.5564  2.7674  0.9112
 2046TIP3   OH227628   5.108   2.775  13.718  0.2320 -0.0942  0.4120
 2046TIP3    H127629   5.047   2.849  13.708 -1.3182 -1.3201  0.3416
 2046TIP3    H227630   5.117   2.740  13.629  0.5164 -0.3262  0.5330
 2047TIP3   OH227631   0.457   6.068   6.240  0.1680 -0.1262 -0.1478
 2047TIP3    H127632   0.535   6.116   6.270 -0.5807  0.7509  0.4249
 2047TIP3    H227633   0.385   6.130   6.250 -1.1894 -1.9102  2.4483
 2048TIP3   OH227634   5.469   6.793   5.145 -0.4113  0.0863  0.3469
 2048TIP3    H127635   5.399   6.858   5.158  0.6411  1.5274 -0.8450
 2048TIP3    H227636   5.439   6.740   5.072 -0.1317  0.9325 -0.4011
 2049TIP3   OH227637   5.178   2.109   2.243 -0.8081 -0.3394  0.4835
 2049TIP3    H127638   5.218   2.096   2.157 -1.0962  1.1567  0.1033
 2049TIP3    H227639   5.101   2.052   2.242 -3.4285  2.8588 -2.0661
 2050TIP3   OH227640   0.332   4.360  15.933  0.3749  0.2079 -0.0784
 2050TIP3    H127641   0.275   4.399  15.866  0.7812 -0.0314 -0.5769
 2050TIP3    H227642   0.275   4.343  16.007 -0.1533  0.1866 -0.4829
 2051TIP3   OH227643   1.235   1.373  11.926 -0.3470  1.2091  0.6778
 2051TIP3    H127644   1.173   1.301  11.926  0.9965 -0.0190 -0.5808
 2051TIP3    H227645   1.180   1.452  11.918 -1.7585  0.1972 -0.0872
 2052TIP3   OH227646   6.410   2.954  14.813 -0.2304  0.0406  0.1969
 2052TIP3    H127647   6.321   2.922  14.829 -0.9949  0.6601 -2.3005
 2052TIP3    H227648   6.465   2.875  14.818 -0.4121 -0.0446  4.0832
 2053TIP3   OH227649   0.083   3.631   4.055 -0.6492  0.0452  0.0538
 2053TIP3    H127650   0.034   3.642   4.137 -0.8547 -0.8989  0.0673
 2053TIP3    H227651   0.043   3.555   4.013  1.1892 -1.1515  0.3723
 2054TIP3   OH227652   4.814   0.291   0.314 -0.3251 -0.8095 -0.3089
 2054TIP3    H127653   4.839   0.269   0.404  0.1668  0.1678 -0.1965
 2054TIP3    H227654   4.826   0.210   0.265 -0.9979 -1.4656  0.5815
 2055TIP3   OH227655   0.987   1.943   0.520 -0.0237  0.7033 -0.2804
 2055TIP3    H127656   0.937   1.933   0.439 -1.4474  1.7224  0.4403
 2055TIP3    H227657   0.996   2.037   0.532 -2.4573  0.7395  2.2427
 2056TIP3   OH227658   2.607   2.438  11.980  0.3813  0.0603  0.2078
 2056TIP3    H127659   2.666   2.476  11.915  1.1548  0.7462  1.2795
 2056TIP3    H227660   2.521   2.476  11.960  0.8701  1.2994  0.3835
 2057TIP3   OH227661   5.427   5.017  16.612 -0.0298 -0.1207 -0.0213
 2057TIP3    H127662   5.396   5.066  16.535 -1.3291 -0.6155  0.1514
 2057TIP3    H227663   5.377   4.935  16.609  0.1109 -0.2662  1.1872
 2058TIP3   OH227664   1.517   2.805  12.139 -0.0113  0.0045  0.5773
 2058TIP3    H127665   1.585   2.873  12.137  0.9050 -0.8641  0.8413
 2058TIP3    H227666   1.460   2.830  12.211  1.4035 -0.4662  1.9399
 2059TIP3   OH227667   4.976   2.097  16.769 -1.0182  0.0109  0.1448
 2059TIP3    H127668   5.034   2.028  16.737  0.4217  0.4624  1.6507
 2059TIP3    H227669   4.890   2.075  16.732 -1.0057 -3.5310  1.8527
 2060TIP3   OH227670   3.001   6.715   3.003  0.4123 -0.0957 -0.5962
 2060TIP3    H127671   2.951   6.706   2.922 -0.4741 -2.0383  0.0953
 2060TIP3    H227672   2.983   6.634   3.051  1.2008  0.8456  1.3920
 2061TIP3   OH227673   0.970   6.075   3.132  0.2844 -0.2679 -0.2530
 2061TIP3    H127674   1.008   6.147   3.082  1.4378  0.7949  2.0131
 2061TIP3    H227675   1.005   6.085   3.220 -1.5514 -2.1096  0.7903
 2062TIP3   OH227676   2.888   2.576   4.154 -0.7956  0.1308 -0.2262
 2062TIP3    H127677   2.972   2.568   4.110  0.0937 -0.0047  1.3873
 2062TIP3    H227678   2.897   2.654   4.209 -1.4374 -0.2881  0.5074
 2063TIP3   OH227679   4.985   0.967   3.732 -0.0969  0.3775  0.3927
 2063TIP3    H127680   4.906   1.014   3.705 -0.2428  0.2411  0.5787
 2063TIP3    H227681   4.993   0.895   3.670  0.4771  1.0070 -0.2769
 2064TIP3   OH227682   1.403   5.013  13.828  0.6110 -0.1333 -0.0653
 2064TIP3    H127683   1.436   5.100  13.807 -0.7382  0.2589 -0.6907
 2064TIP3    H227684   1.333   5.029  13.892  0.5248 -0.7844  0.0085
 2065TIP3   OH227685   1.733   2.989  13.991 -0.1001  0.1553 -0.0620
 2065TIP3    H127686   1.655   3.011  14.042 -0.4831 -0.0047 -0.5753
 2065TIP3    H227687   1.805   3.033  14.037 -0.2689 -0.9054  1.2689
 2066TIP3   OH227688   0.954   0.246  17.150 -0.4918  0.4657 -0.2369
 2066TIP3    H127689   0.986   0.214  17.234  2.5576  0.4447 -1.2947
 2066TIP3    H227690   0.989   0.335  17.142 -1.2155  0.6865 -1.2297
 2067TIP3   OH227691   6.150   0.733  14.924 -0.0072  0.0050 -0.0626
 2067TIP3    H127692   6.193   0.818  14.917  1.1358 -0.5390  0.1335
 2067TIP3    H227693   6.215   0.676  14.965  0.1811 -1.6173 -2.4305
 2068TIP3   OH227694   5.033   1.309  16.694  0.5486 -0.7109  0.3153
 2068TIP3    H127695   5.088   1.328  16.770 -1.7551  1.0643  1.6753
 2068TIP3    H227696   5.083   1.341  16.619  1.7133  0.0727  1.3929
 2069TIP3   OH227697   4.672   1.495  16.754  0.8099  0.6898  0.4366
 2069TIP3    H127698   4.653   1.493  16.660  0.0891 -2.8784  0.5269
 2069TIP3    H227699   4.754   1.544  16.760  0.0174  2.5203 -1.7874
 2070TIP3   OH227700   0.216   2.606  15.199 -0.4205  0.3357 -0.3533
 2070TIP3    H127701   0.129   2.631  15.168 -0.8614  1.1248  1.4047
 2070TIP3    H227702   0.200   2.572  15.287  0.8572 -1.1541 -0.6676
 2071TIP3   OH227703   3.369   1.840  15.175  0.2807 -0.2675 -0.2353
 2071TIP3    H127704   3.462   1.818  15.179  0.0152 -1.4764 -0.3645
 2071TIP3    H227705   3.367   1.927  15.136  1.3730 -0.1338 -0.0192
 2072TIP3   OH227706   3.425   2.733   2.240 -0.6400 -0.2523 -0.3869
 2072TIP3    H127707   3.475   2.813   2.255 -0.2913 -0.3696 -0.9105
 2072TIP3    H227708   3.474   2.686   2.172  1.3253 -2.7370  2.4668
 2073TIP3   OH227709   4.083   3.635  15.168 -0.6891 -0.0924 -0.1429
 2073TIP3    H127710   4.021   3.579  15.215  1.9265 -2.0254  1.2642
 2073TIP3    H227711   4.106   3.703  15.232 -0.5464 -0.0359 -0.2543
 2074TIP3   OH227712   1.061   3.206  14.175 -0.6546  0.2002  0.1048
 2074TIP3    H127713   1.097   3.284  14.217  2.8915  0.1932 -2.4597
 2074TIP3    H227714   0.996   3.240  14.113  0.7729  1.2075 -0.9075
 2075TIP3   OH227715   2.562   0.178  14.399 -0.2481  0.1533 -0.1801
 2075TIP3    H127716   2.549   0.093  14.441  1.8539 -0.2925 -0.3462
 2075TIP3    H227717   2.473   0.214  14.390 -0.9604 -0.4689  3.0358
 2076TIP3   OH227718   3.781   1.001  16.699 -0.6663  0.3583  0.1316
 2076TIP3    H127719   3.798   1.011  16.605 -0.8825  1.7203  0.2170
 2076TIP3    H227720   3.863   1.027  16.741 -0.7126  0.1704  0.3407
 2077TIP3   OH227721   4.924   6.639   1.546 -0.2756  0.0692 -0.5447
 2077TIP3    H127722   4.984   6.565   1.539 -0.7576 -0.4608  0.5237
 2077TIP3    H227723   4.858   6.609   1.609 -2.2549  0.2303 -2.4174
 2078TIP3   OH227724   5.817   6.601  16.213  0.0757 -0.0849  0.0997
 2078TIP3    H127725   5.835   6.510  16.188 -0.0383 -0.4006  1.1191
 2078TIP3    H227726   5.742   6.596  16.271  2.6674  0.0790  3.8635
 2079TIP3   OH227727   1.995   4.208  14.496 -0.4668  0.3902 -0.1890
 2079TIP3    H127728   1.999   4.161  14.579  0.0258  0.0584 -0.3910
 2079TIP3    H227729   2.016   4.299  14.518  1.7354 -0.0549 -0.2082
 2080TIP3   OH227730   6.314   3.307  16.552 -0.3716  0.8704 -0.3962
 2080TIP3    H127731   6.298   3.273  16.464  1.4425  0.8872 -0.7795
 2080TIP3    H227732   6.350   3.394  16.538 -0.3353  0.9856  0.3695
 2081TIP3   OH227733   4.863   1.375  14.756 -0.0168 -0.0236 -0.4443
 2081TIP3    H127734   4.787   1.403  14.706  0.2647  4.4770  1.1871
 2081TIP3    H227735   4.829   1.310  14.818 -2.0369  0.3258 -1.1228
 2082TIP3   OH227736   2.167   0.528   0.832  0.1256  0.1150  0.3059
 2082TIP3    H127737   2.122   0.542   0.915 -0.2127  0.2187  0.1070
 2082TIP3    H227738   2.258   0.553   0.850 -0.1262  1.0050  0.4069
 2083TIP3   OH227739   0.030   2.689   2.973  0.2361 -0.1482 -0.3579
 2083TIP3    H127740   0.027   2.765   2.914 -1.8501 -1.4995 -2.1696
 2083TIP3    H227741   0.054   2.725   3.058  2.4419  2.0612 -1.7649
 2084TIP3   OH227742   5.695   3.182  15.121  1.3465 -0.0062 -0.4174
 2084TIP3    H127743   5.787   3.196  15.145  0.9000  0.5514  1.1124
 2084TIP3    H227744   5.670   3.104  15.170  0.6200  0.6996  0.3758
 2085TIP3   OH227745   3.588   1.187   3.753 -0.1806 -0.5082  0.4218
 2085TIP3    H127746   3.499   1.188   3.718 -1.3436 -2.2942  2.9935
 2085TIP3    H227747   3.606   1.094   3.768  1.1207 -0.0024  2.2582
 2086TIP3   OH227748   3.253   4.022  11.912 -0.0566 -0.6167  0.0520
 2086TIP3    H127749   3.236   3.967  11.835  2.4214  0.1570 -1.1460
 2086TIP3    H227750   3.210   4.105  11.892 -0.6989 -0.9152  0.1904
 2087TIP3   OH227751   1.607   3.643   4.400  0.0161 -0.1795  0.1792
 2087TIP3    H127752   1.685   3.671   4.449  0.5760 -0.9353 -0.2725
 2087TIP3    H227753   1.534   3.665   4.458  0.5969 -0.0277  0.8698
 2088TIP3   OH227754   3.967   2.831   4.455  0.0785 -0.0867  0.7086
 2088TIP3    H127755   3.885   2.782   4.450  0.0579 -0.0940  1.1104
 2088TIP3    H227756   3.949   2.914   4.411  0.4272 -0.8589 -0.9588
 2089TIP3   OH227757   5.179   1.173   1.304 -0.3674 -0.1624  0.0430
 2089TIP3    H127758   5.153   1.116   1.376 -1.1319 -1.0850 -0.9405
 2089TIP3    H227759   5.099   1.186   1.254  0.1905  0.3412 -0.7333
 2090TIP3   OH227760   2.852   1.523  12.292  0.0582 -0.1013  0.0929
 2090TIP3    H127761   2.778   1.490  12.240 -1.3253  0.9862  1.2725
 2090TIP3    H227762   2.849   1.471  12.372 -0.2424  0.8036  0.6801
 2091TIP3   OH227763   3.699   5.034   4.161  0.5762  0.3127  0.7824
 2091TIP3    H127764   3.671   5.044   4.070  0.2125  0.2912  0.8888
 2091TIP3    H227765   3.783   5.080   4.166  0.1005  1.2165  0.6813
 2092TIP3   OH227766   4.938   2.876  10.939 -0.3244 -0.6315  0.5435
 2092TIP3    H127767   4.927   2.968  10.918 -1.0767 -0.6486  0.8036
 2092TIP3    H227768   5.031   2.858  10.926 -0.1088  0.2493  0.8325
 2093TIP3   OH227769   2.439   3.363  13.204  0.1872  0.3034 -0.2197
 2093TIP3    H127770   2.496   3.294  13.168 -0.5231  0.0724 -0.9251
 2093TIP3    H227771   2.431   3.426  13.132 -1.0739 -0.0543 -0.4157
 2094TIP3   OH227772   6.287   4.400   3.672 -0.7182 -0.0511  0.3749
 2094TIP3    H127773   6.360   4.450   3.635  0.5234 -1.0147  1.4262
 2094TIP3    H227774   6.230   4.381   3.597 -0.8299  2.2060 -0.1776
 2095TIP3   OH227775   3.540   4.980  13.153  0.2848 -0.2670  0.9001
 2095TIP3    H127776   3.492   4.987  13.235  1.0732  0.7340  1.2929
 2095TIP3    H227777   3.611   5.044  13.161  1.4872 -1.4565  0.2066
 2096TIP3   OH227778   3.094   6.571   5.043  0.1082  0.2101 -0.1890
 2096TIP3    H127779   3.064   6.594   5.130 -0.0349  0.2042 -0.2375
 2096TIP3    H227780   3.180   6.531   5.057 -0.7482 -1.6053  0.1432
 2097TIP3   OH227781   2.579   3.901  13.062  0.6961 -0.3284 -0.0491
 2097TIP3    H127782   2.548   3.992  13.059  0.1446 -0.5170 -0.2630
 2097TIP3    H227783   2.499   3.849  13.076  0.9483 -0.8067 -0.3455
 2098TIP3   OH227784   2.762   0.732   5.516  0.0900  0.1007  0.6759
 2098TIP3    H127785   2.756   0.808   5.574 -1.7237 -0.4344  1.2552
 2098TIP3    H227786   2.856   0.720   5.502  0.4893  1.3835  1.9958
 2099TIP3   OH227787   2.655   4.258   2.943  0.3640  0.3044  0.2283
 2099TIP3    H127788   2.655   4.334   3.000 -0.2600  0.4356  0.0618
 2099TIP3    H227789   2.585   4.275   2.880 -1.5584 -1.5687  1.7455
 2100TIP3   OH227790   1.540   1.537  15.165  0.1219 -0.0577 -0.1757
 2100TIP3    H127791   1.622   1.587  15.159 -0.2468  0.5174 -0.4879
 2100TIP3    H227792   1.513   1.526  15.074  0.3702 -1.1263 -0.1310
 2101TIP3   OH227793   2.626   3.107   0.978 -0.5183 -0.1013  0.3168
 2101TIP3    H127794   2.620   3.013   0.961  1.2020 -0.0868 -0.7166
 2101TIP3    H227795   2.579   3.120   1.060  1.2668 -2.3054  1.8346
 2102TIP3   OH227796   5.621   0.579   1.450  0.1530 -0.0463  0.6240
 2102TIP3    H127797   5.546   0.523   1.473 -1.0893  1.4931  0.4657
 2102TIP3    H227798   5.688   0.517   1.420 -1.7561 -1.3812 -1.1995
 2103TIP3   OH227799   3.714   5.666  11.271 -0.5588 -0.4672  0.1821
 2103TIP3    H127800   3.790   5.657  11.213 -0.3069 -2.1303  0.7170
 2103TIP3    H227801   3.648   5.711  11.217  1.7652  4.1896  0.7074
 2104TIP3   OH227802   4.030   2.825  12.082 -0.4608 -0.2041 -0.2523
 2104TIP3    H127803   4.089   2.828  12.157 -0.7147 -0.1816 -0.0519
 2104TIP3    H227804   4.004   2.733  12.076 -0.3761 -0.2205 -0.3617
 2105TIP3   OH227805   1.116   3.701  11.646  0.0572 -0.2976 -0.2020
 2105TIP3    H127806   1.098   3.763  11.576  1.1852 -2.0434 -2.1770
 2105TIP3    H227807   1.192   3.736  11.691 -0.3394  0.5708 -0.1955
 2106TIP3   OH227808   4.843   6.558  13.478 -0.1834  0.3580 -0.0768
 2106TIP3    H127809   4.817   6.516  13.396  0.6559  0.4764 -0.4144
 2106TIP3    H227810   4.872   6.646  13.452 -0.3617  0.5639  0.4109
 2107TIP3   OH227811   1.527   1.871  16.638 -0.0006  0.1326  0.4637
 2107TIP3    H127812   1.551   1.957  16.601 -0.5513  0.1854  0.2242
 2107TIP3    H227813   1.448   1.846  16.591  0.3475 -0.6675  0.2984
 2108TIP3   OH227814   3.691   0.247  16.747 -0.3353 -0.3180 -0.2155
 2108TIP3    H127815   3.757   0.218  16.810  0.0084 -0.5268 -0.6695
 2108TIP3    H227816   3.713   0.338  16.729 -1.8018  0.4855  1.7104
 2109TIP3   OH227817   3.780   1.563   5.065 -0.5347 -0.4853 -0.1958
 2109TIP3    H127818   3.744   1.583   5.151 -0.5549  2.0584 -0.7322
 2109TIP3    H227819   3.863   1.610   5.062  0.5335 -2.3060 -0.8058
 2110TIP3   OH227820   4.747   4.638   2.246 -0.2613  0.1201 -0.5521
 2110TIP3    H127821   4.780   4.571   2.305 -1.3572  0.2773  0.2580
 2110TIP3    H227822   4.666   4.668   2.285 -0.4785  0.9849 -1.5947
 2111TIP3   OH227823   2.225   6.055   4.969  0.2457 -0.0380 -0.3103
 2111TIP3    H127824   2.308   6.076   5.012  0.9976 -1.1569 -1.1556
 2111TIP3    H227825   2.235   6.089   4.880 -0.0217 -0.5810 -0.5503
 2112TIP3   OH227826   4.338   3.174  13.643 -1.0314  0.3128 -0.2814
 2112TIP3    H127827   4.410   3.224  13.604 -0.8022  1.2067  1.1804
 2112TIP3    H227828   4.260   3.224  13.622 -0.9205  0.7317  0.2685
 2113TIP3   OH227829   1.398   6.806   2.495  0.2239  0.3029 -0.1440
 2113TIP3    H127830   1.490   6.780   2.504  0.4514  0.8256 -0.8839
 2113TIP3    H227831   1.401   6.889   2.448 -0.6235  0.3875 -0.0623
 2114TIP3   OH227832   2.951   1.264  14.404 -0.9091  0.2848  0.4560
 2114TIP3    H127833   2.987   1.288  14.318 -1.7183 -1.8775 -0.5620
 2114TIP3    H227834   3.021   1.216  14.446 -1.3366 -0.8191 -0.0553
 2115TIP3   OH227835   4.663   3.873  16.739 -0.2198  0.0718  1.0583
 2115TIP3    H127836   4.740   3.836  16.781  1.3549  0.4959 -1.2468
 2115TIP3    H227837   4.691   3.959  16.708 -1.6912  0.3361  0.3379
 2116TIP3   OH227838   3.960   1.654  13.511 -0.5074  0.4068  0.5885
 2116TIP3    H127839   3.916   1.622  13.432  0.8520  2.0786 -0.9170
 2116TIP3    H227840   4.021   1.585  13.534 -1.9363 -0.7481  1.1195
 2117TIP3   OH227841   1.108   6.764  12.843  0.3180  0.0795  0.1767
 2117TIP3    H127842   1.066   6.842  12.878 -2.3727 -0.8747 -0.6333
 2117TIP3    H227843   1.096   6.771  12.748  0.0408 -1.2662  0.0899
 2118TIP3   OH227844   6.045   4.665   2.870 -0.1672  0.1951  0.5777
 2118TIP3    H127845   6.001   4.602   2.927 -0.9862  1.4036  1.3308
 2118TIP3    H227846   5.979   4.732   2.854  0.9379  1.2862  0.4895
 2119TIP3   OH227847   4.355   2.577  16.483 -0.0621  0.4003  0.1168
 2119TIP3    H127848   4.314   2.518  16.547 -0.3485  0.6619  0.1792
 2119TIP3    H227849   4.283   2.634  16.454 -0.1896 -0.4102 -1.2521
 2120TIP3   OH227850   1.133   4.801   5.046  0.0726 -0.4080 -0.1643
 2120TIP3    H127851   1.038   4.812   5.060 -0.1274  0.4821 -1.9678
 2120TIP3    H227852   1.160   4.739   5.114 -1.4783  0.6228  1.4948
 2121TIP3   OH227853   1.905   0.947  12.496 -0.2462 -0.0716 -0.3275
 2121TIP3    H127854   1.921   1.010  12.425  0.5805  0.1115  0.0090
 2121TIP3    H227855   1.973   0.967  12.561 -0.6660 -0.5878  0.2791
 2122TIP3   OH227856   0.386   4.167  16.607 -0.5625 -0.4258  0.1641
 2122TIP3    H127857   0.455   4.219  16.565 -1.3779 -0.1926 -0.9216
 2122TIP3    H227858   0.306   4.192  16.560 -1.3793 -0.7384  1.3577
 2123TIP3   OH227859   2.496   4.784   0.530 -0.4901 -0.1115 -0.3320
 2123TIP3    H127860   2.436   4.711   0.516  1.0223 -1.3743 -0.4631
 2123TIP3    H227861   2.582   4.744   0.536  0.2405  1.5233  1.0781
 2124TIP3   OH227862   4.299   3.293   0.793  0.6494 -0.0146 -0.1238
 2124TIP3    H127863   4.316   3.373   0.744  1.3964 -0.2842 -0.3340
 2124TIP3    H227864   4.353   3.301   0.872  0.9541 -0.4294 -0.2857
 2125TIP3   OH227865   3.941   2.110   2.467 -0.0803 -0.0037 -0.3028
 2125TIP3    H127866   3.958   2.204   2.456  0.2676  0.0180  0.3877
 2125TIP3    H227867   4.028   2.071   2.475 -0.1739 -0.5431 -1.7336
 2126TIP3   OH227868   2.378   1.779  12.286 -0.0665  0.2844 -0.4274
 2126TIP3    H127869   2.469   1.796  12.262 -0.4151  1.1102 -1.2145
 2126TIP3    H227870   2.329   1.792  12.205 -0.9215  0.0844  0.0474
 2127TIP3   OH227871   3.735   2.025  14.186  0.2297  0.5755  0.0378
 2127TIP3    H127872   3.726   1.985  14.273 -0.8097 -0.1860 -0.3944
 2127TIP3    H227873   3.792   1.965  14.138  1.0227  1.1339  0.2535
 2128TIP3   OH227874   6.780   4.928  11.228 -0.1003  0.0422 -0.1604
 2128TIP3    H127875   6.779   4.970  11.142  3.0075  0.7981  0.0387
 2128TIP3    H227876   6.704   4.869  11.228  0.6889 -1.2280 -4.0602
 2129TIP3   OH227877   4.426   6.208   3.159  0.5905  0.5627 -0.4892
 2129TIP3    H127878   4.473   6.162   3.228 -0.8122  0.3529  0.3834
 2129TIP3    H227879   4.477   6.287   3.142  0.9780  0.5896  0.7664
 2130TIP3   OH227880   2.755   1.680   1.237  0.0895 -0.2216 -0.4361
 2130TIP3    H127881   2.733   1.752   1.179  0.5358  0.3960  0.1428
 2130TIP3    H227882   2.737   1.601   1.186 -1.6244  0.2697 -0.6233
 2131TIP3   OH227883   1.563   3.803  11.874 -0.2368  0.6966  0.2336
 2131TIP3    H127884   1.604   3.797  11.960 -0.0389  2.5650  0.3233
 2131TIP3    H227885   1.569   3.896  11.851 -0.1376  0.2349 -1.8721
 2132TIP3   OH227886   4.054   5.405   0.920  0.3683  0.5861  0.5032
 2132TIP3    H127887   4.079   5.490   0.885 -0.3497  1.1176  1.2442
 2132TIP3    H227888   3.995   5.368   0.854  0.3201  0.8561  0.3962
 2133TIP3   OH227889   3.679   3.523  12.121  0.1136 -0.5224  0.0020
 2133TIP3    H127890   3.657   3.608  12.081 -0.8160 -0.6702  0.1628
 2133TIP3    H227891   3.637   3.459  12.064 -0.4053 -0.7886  0.6714
 2134TIP3   OH227892   0.415   5.505  13.191  0.3869 -0.7559 -0.0523
 2134TIP3    H127893   0.484   5.502  13.125  0.3599  1.4874 -0.2725
 2134TIP3    H227894   0.417   5.595  13.225 -2.7718 -0.3764 -0.4932
 2135TIP3   OH227895   1.386   0.480  13.873 -0.6900 -0.7594  0.0962
 2135TIP3    H127896   1.346   0.505  13.956 -0.5634  0.0841 -0.0844
 2135TIP3    H227897   1.336   0.404  13.844 -2.0896  0.1981 -0.0652
 2136TIP3   OH227898   0.117   5.910  14.453  0.0230 -0.1958  0.0013
 2136TIP3    H127899   0.113   5.972  14.525  1.9592 -0.8128  0.7283
 2136TIP3    H227900   0.043   5.851  14.468 -0.5167  0.6103  0.5817
 2137TIP3   OH227901   0.204   6.113  11.266 -0.6106  0.2897 -0.1077
 2137TIP3    H127902   0.244   6.200  11.265 -1.2209  0.5736 -0.4491
 2137TIP3    H227903   0.274   6.053  11.241  0.0381  0.5817  0.9798
 2138TIP3   OH227904   1.325   3.975   5.051  0.3403  0.6908 -0.0432
 2138TIP3    H127905   1.233   3.953   5.039  0.3970  0.0802  0.6247
 2138TIP3    H227906   1.327   4.029   5.130  0.6967 -0.3396  0.6707
 2139TIP3   OH227907   1.019   0.117  13.918  0.2028  0.0058 -0.4273
 2139TIP3    H127908   1.012   0.025  13.890 -1.3653  0.1382 -0.5582
 2139TIP3    H227909   0.932   0.153  13.903  0.8009  1.5270 -0.3598
 2140TIP3   OH227910   3.904   6.190  12.712 -0.2761 -0.8646  0.4871
 2140TIP3    H127911   3.841   6.120  12.693  0.2536 -1.0798 -0.5447
 2140TIP3    H227912   3.867   6.268  12.670  0.7176 -1.2606 -1.1931
 2141TIP3   OH227913   0.672   0.948  12.953 -0.5475 -0.1865 -0.1754
 2141TIP3    H127914   0.742   1.010  12.933 -2.1053  1.2551 -1.5212
 2141TIP3    H227915   0.653   0.962  13.045 -0.7371  1.2727 -0.3990
 2142TIP3   OH227916   5.261   4.131   0.230 -0.3939 -0.1510 -0.1800
 2142TIP3    H127917   5.252   4.115   0.324  0.4060 -0.1759 -0.0975
 2142TIP3    H227918   5.274   4.044   0.192  0.0345 -0.0731 -0.2166
 2143TIP3   OH227919   0.194   2.777   0.547 -0.8330  0.6328 -0.1346
 2143TIP3    H127920   0.142   2.857   0.555 -0.3129  1.0200 -0.5338
 2143TIP3    H227921   0.143   2.710   0.593 -0.7795  1.4310  1.1452
 2144TIP3   OH227922   2.780   5.080   0.557  0.2981  0.0257  0.0562
 2144TIP3    H127923   2.789   5.161   0.607  0.7511 -0.0273  0.0644
 2144TIP3    H227924   2.728   5.023   0.613 -3.0107  1.4446 -1.2944
 2145TIP3   OH227925   6.043   5.197   4.376 -0.1899 -0.3598 -0.0140
 2145TIP3    H127926   5.955   5.161   4.392 -0.1508 -0.3910  0.1379
 2145TIP3    H227927   6.044   5.279   4.426  0.4561 -1.1910  1.4270
 2146TIP3   OH227928   6.558   6.730  15.885 -0.0804 -0.2732  0.8989
 2146TIP3    H127929   6.619   6.786  15.933  0.7533 -0.5923  0.2344
 2146TIP3    H227930   6.475   6.740  15.931  0.4254  0.3191  1.7070
 2147TIP3   OH227931   2.460   4.599  16.377  0.4631  0.0580 -0.1218
 2147TIP3    H127932   2.496   4.517  16.344  1.5793  0.7650 -0.7227
 2147TIP3    H227933   2.422   4.641  16.300 -1.1387 -0.3767  0.3816
 2148TIP3   OH227934   1.359   2.782  12.864  0.1049 -0.3448  0.1756
 2148TIP3    H127935   1.435   2.744  12.907  0.0231  0.2080  0.8226
 2148TIP3    H227936   1.326   2.712  12.807 -0.0534 -1.2514  1.3471
 2149TIP3   OH227937   4.366   6.496  10.483 -0.1443  0.2397  0.2574
 2149TIP3    H127938   4.324   6.476  10.567  0.2366 -0.8613  0.2083
 2149TIP3    H227939   4.457   6.470  10.495  0.1872  1.1967 -0.1203
 2150TIP3   OH227940   0.077   4.347   3.324 -0.4196 -0.4080 -0.1816
 2150TIP3    H127941   0.164   4.388   3.324 -1.8402  2.9068 -1.2282
 2150TIP3    H227942   0.089   4.267   3.273  1.9281  0.2406 -0.7785
 2151TIP3   OH227943   6.399   2.687   3.547 -0.3574 -0.7601  0.3842
 2151TIP3    H127944   6.413   2.648   3.461 -0.5715  2.0554 -1.0488
 2151TIP3    H227945   6.451   2.633   3.606  2.8300 -0.7460 -2.0919
 2152TIP3   OH227946   5.934   6.773  11.934 -0.4234 -0.4170 -0.2273
 2152TIP3    H127947   5.951   6.695  11.881 -0.1892 -1.2289  1.0048
 2152TIP3    H227948   5.851   6.754  11.978 -0.7323  0.3456 -0.4669
 2153TIP3   OH227949   0.804   2.584  12.965  0.2532  0.0016  0.8184
 2153TIP3    H127950   0.875   2.562  13.025  0.4073  0.4766  0.8124
 2153TIP3    H227951   0.844   2.582  12.878  0.4877  1.1617  0.8851
 2154TIP3   OH227952   2.750   5.128   4.174 -0.2410  0.0324 -0.1017
 2154TIP3    H127953   2.737   5.054   4.233  1.3718  0.2935  0.6421
 2154TIP3    H227954   2.823   5.100   4.118 -0.0249  0.8162 -0.2175
 2155TIP3   OH227955   4.520   0.636   4.847  0.3600  0.0724  0.6554
 2155TIP3    H127956   4.449   0.631   4.783  0.2613 -0.8064  0.8282
 2155TIP3    H227957   4.586   0.692   4.806 -1.2492  2.5797  1.3013
 2156TIP3   OH227958   0.889   0.273  14.575  0.6884 -0.7856 -0.1557
 2156TIP3    H127959   0.802   0.304  14.600  1.7782  0.6250  2.2457
 2156TIP3    H227960   0.893   0.288  14.481 -1.6439 -0.9266 -0.3549
 2157TIP3   OH227961   0.884   3.672  15.182 -0.0752 -0.2499  0.0981
 2157TIP3    H127962   0.818   3.604  15.197 -0.1520 -0.9633 -2.9397
 2157TIP3    H227963   0.832   3.753  15.173 -0.2154 -0.2300  0.9824
 2158TIP3   OH227964   0.614   6.694  14.861  0.4620 -0.0870 -0.6789
 2158TIP3    H127965   0.539   6.738  14.820  0.0983 -0.8566 -0.8785
 2158TIP3    H227966   0.639   6.750  14.934 -2.5448 -1.4570  1.6086
 2159TIP3   OH227967   4.326   4.008  10.834  0.1644  0.3243  0.1973
 2159TIP3    H127968   4.292   4.057  10.760  0.4536  0.0844 -0.0979
 2159TIP3    H227969   4.273   3.928  10.836 -0.4792  0.7548  0.8346
 2160TIP3   OH227970   5.561   3.173  10.902 -0.2143 -0.2525  0.7802
 2160TIP3    H127971   5.477   3.127  10.908 -0.5366  0.1607 -0.3261
 2160TIP3    H227972   5.569   3.195  10.809  0.2214  1.3941  1.1887
 2161TIP3   OH227973   0.267   4.180  10.514 -0.5419  0.4686 -0.3108
 2161TIP3    H127974   0.310   4.265  10.525  0.4902 -0.2981  2.3583
 2161TIP3    H227975   0.330   4.117  10.547 -2.0786 -1.1602 -0.3513
 2162TIP3   OH227976   1.456   0.675   3.903 -0.5333 -0.1686  0.3863
 2162TIP3    H127977   1.432   0.639   3.989 -0.7657  0.9764  0.8198
 2162TIP3    H227978   1.512   0.608   3.864  0.7322 -0.1279  2.0216
 2163TIP3   OH227979   2.479   0.427   2.654  0.1862  0.2278  0.7430
 2163TIP3    H127980   2.487   0.386   2.740  1.5331 -1.4275 -0.1219
 2163TIP3    H227981   2.569   0.434   2.622 -0.3157  0.5214 -0.6675
 2164TIP3   OH227982   2.102   4.541   3.255  0.0245 -0.4499 -0.2590
 2164TIP3    H127983   2.086   4.613   3.316  1.2636 -0.3360 -0.0305
 2164TIP3    H227984   2.021   4.489   3.256 -0.2952  0.0459  0.7998
 2165TIP3   OH227985   5.304   3.196   3.166 -0.4121 -0.0133 -0.4338
 2165TIP3    H127986   5.333   3.225   3.080 -0.6410 -1.5847 -1.0612
 2165TIP3    H227987   5.284   3.103   3.156 -1.4989  0.0119  1.0433
 2166TIP3   OH227988   3.822   1.173  11.367  0.1638  0.6186  0.3370
 2166TIP3    H127989   3.729   1.183  11.390 -0.1441  0.4191 -0.7680
 2166TIP3    H227990   3.827   1.201  11.276  0.8671 -1.0214 -0.1560
 2167TIP3   OH227991   3.603   2.312  17.185 -0.5383  0.6453  0.1498
 2167TIP3    H127992   3.666   2.239  17.177 -1.1740 -0.0701  1.3288
 2167TIP3    H227993   3.641   2.382  17.132 -0.3512 -0.8222 -1.7813
 2168TIP3   OH227994   0.826   3.108  16.973  0.0230 -0.2093  0.6039
 2168TIP3    H127995   0.870   3.153  17.046  0.1430  0.4955  0.1078
 2168TIP3    H227996   0.826   3.015  16.998  1.6016 -0.1993  0.7225
 2169TIP3   OH227997   5.141   4.747  16.736  0.2383  0.3057 -0.6024
 2169TIP3    H127998   5.208   4.792  16.787  1.9276 -2.5918 -0.0537
 2169TIP3    H227999   5.069   4.810  16.731  0.8365  1.6262  3.4002
 2170TIP3   OH228000   3.433   5.993  14.835  0.1736  0.5262 -0.5281
 2170TIP3    H128001   3.442   6.034  14.749 -0.1793 -0.4177 -1.0383
 2170TIP3    H228002   3.522   5.965  14.857  0.4520  1.7221 -0.0794
 2171TIP3   OH228003   1.205   3.643  12.362  0.2522  0.4943  0.0364
 2171TIP3    H128004   1.222   3.668  12.271 -0.0740  1.0436  0.1232
 2171TIP3    H228005   1.133   3.699  12.389 -0.7638 -0.7905  0.1285
 2172TIP3   OH228006   5.997   2.540  14.437 -0.0300 -0.8825 -0.0266
 2172TIP3    H128007   5.908   2.556  14.466  0.6195  0.1360  1.5430
 2172TIP3    H228008   5.999   2.448  14.413 -1.5020 -0.9030 -0.1128
 2173TIP3   OH228009   3.738   3.260  14.573 -0.6277 -0.4541  0.1397
 2173TIP3    H128010   3.797   3.322  14.617 -0.2695 -1.2160  0.7711
 2173TIP3    H228011   3.769   3.256  14.483  0.9160 -1.5534  0.6823
 2174TIP3   OH228012   2.996   2.600  15.527  0.2095  0.1270 -0.1510
 2174TIP3    H128013   3.075   2.627  15.479  0.4608  0.6798  0.5405
 2174TIP3    H228014   2.934   2.672  15.513  1.1248  1.5192  2.2760
 2175TIP3   OH228015   6.225   3.301  12.563 -0.0932  0.1628  0.3589
 2175TIP3    H128016   6.228   3.391  12.595 -0.7039  0.7104 -1.0174
 2175TIP3    H228017   6.140   3.268  12.590  0.4615 -0.3023  1.5817
 2176TIP3   OH228018   3.602   0.409   5.146 -0.3044  0.2757  0.1726
 2176TIP3    H128019   3.570   0.320   5.129  1.2218 -0.3211  0.2952
 2176TIP3    H228020   3.672   0.422   5.082 -1.1480  1.7758 -0.4920
 2177TIP3   OH228021   1.380   2.510   6.402 -0.2578  0.0165  0.6337
 2177TIP3    H128022   1.437   2.434   6.388  1.6592  1.4849  0.0416
 2177TIP3    H228023   1.297   2.485   6.360  0.7528 -1.2568 -0.7360
 2178TIP3   OH228024   2.344   0.136   1.662 -0.4045  0.5631  0.4213
 2178TIP3    H128025   2.336   0.232   1.663 -0.3901  0.7137 -2.5781
 2178TIP3    H228026   2.349   0.111   1.754  1.3913  3.6043  1.3208
 2179TIP3   OH228027   4.651   0.756   1.376  0.0763  0.1462  0.0708
 2179TIP3    H128028   4.735   0.797   1.358 -0.7215  2.2949  0.9798
 2179TIP3    H228029   4.660   0.722   1.465  0.0685  0.0680  0.0425
 2180TIP3   OH228030   1.109   2.466  11.684 -0.3289 -0.7704  1.1175
 2180TIP3    H128031   1.079   2.507  11.764 -0.6739 -0.6642  0.9380
 2180TIP3    H228032   1.039   2.404  11.661 -1.1480  0.5466 -0.1169
 2181TIP3   OH228033   4.426   5.373  17.048  0.8753  0.0697 -0.0912
 2181TIP3    H128034   4.386   5.313  17.110 -1.2852  0.9348 -0.5828
 2181TIP3    H228035   4.404   5.338  16.962 -0.9646  1.8035 -0.4023
 2182TIP3   OH228036   2.064   0.542  15.391  0.2761  0.0217 -0.1416
 2182TIP3    H128037   2.085   0.589  15.310 -1.7544  0.5701 -0.3942
 2182TIP3    H228038   1.991   0.485  15.368 -1.2717  1.1794  1.5766
 2183TIP3   OH228039   6.676   0.218  15.626 -0.2489 -0.4816 -0.5365
 2183TIP3    H128040   6.768   0.214  15.652 -1.1273 -1.0434  3.0057
 2183TIP3    H228041   6.645   0.128  15.636 -1.6707  0.1024  0.6412
 2184TIP3   OH228042   4.565   0.496   5.091  0.4219  0.0513 -0.0456
 2184TIP3    H128043   4.568   0.541   5.007  0.5081 -1.9511 -1.1707
 2184TIP3    H228044   4.645   0.523   5.136  1.2518 -0.1885 -1.3417
 2185TIP3   OH228045   1.565   1.986  11.811 -0.3574  0.1413 -0.1808
 2185TIP3    H128046   1.536   1.933  11.885  0.0419  1.0968  0.6684
 2185TIP3    H228047   1.501   1.968  11.742 -0.7602 -0.7176  0.4056
 2186TIP3   OH228048   5.084   1.526   5.028  0.7800  0.1795  0.3455
 2186TIP3    H128049   5.134   1.476   5.092 -2.2898 -1.8150  1.4052
 2186TIP3    H228050   5.070   1.466   4.955 -0.8126  0.3277  0.4978
 2187TIP3   OH228051   5.685   5.550   5.343 -0.3828 -0.1754 -0.4783
 2187TIP3    H128052   5.740   5.478   5.312 -0.0080 -0.1119  0.0263
 2187TIP3    H228053   5.606   5.545   5.289 -0.5633 -1.2518 -0.1471
 2188TIP3   OH228054   6.779   5.072   4.354 -0.0653  0.0423 -0.0340
 2188TIP3    H128055   6.845   5.026   4.407  0.3041 -0.5061 -0.9496
 2188TIP3    H228056   6.714   5.005   4.334 -1.0094  0.6181  0.9923
 2189TIP3   OH228057   2.257   1.725  11.817 -0.6113 -0.4425  0.0424
 2189TIP3    H128058   2.334   1.670  11.833 -1.0767 -0.9325  0.6536
 2189TIP3    H228059   2.275   1.767  11.733  1.5170  1.4887  1.3112
 2190TIP3   OH228060   0.689   4.575  12.751  0.0962 -0.1411  0.1233
 2190TIP3    H128061   0.634   4.504  12.784  2.6354 -2.0673  0.5623
 2190TIP3    H228062   0.732   4.610  12.829  0.6174  0.3014 -0.3583
 2191TIP3   OH228063   4.052   6.141  13.648 -0.0112  0.0886 -0.5571
 2191TIP3    H128064   4.030   6.051  13.621  1.0483 -0.7105  1.0889
 2191TIP3    H228065   4.139   6.156  13.613  0.7435 -0.3993  1.0132
 2192TIP3   OH228066   5.810   4.685  12.397 -0.0988  0.1377 -0.1459
 2192TIP3    H128067   5.898   4.711  12.425  0.0671 -0.0105 -0.5184
 2192TIP3    H228068   5.768   4.653  12.476 -0.4780  1.9514  0.4400
 2193TIP3   OH228069   2.797   0.111   1.417  0.0750 -0.0397 -0.6722
 2193TIP3    H128070   2.854   0.034   1.407  0.9347  0.5611 -0.5316
 2193TIP3    H228071   2.834   0.159   1.491 -1.1674 -0.0901  0.0070
 2194TIP3   OH228072   5.520   0.757  12.959  0.1251  0.3655 -0.2932
 2194TIP3    H128073   5.441   0.711  12.929 -0.3296  1.0612 -0.1937
 2194TIP3    H228074   5.525   0.835  12.904  1.0529  0.0629 -0.6558
 2195TIP3   OH228075   3.425   3.413   4.773 -0.4137  0.3262 -0.0106
 2195TIP3    H128076   3.479   3.336   4.757  0.0458  0.4085  1.0454
 2195TIP3    H228077   3.470   3.484   4.726  1.7636  0.8874  2.6642
 2196TIP3   OH228078   0.598   3.587  12.656  0.6831  0.1777 -0.3085
 2196TIP3    H128079   0.547   3.613  12.733  1.3032  1.8437 -0.4111
 2196TIP3    H228080   0.598   3.491  12.658  0.9769  0.1689  1.9716
 2197TIP3   OH228081   3.088   6.363  11.480  0.0472 -1.0514  0.3626
 2197TIP3    H128082   3.079   6.309  11.558  0.8239 -1.8184 -0.0642
 2197TIP3    H228083   3.075   6.453  11.512  0.8526 -1.3023  1.4731
 2198TIP3   OH228084   0.198   4.364   1.424 -0.5494 -0.1796  0.4107
 2198TIP3    H128085   0.233   4.437   1.475  0.1891  1.2150 -1.9346
 2198TIP3    H228086   0.104   4.381   1.419 -0.4088  0.5223  0.0448
 2199TIP3   OH228087   3.281   2.762   2.541  0.1933 -0.1680  0.4339
 2199TIP3    H128088   3.291   2.854   2.567 -1.5132 -0.2184  1.4211
 2199TIP3    H228089   3.356   2.718   2.582  1.3837  0.8475 -0.5664
 2200TIP3   OH228090   3.869   6.626   4.024 -0.0971 -0.4997  0.2958
 2200TIP3    H128091   3.918   6.609   4.105  1.7110 -1.2976 -0.8971
 2200TIP3    H228092   3.863   6.540   3.981 -0.6920 -0.0260 -0.6094
 2201TIP3   OH228093   5.343   3.476   1.612 -0.1408 -0.0218  0.3853
 2201TIP3    H128094   5.316   3.558   1.654 -0.9410 -0.7577  1.3601
 2201TIP3    H228095   5.279   3.412   1.642  0.2043 -0.9177 -0.7323
 2202TIP3   OH228096   3.932   1.155  14.471  0.2449 -0.0287 -0.1684
 2202TIP3    H128097   4.023   1.131  14.493  0.3310 -0.7068 -1.1961
 2202TIP3    H228098   3.937   1.190  14.383 -0.8938 -3.1457 -1.6188
 2203TIP3   OH228099   0.484   5.427   0.515 -0.1032  0.4937 -1.0775
 2203TIP3    H128100   0.432   5.351   0.543 -0.2797  1.1764  0.5383
 2203TIP3    H228101   0.571   5.392   0.498  0.2883  0.1496  1.3112
 2204TIP3   OH228102   5.673   6.554   2.933 -0.9448  0.2874  0.5228
 2204TIP3    H128103   5.637   6.551   2.844 -0.6002 -2.6990  0.3885
 2204TIP3    H228104   5.736   6.627   2.930  0.6737 -1.0414 -2.4066
 2205TIP3   OH228105   2.026   1.646   4.799  0.7042  0.1272 -0.1944
 2205TIP3    H128106   2.061   1.574   4.852  0.1217 -0.7399 -0.9578
 2205TIP3    H228107   1.942   1.614   4.767 -0.0068  1.5210  0.2111
 2206TIP3   OH228108   0.602   4.535   4.796 -0.5801 -0.3720  0.7845
 2206TIP3    H128109   0.517   4.565   4.828 -0.7094 -0.9203  0.9665
 2206TIP3    H228110   0.609   4.571   4.708 -0.7576  0.1350  0.9748
 2207TIP3   OH228111   5.201   1.531  11.595 -0.2278  0.3066  0.0245
 2207TIP3    H128112   5.286   1.575  11.602  1.2159 -2.0271 -1.4747
 2207TIP3    H228113   5.217   1.442  11.626 -1.5578 -0.8127 -2.2238
 2208TIP3   OH228114   5.944   0.256  10.793 -0.2402  0.6835 -0.0196
 2208TIP3    H128115   5.949   0.196  10.718  1.1108  0.2599  0.3756
 2208TIP3    H228116   5.948   0.343  10.755 -1.2024  0.5200 -0.5318
 2209TIP3   OH228117   2.756   0.681  16.435  0.0747 -0.2206 -0.2934
 2209TIP3    H128118   2.667   0.715  16.424  0.1672  0.9078  1.9478
 2209TIP3    H228119   2.754   0.636  16.520  1.8263  0.5564  0.1988
 2210TIP3   OH228120   1.683   0.571   0.560  0.1392  0.1108 -0.0599
 2210TIP3    H128121   1.758   0.600   0.613 -0.9876  0.6242  1.3211
 2210TIP3    H228122   1.709   0.485   0.528  1.4172  0.3780  0.2027
 2211TIP3   OH228123   3.264   5.841   0.808 -0.2555  0.3268  0.4571
 2211TIP3    H128124   3.263   5.752   0.772 -0.9513  0.2751  0.6093
 2211TIP3    H228125   3.338   5.884   0.763 -1.3545  0.3916 -1.3666
 2212TIP3   OH228126   2.631   2.878  16.855  0.5846 -0.4484 -0.0338
 2212TIP3    H128127   2.586   2.934  16.792 -1.0240 -0.6347  0.8788
 2212TIP3    H228128   2.679   2.939  16.912 -0.7605  0.0079  0.6548
 2213TIP3   OH228129   3.177   3.378  16.023  0.8104  0.5017 -0.0119
 2213TIP3    H128130   3.126   3.375  15.942  0.1711  0.0989  0.4030
 2213TIP3    H228131   3.255   3.428  15.999  0.8920 -0.0740 -1.0240
 2214TIP3   OH228132   1.348   3.087  16.636  0.0309  0.7416  0.3812
 2214TIP3    H128133   1.279   3.021  16.642 -0.8766  1.7614  1.6299
 2214TIP3    H228134   1.426   3.044  16.671 -0.5518  0.3128  1.1785
 2215TIP3   OH228135   5.032   5.372  11.853  1.0679 -0.6007  0.0270
 2215TIP3    H128136   5.066   5.285  11.834 -0.4337 -1.1876 -0.0340
 2215TIP3    H228137   5.055   5.387  11.944  1.0098 -1.2165  0.1475
 2216TIP3   OH228138   1.093   2.796  14.389  0.0636  0.1266  0.2590
 2216TIP3    H128139   1.163   2.774  14.327 -0.4265  0.1198 -0.2930
 2216TIP3    H228140   1.017   2.814  14.334  0.0296  1.6515  0.7820
 2217TIP3   OH228141   3.134   1.952  14.767 -0.3758  0.1324 -0.3264
 2217TIP3    H128142   3.075   2.008  14.817 -1.2633 -0.6708 -0.4408
 2217TIP3    H228143   3.080   1.917  14.696  0.0030 -1.2212  0.0075
 2218TIP3   OH228144   3.313   3.322  12.736  0.2340 -0.2923  0.0392
 2218TIP3    H128145   3.274   3.237  12.717 -0.1696 -0.0245 -0.3398
 2218TIP3    H228146   3.288   3.340  12.827  1.7552 -1.3474  0.7086
 2219TIP3   OH228147   3.540   2.369  15.590  0.8576  0.0089  0.0778
 2219TIP3    H128148   3.513   2.440  15.648 -0.4065 -0.5736  0.2242
 2219TIP3    H228149   3.469   2.362  15.526  0.2381 -2.0667  0.9287
 2220TIP3   OH228150   3.521   1.656  16.762  0.3197  0.0865  0.3648
 2220TIP3    H128151   3.491   1.634  16.674 -0.4560  0.7059  0.4662
 2220TIP3    H228152   3.487   1.586  16.818  2.1603 -1.1876 -0.0321
 2221TIP3   OH228153   5.814   2.809   5.510  0.2766  0.2224 -0.2127
 2221TIP3    H128154   5.838   2.793   5.601 -2.3877 -0.2743  0.4694
 2221TIP3    H228155   5.839   2.730   5.464  0.2629 -0.1375  0.3904
 2222TIP3   OH228156   0.973   0.933  14.691 -0.3557 -0.2842 -0.3363
 2222TIP3    H128157   0.964   0.951  14.597 -0.8973 -1.7705 -0.5872
 2222TIP3    H228158   1.068   0.938  14.707 -0.4079  2.3414 -0.4269
 2223TIP3   OH228159   1.678   5.782  12.986  0.0032 -0.2268 -0.5267
 2223TIP3    H128160   1.689   5.803  13.078  0.6527 -1.3033 -0.3379
 2223TIP3    H228161   1.655   5.865  12.944  1.2606  0.5977  0.3445
 2224TIP3   OH228162   2.394   0.471  11.383  0.4667  0.9180 -0.2638
 2224TIP3    H128163   2.468   0.412  11.370 -1.5566 -1.8744 -0.0725
 2224TIP3    H228164   2.361   0.450  11.470 -0.6636  1.9606 -0.3988
 2225TIP3   OH228165   0.154   5.706  11.460  0.4276 -0.2335  0.1383
 2225TIP3    H128166   0.068   5.665  11.453  0.0114  0.5888  0.3389
 2225TIP3    H228167   0.140   5.796  11.431  0.2099  1.2277  4.1275
 2226TIP3   OH228168   0.927   1.988   5.466 -0.2483  0.1487  0.9501
 2226TIP3    H128169   0.836   1.972   5.488 -0.2647  0.4147  1.0745
 2226TIP3    H228170   0.955   2.059   5.524 -0.1402  0.4896  0.4927
 2227TIP3   OH228171   1.214   4.771   3.084  0.4983  0.2543  0.2684
 2227TIP3    H128172   1.180   4.715   3.154 -0.2438  2.6957  1.9796
 2227TIP3    H228173   1.307   4.782   3.104 -0.0032  2.1306  1.8249
 2228TIP3   OH228174   6.352   2.824   2.361 -0.0352 -0.0834  0.5875
 2228TIP3    H128175   6.362   2.919   2.355  2.6728 -0.3251 -0.1343
 2228TIP3    H228176   6.297   2.809   2.438 -3.8216  2.1159 -1.3797
 2229TIP3   OH228177   0.687   5.367   3.095 -0.2799 -0.7478  0.1884
 2229TIP3    H128178   0.679   5.316   3.015 -1.5545  0.6712 -0.6349
 2229TIP3    H228179   0.751   5.319   3.148  1.5626 -1.0414 -2.1634
 2230TIP3   OH228180   3.577   3.390  16.141 -0.4189 -0.0848 -0.6544
 2230TIP3    H128181   3.644   3.400  16.208 -0.9910 -1.1006  0.0950
 2230TIP3    H228182   3.623   3.408  16.059  0.3868  0.7809 -0.0444
 2231TIP3   OH228183   4.246   5.229   3.683 -0.2298  0.2562  0.3381
 2231TIP3    H128184   4.341   5.223   3.676 -0.2229  0.7891 -0.0882
 2231TIP3    H228185   4.214   5.198   3.598 -0.3969  0.8621  0.1741
 2232TIP3   OH228186   3.889   4.013  15.618  0.2466  0.3761  0.6813
 2232TIP3    H128187   3.912   3.923  15.644 -0.1478 -0.4025 -1.4260
 2232TIP3    H228188   3.805   4.029  15.661  0.0857 -0.4582  0.6961
 2233TIP3   OH228189   2.214   4.638  12.110  0.2772 -0.2327 -0.2119
 2233TIP3    H128190   2.129   4.643  12.153  0.5746  1.8099  0.2643
 2233TIP3    H228191   2.219   4.717  12.057  1.7363 -0.4875 -0.5139
 2234TIP3   OH228192   6.499   6.384   2.959 -0.0634 -0.5463 -0.2974
 2234TIP3    H128193   6.570   6.445   2.942  0.2189 -0.5747  0.7645
 2234TIP3    H228194   6.421   6.427   2.923  0.3764 -0.2463 -0.9075
 2235TIP3   OH228195   3.980   5.458   0.385  0.2302 -0.3230 -0.1600
 2235TIP3    H128196   4.030   5.495   0.312 -0.6996 -0.1685 -0.7373
 2235TIP3    H228197   3.919   5.527   0.409  1.5196  0.2149  1.7998
 2236TIP3   OH228198   4.065   3.066  12.525 -0.3878  0.5365  0.8042
 2236TIP3    H128199   3.987   3.120  12.507  0.2542  1.6951  1.3901
 2236TIP3    H228200   4.137   3.129  12.529  1.0114 -0.6948 -1.9686
 2237TIP3   OH228201   3.338   2.508  10.989  0.3445  0.0654  0.0955
 2237TIP3    H128202   3.265   2.486  10.932  0.2687  0.7739 -0.0924
 2237TIP3    H228203   3.351   2.431  11.044 -0.6979  0.0242  0.2883
 2238TIP3   OH228204   2.791   0.415  15.378  0.1206 -0.1005 -0.0267
 2238TIP3    H128205   2.778   0.490  15.321 -1.9112 -0.7215 -0.4542
 2238TIP3    H228206   2.764   0.340  15.326  1.2731 -1.0570  0.6980
 2239TIP3   OH228207   6.683   3.379  14.389 -0.6084 -0.1045 -0.1098
 2239TIP3    H128208   6.769   3.337  14.390 -0.8854 -0.9076 -2.6090
 2239TIP3    H228209   6.625   3.317  14.433 -0.0288  0.2412  1.1861
 2240TIP3   OH228210   3.529   6.062  14.411 -0.1354 -0.4865 -0.0748
 2240TIP3    H128211   3.522   5.998  14.341  0.2423 -0.1859 -0.3895
 2240TIP3    H228212   3.587   6.020  14.476  0.8571 -0.1016 -0.6961
 2241TIP3   OH228213   6.766   4.439   0.667  0.1243 -0.2130  0.2859
 2241TIP3    H128214   6.760   4.512   0.606  1.7676 -0.3448 -0.0783
 2241TIP3    H228215   6.747   4.477   0.752 -2.1825 -0.0216 -0.2538
 2242TIP3   OH228216   6.386   6.798   2.464  0.2392  0.6470 -0.1597
 2242TIP3    H128217   6.405   6.705   2.472  1.2219  0.9637  1.8469
 2242TIP3    H228218   6.356   6.809   2.373  1.3906 -1.3753 -0.8458
 2243TIP3   OH228219   5.109   4.554  12.603 -0.1212 -0.4931  0.4223
 2243TIP3    H128220   5.105   4.493  12.676  0.4912 -1.2035 -0.1296
 2243TIP3    H228221   5.192   4.600  12.614  2.1868 -3.5909 -2.1043
 2244TIP3   OH228222   3.004   0.673  13.789 -0.0815 -0.1004  0.8115
 2244TIP3    H128223   2.910   0.668  13.809 -0.0131  1.7493  1.8124
 2244TIP3    H228224   3.032   0.756  13.827  1.7556 -0.1069 -0.4231
 2245TIP3   OH228225   4.052   4.278   3.807 -0.1684  0.5831 -0.3156
 2245TIP3    H128226   4.136   4.296   3.766 -1.4642  2.7022 -2.2813
 2245TIP3    H228227   3.987   4.306   3.743 -2.4185 -1.0297  1.0911
 2246TIP3   OH228228   3.981   2.386   2.159 -0.1185 -0.0819 -0.1386
 2246TIP3    H128229   3.921   2.384   2.233  0.0520 -0.1357  0.0006
 2246TIP3    H228230   4.056   2.334   2.189 -0.5453 -1.0979 -0.7835
 2247TIP3   OH228231   4.062   5.900   3.794  0.0020  0.6433 -0.4399
 2247TIP3    H128232   4.149   5.900   3.835  1.0205 -0.5511 -2.4524
 2247TIP3    H228233   4.059   5.818   3.744 -2.5617  0.3425  0.0781
 2248TIP3   OH228234   4.980   5.586   5.568  0.1989  0.1454 -0.1879
 2248TIP3    H128235   5.070   5.578   5.536 -0.0934 -0.4558 -0.9160
 2248TIP3    H228236   4.936   5.507   5.535 -1.4270  1.9488 -2.7127
 2249TIP3   OH228237   0.597   0.895   2.114  0.1926  0.0315 -0.5901
 2249TIP3    H128238   0.567   0.963   2.053 -2.4211 -0.4331  0.0271
 2249TIP3    H228239   0.621   0.822   2.058  1.2714  0.8097 -1.1775
 2250TIP3   OH228240   6.667   1.697   4.272  0.3731 -0.1084  0.3606
 2250TIP3    H128241   6.607   1.626   4.251 -0.8110  0.3751  1.9209
 2250TIP3    H228242   6.752   1.669   4.237 -0.4144 -1.5426 -0.4431
 2251TIP3   OH228243   4.429   5.919  12.080  0.5548  0.1083 -0.0678
 2251TIP3    H128244   4.396   5.861  12.149  0.6737  0.5959  0.4077
 2251TIP3    H228245   4.515   5.884  12.058  1.3728  1.0684  1.4244
 2252TIP3   OH228246   2.374   6.397   3.612 -0.4471 -0.3202  0.6190
 2252TIP3    H128247   2.376   6.485   3.573  0.8792 -0.2890  0.7168
 2252TIP3    H228248   2.382   6.338   3.537  3.3928 -0.2478  0.7494
 2253TIP3   OH228249   1.152   4.683   4.239  0.6301 -0.1002 -0.1626
 2253TIP3    H128250   1.231   4.636   4.264  1.3182  1.6878  1.2001
 2253TIP3    H228251   1.147   4.758   4.299 -1.0037  0.9608 -1.4993
 2254TIP3   OH228252   2.636   6.254  15.857  0.2351 -0.3884  0.3466
 2254TIP3    H128253   2.590   6.333  15.828  1.7810  0.5404  0.3132
 2254TIP3    H228254   2.581   6.219  15.928  0.6413  2.0551  2.0018
 2255TIP3   OH228255   4.565   0.448   1.336  0.4929 -0.2236  0.5388
 2255TIP3    H128256   4.563   0.423   1.244  1.1815  1.1714  0.1157
 2255TIP3    H228257   4.607   0.535   1.337 -2.4847  1.3608  1.7931
 2256TIP3   OH228258   5.400   1.787   5.995  0.1930  0.1152 -0.1468
 2256TIP3    H128259   5.428   1.742   5.915 -0.9850  0.5678 -0.8394
 2256TIP3    H228260   5.480   1.798   6.046  0.7818 -1.2282 -0.7342
 2257TIP3   OH228261   5.624   2.394  16.630  0.4834  0.1920  0.4385
 2257TIP3    H128262   5.719   2.381  16.623  0.5802  0.8850  0.3899
 2257TIP3    H228263   5.615   2.475  16.681 -0.0787  0.2910  0.1846
 2258TIP3   OH228264   5.374   3.589  13.207 -0.8160  0.2914 -0.4319
 2258TIP3    H128265   5.442   3.555  13.150 -0.4659 -0.6304  0.5174
 2258TIP3    H228266   5.314   3.516  13.220 -0.8134  0.4405  0.4856
 2259TIP3   OH228267   0.766   6.101   1.823 -0.1893  0.2869  0.4667
 2259TIP3    H128268   0.791   6.064   1.908 -0.9892  0.9240  0.9942
 2259TIP3    H228269   0.849   6.120   1.780  0.2251 -0.4849  0.9064
 2260TIP3   OH228270   4.680   2.198  15.622 -0.4221  0.0523  0.1751
 2260TIP3    H128271   4.738   2.238  15.687 -0.2898 -0.6265  0.4871
 2260TIP3    H228272   4.617   2.148  15.675 -0.5294 -0.2200 -0.2071
 2261TIP3   OH228273   0.916   1.399   4.518  0.1758 -0.5634  0.4235
 2261TIP3    H128274   0.872   1.315   4.531  1.7905 -1.2765  1.5453
 2261TIP3    H228275   0.846   1.459   4.494 -1.0339 -2.2014 -0.3657
 2262TIP3   OH228276   0.941   4.342  12.468 -0.0539  0.2579 -0.4170
 2262TIP3    H128277   0.993   4.342  12.548 -0.9597  0.3965  0.1841
 2262TIP3    H228278   0.999   4.305  12.402  0.4307 -0.6227  0.4776
 2263TIP3   OH228279   1.080   3.889   4.021  0.3616 -0.2729 -0.3766
 2263TIP3    H128280   1.118   3.811   3.981 -2.9695 -2.2998  0.0005
 2263TIP3    H228281   1.097   3.879   4.115  0.1759 -0.3968 -0.3563
 2264TIP3   OH228282   4.349   4.682  14.581 -0.1015  0.5970 -0.1609
 2264TIP3    H128283   4.431   4.690  14.532 -0.5875  1.1451 -0.9059
 2264TIP3    H228284   4.373   4.703  14.671  0.7753 -0.2722 -0.1803
 2265TIP3   OH228285   3.900   3.468  14.676  0.3101  0.3926  0.3054
 2265TIP3    H128286   3.982   3.459  14.724  0.4672  0.4428  0.0447
 2265TIP3    H228287   3.854   3.539  14.722  0.1113 -0.0975  0.8725
 2266TIP3   OH228288   2.489   6.233   5.918  0.3218 -0.1237 -0.3596
 2266TIP3    H128289   2.471   6.277   6.001  0.6307 -0.0335 -0.3401
 2266TIP3    H228290   2.563   6.175   5.936  0.9439  0.5248 -0.7797
 2267TIP3   OH228291   1.477   2.025   3.656 -0.0339  0.2178  0.1638
 2267TIP3    H128292   1.543   1.957   3.665  0.2509  0.4471 -0.1916
 2267TIP3    H228293   1.469   2.039   3.561  0.6575  1.4103  0.2738
 2268TIP3   OH228294   1.895   5.142   3.287 -0.0167  0.1857 -0.1285
 2268TIP3    H128295   1.946   5.223   3.293  0.0769  0.1997 -1.0622
 2268TIP3    H228296   1.955   5.079   3.247 -0.5791  0.0772 -0.8183
 2269TIP3   OH228297   3.606   6.471  15.060  0.3367  0.3399 -0.1547
 2269TIP3    H128298   3.689   6.491  15.104  1.1070 -0.8827 -0.9713
 2269TIP3    H228299   3.557   6.418  15.123  0.3254  0.7624  0.1955
 2270TIP3   OH228300   0.080   5.010  10.648  1.0549  0.6679 -0.3460
 2270TIP3    H128301   0.046   4.953  10.579  0.7093 -0.8321  0.9968
 2270TIP3    H228302   0.008   5.019  10.710  2.5916 -1.6498  1.9871
 2271TIP3   OH228303   0.222   0.668   2.384 -0.2836 -0.6133  0.0740
 2271TIP3    H128304   0.155   0.662   2.453 -1.1072 -0.7234 -0.7113
 2271TIP3    H228305   0.299   0.627   2.423 -0.1066  1.0807  1.6423
 2272TIP3   OH228306   4.547   1.630  15.107  0.2937 -0.1924  0.4561
 2272TIP3    H128307   4.550   1.707  15.164 -0.3278 -0.7346  1.2253
 2272TIP3    H228308   4.639   1.617  15.080  0.4844  0.4788  0.7656
 2273TIP3   OH228309   1.558   5.791  10.323  0.0433 -0.2609 -0.2349
 2273TIP3    H128310   1.652   5.808  10.327 -0.0088 -0.2862  1.6759
 2273TIP3    H228311   1.518   5.878  10.333 -0.1322 -0.5732  2.4870
 2274TIP3   OH228312   5.346   0.521   3.289  0.3137 -0.0546 -0.4814
 2274TIP3    H128313   5.265   0.485   3.254 -0.8338  2.7912 -1.0490
 2274TIP3    H228314   5.360   0.474   3.371 -1.6227 -0.9805 -0.6270
 2275TIP3   OH228315   2.594   3.680   0.939  0.4365 -0.7824  0.7246
 2275TIP3    H128316   2.571   3.773   0.945 -1.0886 -0.9614 -1.4522
 2275TIP3    H228317   2.689   3.680   0.924  0.5367  0.3698  1.2292
 2276TIP3   OH228318   0.092   2.991   3.013 -0.5668  0.4245  0.4995
 2276TIP3    H128319   0.152   3.047   3.062  0.7662  0.3826 -0.9897
 2276TIP3    H228320   0.128   2.991   2.924 -1.7401 -1.1101 -0.0048
 2277TIP3   OH228321   1.989   2.338  15.598  0.2611 -0.6934 -0.4374
 2277TIP3    H128322   2.080   2.309  15.591  0.3709 -0.3473 -0.4427
 2277TIP3    H228323   1.982   2.372  15.687  0.4080  0.2154 -0.7678
 2278TIP3   OH228324   3.653   5.618   4.640  0.6270 -0.0989  0.2178
 2278TIP3    H128325   3.619   5.560   4.573  0.5061 -0.9146  0.9583
 2278TIP3    H228326   3.747   5.624   4.622  0.3051  1.4152 -1.2730
 2279TIP3   OH228327   2.165   0.547   5.802 -0.0610  0.3121 -0.0345
 2279TIP3    H128328   2.218   0.479   5.762  0.1921  1.2234 -1.3286
 2279TIP3    H228329   2.154   0.519   5.893 -0.0833 -1.4985 -0.5562
 2280TIP3   OH228330   6.068   3.972   5.034  0.2792 -0.3960  0.4860
 2280TIP3    H128331   6.145   3.988   4.979 -0.1585 -1.2145 -0.3999
 2280TIP3    H228332   6.058   3.876   5.033 -2.5359 -0.2286 -2.0031
 2281TIP3   OH228333   3.118   0.381   2.393  0.0940 -0.2597 -0.8612
 2281TIP3    H128334   3.135   0.310   2.330 -4.2803 -1.1351 -1.3862
 2281TIP3    H228335   3.114   0.337   2.478  2.3693  0.3084 -0.4161
 2282TIP3   OH228336   4.275   1.601  16.926 -0.1686 -0.0201  0.0728
 2282TIP3    H128337   4.225   1.645  16.995  0.6146  0.0585  0.6039
 2282TIP3    H228338   4.356   1.572  16.969  0.0584 -0.5161 -0.6657
 2283TIP3   OH228339   4.370   3.433  12.966 -0.4050  0.2219 -0.4305
 2283TIP3    H128340   4.355   3.344  12.932 -0.4537  0.7899 -1.9746
 2283TIP3    H228341   4.370   3.488  12.888  1.0943  1.3986  0.3508
 2284TIP3   OH228342   1.916   5.492  13.418 -0.1351 -0.2105  0.3254
 2284TIP3    H128343   1.863   5.532  13.488 -0.8719 -0.2936 -0.1765
 2284TIP3    H228344   2.004   5.484  13.456 -0.3192  0.5595  0.9354
 2285TIP3   OH228345   2.271   1.850   5.048  0.3358  0.8654 -0.0377
 2285TIP3    H128346   2.330   1.888   5.114 -0.0916 -0.2334  1.0181
 2285TIP3    H228347   2.215   1.922   5.022  1.4924  1.6892 -0.3230
 2286TIP3   OH228348   0.453   3.787  16.393 -0.3299  0.0561 -0.1534
 2286TIP3    H128349   0.540   3.752  16.376 -0.5524 -1.1817  1.1398
 2286TIP3    H228350   0.402   3.763  16.315  0.6333  1.5413 -1.3268
 2287TIP3   OH228351   0.554   3.973   0.377  0.3599  0.2472 -0.5742
 2287TIP3    H128352   0.531   3.933   0.292  1.6643 -1.1937 -0.2896
 2287TIP3    H228353   0.531   3.906   0.441  1.3394  0.4902  0.0386
 2288TIP3   OH228354   0.378   2.225   3.048 -0.1428 -0.4517  0.6273
 2288TIP3    H128355   0.436   2.185   2.983 -1.3075 -0.0590 -0.7038
 2288TIP3    H228356   0.370   2.159   3.117 -1.1061 -2.0692 -0.9700
 2289TIP3   OH228357   3.649   3.904   3.800  0.3302 -0.6632 -0.1980
 2289TIP3    H128358   3.635   3.841   3.730 -0.6307  1.3265 -1.9102
 2289TIP3    H228359   3.688   3.980   3.757  0.3228  0.3908  1.5333
 2290TIP3   OH228360   1.531   3.007  13.334  0.0057  0.2723 -0.1612
 2290TIP3    H128361   1.609   3.017  13.388 -0.9560 -0.2460  1.3873
 2290TIP3    H228362   1.564   3.010  13.244  1.9208 -0.8025  0.4422
 2291TIP3   OH228363   1.626   4.738  16.443 -0.2807  0.7205 -0.2603
 2291TIP3    H128364   1.653   4.823  16.406  0.8354  0.2925 -0.4589
 2291TIP3    H228365   1.633   4.750  16.538 -3.6908  2.0068 -0.0152
 2292TIP3   OH228366   0.546   6.188  15.483  0.1842  0.6332 -0.4200
 2292TIP3    H128367   0.554   6.262  15.542 -0.6700  0.6387 -0.3064
 2292TIP3    H228368   0.473   6.210  15.425 -1.4100 -0.9265  0.8660
 2293TIP3   OH228369   0.322   0.723   1.960 -0.4130 -0.3094 -0.1591
 2293TIP3    H128370   0.274   0.764   2.032 -0.1842  1.1695 -0.8085
 2293TIP3    H228371   0.390   0.671   2.003 -0.1652  0.7000  0.7002
 2294TIP3   OH228372   3.664   0.144   3.986 -0.6811  0.3846 -0.3420
 2294TIP3    H128373   3.618   0.197   3.920  0.1453  0.2270 -1.0674
 2294TIP3    H228374   3.689   0.064   3.939  0.5755  0.5881 -0.0505
 2295TIP3   OH228375   5.764   0.689  15.383 -0.0735  0.1076  0.0154
 2295TIP3    H128376   5.801   0.602  15.364 -0.7054 -0.3917  0.9511
 2295TIP3    H228377   5.833   0.750  15.359 -0.0596 -0.5729 -1.8137
 2296TIP3   OH228378   4.048   2.962  10.729 -0.1103 -0.4104  0.0129
 2296TIP3    H128379   4.040   2.884  10.784 -0.9660 -0.0911  0.3625
 2296TIP3    H228380   4.064   3.033  10.791  2.1676 -0.4843 -0.4029
 2297TIP3   OH228381   1.519   5.609   1.566  0.0553 -0.5007  0.2383
 2297TIP3    H128382   1.562   5.638   1.486  0.4963  0.1876  0.7136
 2297TIP3    H228383   1.574   5.643   1.637 -1.6828  1.1185  0.8968
 2298TIP3   OH228384   4.878   5.651   0.392 -0.2789 -0.1429  0.1407
 2298TIP3    H128385   4.832   5.611   0.466 -0.9589  1.0198  0.3743
 2298TIP3    H228386   4.811   5.705   0.348  0.9042  1.9481  0.7479
 2299TIP3   OH228387   2.832   1.650  12.980 -1.2165  0.2054 -0.3411
 2299TIP3    H128388   2.807   1.740  13.002 -0.3386  0.4611 -0.3324
 2299TIP3    H228389   2.921   1.658  12.945 -1.5063 -0.5365 -1.3141
 2300TIP3   OH228390   5.459   0.860  14.648  0.2067 -0.6643  0.3122
 2300TIP3    H128391   5.405   0.803  14.703 -1.7904  0.7287 -0.1051
 2300TIP3    H228392   5.470   0.811  14.567  0.4521 -1.3859  0.7710
 2301TIP3   OH228393   0.473   4.925   5.006 -0.6756 -0.3529 -0.2117
 2301TIP3    H128394   0.438   4.840   4.980  0.3776 -1.4526  1.6900
 2301TIP3    H228395   0.566   4.920   4.984 -0.1404 -0.6259  1.8760
 2302TIP3   OH228396   3.621   4.406  11.876 -0.0183  0.5198  0.3044
 2302TIP3    H128397   3.540   4.433  11.833 -0.4362 -0.4449  0.4768
 2302TIP3    H228398   3.593   4.361  11.956  0.7576  2.7343  1.9217
 2303TIP3   OH228399   2.385   5.700   0.345 -0.3222 -0.3404 -0.0634
 2303TIP3    H128400   2.292   5.677   0.348 -0.8922  1.5443 -1.3947
 2303TIP3    H228401   2.422   5.659   0.424 -2.3398 -0.7993  0.7212
 2304TIP3   OH228402   5.621   6.718   3.763  0.0934 -0.1420  0.1122
 2304TIP3    H128403   5.556   6.673   3.710  0.7480 -1.0903  0.0724
 2304TIP3    H228404   5.578   6.732   3.847 -1.0114  1.5329 -0.6886
 2305TIP3   OH228405   1.273   5.723  13.515 -0.3346  0.3840 -0.1207
 2305TIP3    H128406   1.365   5.743  13.535 -0.5507 -0.3511  1.7672
 2305TIP3    H228407   1.223   5.767  13.583 -1.2545 -0.7387 -0.0392
 2306TIP3   OH228408   4.843   1.541   4.732 -0.2453  0.1816  0.0177
 2306TIP3    H128409   4.800   1.594   4.799 -4.0854 -1.5218 -0.8422
 2306TIP3    H228410   4.898   1.603   4.684 -1.2695  2.4617  1.6264
 2307TIP3   OH228411   4.050   1.325  12.619 -0.3299 -0.5708 -0.5481
 2307TIP3    H128412   4.019   1.237  12.640  1.9637 -1.6631 -1.3463
 2307TIP3    H228413   4.109   1.312  12.545 -1.6744  1.9820 -2.2430
 2308TIP3   OH228414   4.350   2.698  10.430  0.4803 -0.5621  0.4403
 2308TIP3    H128415   4.411   2.765  10.459  0.1093 -0.3374  0.7132
 2308TIP3    H228416   4.267   2.720  10.474  0.3028 -1.0794  0.3761
 2309TIP3   OH228417   1.406   5.580  16.098  0.1438  0.2097  0.4642
 2309TIP3    H128418   1.494   5.547  16.082  0.3453  1.0266 -0.1433
 2309TIP3    H228419   1.361   5.508  16.142  0.3253 -1.1935 -1.5239
 2310TIP3   OH228420   6.458   1.727   6.057 -0.3429  0.0725  0.1432
 2310TIP3    H128421   6.468   1.754   6.149  0.7329  0.7952 -0.1536
 2310TIP3    H228422   6.528   1.774   6.011 -0.6034 -0.5996 -0.9861
 2311TIP3   OH228423   2.365   6.126   3.377  0.0993  0.1692 -0.3047
 2311TIP3    H128424   2.297   6.060   3.390  0.6196 -0.5547 -1.1355
 2311TIP3    H228425   2.447   6.078   3.381  0.4352  0.3134 -3.1135
 2312TIP3   OH228426   4.717   0.703   5.666  0.7455 -0.1740  0.4711
 2312TIP3    H128427   4.650   0.728   5.730  1.1101 -0.0793  0.8223
 2312TIP3    H228428   4.725   0.780   5.609  0.5174 -0.2067  0.3940
 2313TIP3   OH228429   0.391   3.173  16.778  0.6143  0.2375 -0.3009
 2313TIP3    H128430   0.339   3.101  16.813 -2.1635  0.7988 -2.8383
 2313TIP3    H228431   0.473   3.132  16.751  0.7094 -1.1445  1.8046
 2314TIP3   OH228432   2.263   5.113   4.873  0.4295 -0.7541  0.0499
 2314TIP3    H128433   2.281   5.066   4.791  2.1486  0.6932 -0.4762
 2314TIP3    H228434   2.192   5.173   4.851  0.8075 -0.4520 -0.3666
 2315TIP3   OH228435   4.501   2.886   4.566  0.6086 -0.3907 -0.0553
 2315TIP3    H128436   4.420   2.837   4.546  1.4519 -1.8793  0.0149
 2315TIP3    H228437   4.493   2.908   4.659 -0.3872  0.8421 -0.4013
 2316TIP3   OH228438   5.445   5.554  16.056 -0.0418 -0.0747 -0.7844
 2316TIP3    H128439   5.536   5.555  16.084  0.0871  1.0643 -1.1582
 2316TIP3    H228440   5.447   5.594  15.969 -0.7277 -1.3323 -1.4005
 2317TIP3   OH228441   4.277   6.086   5.801  0.7096  0.5655 -0.2828
 2317TIP3    H128442   4.231   6.033   5.867  1.0034  1.6039  0.7896
 2317TIP3    H228443   4.253   6.046   5.717  0.7136 -1.0837  0.4732
 2318TIP3   OH228444   1.005   1.623  15.896  0.4807 -0.1864 -0.2924
 2318TIP3    H128445   0.919   1.664  15.909  1.1499  0.6579  2.0631
 2318TIP3    H228446   1.054   1.687  15.844  0.4096  0.4583  0.4063
 2319TIP3   OH228447   5.318   4.023  13.461 -0.1610  0.6433 -0.2851
 2319TIP3    H128448   5.355   4.007  13.374 -0.4498  0.6034 -0.3994
 2319TIP3    H228449   5.387   4.071  13.508  1.1793 -1.8086  0.4348
 2320TIP3   OH228450   1.413   0.322  15.196 -0.7315 -0.2304 -0.0725
 2320TIP3    H128451   1.325   0.339  15.163  0.8298  1.5491 -3.8713
 2320TIP3    H228452   1.445   0.407  15.227  0.0529 -0.6089  0.2069
 2321TIP3   OH228453   4.833   1.647  16.047 -0.1016 -0.2607  0.1101
 2321TIP3    H128454   4.750   1.690  16.030 -0.6628 -2.0234 -1.9246
 2321TIP3    H228455   4.899   1.710  16.018 -0.7824  0.4539  0.0904
 2322TIP3   OH228456   0.981   1.863  16.073 -0.1673 -0.2108 -0.8315
 2322TIP3    H128457   1.055   1.809  16.101  0.5132  0.7652 -0.6928
 2322TIP3    H228458   1.008   1.898  15.988 -0.1443  0.7561 -0.4337
 2323TIP3   OH228459   4.152   3.080   0.466 -0.9515  0.5707 -0.2972
 2323TIP3    H128460   4.219   3.067   0.534 -0.3314 -1.6738 -1.2330
 2323TIP3    H228461   4.139   3.175   0.462 -0.6316  0.8163  2.5555
 2324TIP3   OH228462   1.203   1.921   4.418  0.0586 -0.1551 -0.3109
 2324TIP3    H128463   1.141   1.888   4.483  0.1534  0.2070 -0.0254
 2324TIP3    H228464   1.214   1.850   4.356 -0.9409 -0.0890 -0.5797
 2325TIP3   OH228465   5.771   4.356   2.621 -0.0644 -0.1681 -0.1048
 2325TIP3    H128466   5.826   4.353   2.699  2.7118 -0.7835 -1.9419
 2325TIP3    H228467   5.741   4.266   2.609 -1.9800  0.2554  1.1600
 2326TIP3   OH228468   4.544   4.427   1.569 -0.8142  0.0347  0.2888
 2326TIP3    H128469   4.529   4.521   1.570  1.2405  0.3988  0.3319
 2326TIP3    H228470   4.529   4.400   1.479  1.5485  0.9816 -0.4554
 2327TIP3   OH228471   1.867   4.362  13.645 -0.2789 -0.2073 -0.4339
 2327TIP3    H128472   1.866   4.432  13.710  1.2285 -1.5972  1.2219
 2327TIP3    H228473   1.948   4.376  13.596  1.1931 -1.9258  1.3601
 2328TIP3   OH228474   1.246   1.855  14.868  0.3472 -0.1312 -0.1372
 2328TIP3    H128475   1.335   1.873  14.837  1.0107 -1.5401  0.8295
 2328TIP3    H228476   1.199   1.937  14.854  1.5951  0.4295 -1.3422
 2329TIP3   OH228477   4.191   2.457   3.982  0.5933  1.1211  0.2960
 2329TIP3    H128478   4.124   2.440   4.049  0.2091  0.9835 -0.1202
 2329TIP3    H228479   4.242   2.529   4.018  1.8014 -0.4019  1.7631
 2330TIP3   OH228480   0.275   6.805   4.981 -0.0517 -0.3257 -0.0436
 2330TIP3    H128481   0.367   6.830   4.971 -0.5737  1.9584  0.3531
 2330TIP3    H228482   0.243   6.794   4.892  0.1509  0.7514 -0.2592
 2331TIP3   OH228483   5.541   3.146  11.231  0.3024  0.2973  0.0075
 2331TIP3    H128484   5.595   3.215  11.193 -2.0026  2.5051  0.4738
 2331TIP3    H228485   5.540   3.165  11.325 -1.8632  0.8434 -0.0751
 2332TIP3   OH228486   5.221   5.351   2.064 -0.3323  0.1660 -0.0223
 2332TIP3    H128487   5.311   5.357   2.094 -0.6649 -2.0598  1.6441
 2332TIP3    H228488   5.177   5.426   2.106  0.3650  0.2261  0.6178
 2333TIP3   OH228489   0.434   3.747  13.743  0.1446  0.0096  0.1750
 2333TIP3    H128490   0.391   3.663  13.728  0.7541 -0.2315 -0.2902
 2333TIP3    H228491   0.372   3.813  13.711 -0.3219 -0.2660  0.5112
 2334TIP3   OH228492   6.542   5.169   1.128 -0.2838  0.0498  0.3117
 2334TIP3    H128493   6.523   5.149   1.037 -0.8691  4.2956 -0.7094
 2334TIP3    H228494   6.634   5.195   1.128  0.1087 -1.2058  1.2858
 2335TIP3   OH228495   5.846   1.152  15.284  0.1336 -0.1332 -0.3871
 2335TIP3    H128496   5.798   1.074  15.254  2.9520 -1.1805 -2.7431
 2335TIP3    H228497   5.791   1.226  15.258 -0.9425 -1.2642 -1.4851
 2336TIP3   OH228498   0.626   6.650  14.049  0.4688  0.5358  0.3691
 2336TIP3    H128499   0.635   6.565  14.092 -1.5545 -0.1765 -0.4707
 2336TIP3    H228500   0.538   6.648  14.011  0.9473  2.4115 -0.9798
 2337TIP3   OH228501   3.154   4.169  14.951  0.0789  0.0800  0.6302
 2337TIP3    H128502   3.077   4.226  14.957  0.2407  0.2331  1.3589
 2337TIP3    H228503   3.137   4.099  15.014 -0.0214 -0.5682 -0.1107
 2338TIP3   OH228504   2.026   6.497   2.552 -0.3627  0.2389  0.3788
 2338TIP3    H128505   1.962   6.445   2.503 -2.3601  0.7997  2.2708
 2338TIP3    H228506   1.982   6.518   2.634  2.0429  1.2183  1.4926
 2339TIP3   OH228507   0.983   0.415   0.297  0.1182 -0.3197 -0.1090
 2339TIP3    H128508   1.054   0.444   0.354 -0.1274 -1.6489  0.9303
 2339TIP3    H228509   1.013   0.433   0.208  0.8551  1.0532  0.3982
 2340TIP3   OH228510   0.878   6.307   3.768  0.6934 -0.8415  0.3836
 2340TIP3    H128511   0.845   6.340   3.684 -0.5716 -1.5187  0.5886
 2340TIP3    H228512   0.968   6.280   3.749  0.2173 -1.6132 -0.9419
 2341TIP3   OH228513   0.333   0.338   1.527  0.2018  0.2928  0.2864
 2341TIP3    H128514   0.384   0.272   1.574  0.5885 -0.0444 -0.5852
 2341TIP3    H228515   0.313   0.404   1.593  1.0687  0.0227  0.8362
 2342TIP3   OH228516   3.035   1.133   1.308 -0.0376  0.0467 -0.4030
 2342TIP3    H128517   3.105   1.159   1.249  0.9466  2.8486  1.7826
 2342TIP3    H228518   3.042   1.193   1.382 -2.1516 -2.2731  1.8869
 2343TIP3   OH228519   6.604   1.998   4.462  0.5080 -0.0758  0.4585
 2343TIP3    H128520   6.540   1.934   4.494  0.1257  0.2641  0.3818
 2343TIP3    H228521   6.678   1.945   4.431  0.5060 -0.4501  1.0674
 2344TIP3   OH228522   2.431   6.620   5.893 -0.2334 -0.0319 -0.2397
 2344TIP3    H128523   2.504   6.615   5.955 -0.7030 -0.4723  0.2865
 2344TIP3    H228524   2.368   6.555   5.924 -1.5106  1.3231  0.1939
 2345TIP3   OH228525   1.859   1.741  12.836 -0.3006  0.2996  0.2258
 2345TIP3    H128526   1.942   1.697  12.816 -1.1617 -1.2368 -0.1633
 2345TIP3    H228527   1.829   1.698  12.917 -1.8439 -0.9066 -0.9282
 2346TIP3   OH228528   2.501   5.963  11.316 -0.7042 -0.3407 -0.2493
 2346TIP3    H128529   2.525   5.877  11.350 -0.5690 -0.4735 -0.6703
 2346TIP3    H228530   2.432   5.946  11.252 -2.4512  0.1025  1.4348
 2347TIP3   OH228531   4.613   4.945  17.028 -0.5555  0.2079  0.1941
 2347TIP3    H128532   4.624   4.896  16.947  0.2504  0.5564  0.0836
 2347TIP3    H228533   4.610   4.879  17.096  0.1563 -0.0128  0.0139
 2348TIP3   OH228534   2.387   1.592  12.614  0.4406  0.4698 -0.0338
 2348TIP3    H128535   2.482   1.588  12.613  0.4243  0.0355 -0.6050
 2348TIP3    H228536   2.366   1.671  12.564  0.5023  0.7852  0.4294
 2349TIP3   OH228537   0.759   0.625  11.723  0.4787 -0.4172 -0.1845
 2349TIP3    H128538   0.784   0.533  11.716 -0.3649 -0.7842  1.1559
 2349TIP3    H228539   0.747   0.639  11.817 -0.1250  0.8643 -0.4313
 2350TIP3   OH228540   0.197   5.645  17.159  0.3108 -0.3697  0.1182
 2350TIP3    H128541   0.293   5.640  17.157  0.4395 -2.2077  3.3710
 2350TIP3    H228542   0.168   5.576  17.098  1.0502 -0.3990 -0.2107
 2351TIP3   OH228543   6.233   3.685   0.273 -0.3146  0.9509  0.2864
 2351TIP3    H128544   6.169   3.757   0.279 -0.9950  0.4375 -0.6013
 2351TIP3    H228545   6.305   3.721   0.221 -1.4704  0.4643 -1.7652
 2352TIP3   OH228546   0.910   1.295  16.430  0.3075  0.1780  0.4161
 2352TIP3    H128547   0.871   1.209  16.446  1.7315 -0.7355 -0.7565
 2352TIP3    H228548   0.974   1.280  16.361  0.1969  2.3131 -0.2349
 2353TIP3   OH228549   1.619   6.076  12.927 -0.3961  0.2320 -0.3654
 2353TIP3    H128550   1.550   6.092  12.863 -1.6134  1.5104  1.1839
 2353TIP3    H228551   1.700   6.074  12.876 -1.2043  2.2528 -1.8303
 2354TIP3   OH228552   4.256   3.865   1.627 -0.6006 -0.0042 -0.1888
 2354TIP3    H128553   4.278   3.955   1.650  0.8362 -0.6600  1.1930
 2354TIP3    H228554   4.336   3.815   1.644 -0.9947 -1.3767 -2.0408
 2355TIP3   OH228555   3.137   3.412  13.620  0.4371 -0.1249 -0.2037
 2355TIP3    H128556   3.062   3.469  13.635  0.9031  0.3278  0.4739
 2355TIP3    H228557   3.176   3.444  13.539  1.1690  1.0579  0.5959
 2356TIP3   OH228558   5.407   2.200   1.692  0.1881  0.1106  0.1440
 2356TIP3    H128559   5.475   2.268   1.691  0.1194  0.1844  0.4176
 2356TIP3    H228560   5.447   2.126   1.647  0.2453  0.3523 -0.2063
 2357TIP3   OH228561   3.442   4.329   5.405 -0.2234  0.0132 -0.0296
 2357TIP3    H128562   3.428   4.415   5.444  1.0068  0.9745 -1.5964
 2357TIP3    H228563   3.364   4.315   5.350  0.1046  0.6666 -0.6748
 2358TIP3   OH228564   1.730   1.101   3.218  0.2994 -0.4036 -0.0293
 2358TIP3    H128565   1.708   1.194   3.222  0.0708 -0.4275 -0.7396
 2358TIP3    H228566   1.738   1.075   3.310 -2.1176 -0.2784  0.2688
 2359TIP3   OH228567   6.336   0.158  15.567  0.4262  0.1455  0.2272
 2359TIP3    H128568   6.339   0.216  15.642  0.0215  0.2171  0.1912
 2359TIP3    H228569   6.414   0.104  15.574  1.6143  1.6882 -0.5432
 2360TIP3   OH228570   2.583   2.796  13.980 -0.1785 -0.2079  0.3646
 2360TIP3    H128571   2.673   2.828  13.992 -0.5113  0.7281  0.4457
 2360TIP3    H228572   2.532   2.844  14.045 -1.0178  0.5397 -0.8232
 2361TIP3   OH228573   2.719   6.050  14.328  0.1312 -0.4107 -0.2589
 2361TIP3    H128574   2.767   6.128  14.299  1.1184 -0.6660  0.6237
 2361TIP3    H228575   2.637   6.053  14.280  0.8428  0.2935 -1.4874
 2362TIP3   OH228576   1.982   3.859   5.822  0.1215  0.2686 -0.3314
 2362TIP3    H128577   1.930   3.779   5.815 -1.3098  0.9720  1.3649
 2362TIP3    H228578   1.943   3.918   5.758  0.6740 -0.0985 -1.0278
 2363TIP3   OH228579   1.834   2.408   0.940 -0.0312 -0.3205 -0.4451
 2363TIP3    H128580   1.925   2.387   0.961 -0.1187 -0.7896 -0.5403
 2363TIP3    H228581   1.782   2.345   0.990 -0.2844 -0.5090 -0.9360
 2364TIP3   OH228582   3.387   1.921  16.590  0.5982 -0.3397 -0.4063
 2364TIP3    H128583   3.343   2.004  16.570 -0.4845 -0.5743  0.8421
 2364TIP3    H228584   3.443   1.904  16.514 -1.1561  0.2014 -1.8815
 2365TIP3   OH228585   3.355   0.308   2.827 -0.3474 -0.8004  0.2072
 2365TIP3    H128586   3.354   0.400   2.804  0.8623 -0.8716 -0.1971
 2365TIP3    H228587   3.393   0.264   2.751  0.2862 -1.4711  0.8924
 2366TIP3   OH228588   6.824   3.099   4.528 -0.1227 -0.1766  0.3423
 2366TIP3    H128589   6.828   3.078   4.621 -2.5451  1.4814  0.9146
 2366TIP3    H228590   6.741   3.062   4.499  0.1098  0.2461 -0.9125
 2367TIP3   OH228591   5.366   3.122  16.065  0.1285 -0.1872  0.6587
 2367TIP3    H128592   5.368   3.033  16.100  0.7610 -0.4132  0.0741
 2367TIP3    H228593   5.335   3.111  15.975  1.0973  0.0802  0.2919
 2368TIP3   OH228594   4.277   5.741  13.293 -0.1627 -0.4307  0.3567
 2368TIP3    H128595   4.300   5.781  13.377  0.0574 -1.1511  0.6420
 2368TIP3    H228596   4.226   5.809  13.248  1.0870  0.5717  0.3968
 2369TIP3   OH228597   5.332   1.895   4.163  0.3550 -0.3684  0.5727
 2369TIP3    H128598   5.295   1.951   4.095 -0.0564 -0.6348  0.5759
 2369TIP3    H228599   5.374   1.823   4.114 -1.2006 -1.3474  0.6240
 2370TIP3   OH228600   4.166   2.963   4.605 -0.1221 -0.9201 -0.2952
 2370TIP3    H128601   4.111   3.040   4.619  0.8607 -0.3894  0.8446
 2370TIP3    H228602   4.113   2.905   4.549 -1.6574 -0.2738  0.4316
 2371TIP3   OH228603   4.044   4.861  12.109 -0.3943 -0.2252 -0.7789
 2371TIP3    H128604   4.029   4.953  12.087 -1.1046 -0.4873 -1.4568
 2371TIP3    H228605   4.110   4.863  12.178 -1.3230  0.8509  0.1025
 2372TIP3   OH228606   5.130   1.782   5.925  0.3455  0.2736 -0.2257
 2372TIP3    H128607   5.223   1.770   5.945  0.1805  0.4698  0.6971
 2372TIP3    H228608   5.116   1.876   5.931 -0.0521  0.1856  0.2981
 2373TIP3   OH228609   4.406   5.791   3.430 -0.2367 -0.1362 -0.0731
 2373TIP3    H128610   4.408   5.711   3.378 -2.3099  0.9330 -1.9693
 2373TIP3    H228611   4.375   5.762   3.516 -0.8926 -1.4170 -0.6986
 2374TIP3   OH228612   1.255   3.552  16.724 -0.3697  0.4093 -0.4564
 2374TIP3    H128613   1.246   3.489  16.796  1.4880  1.1352  0.4583
 2374TIP3    H228614   1.238   3.637  16.765 -1.0848  0.6819 -1.2943
 2375TIP3   OH228615   5.375   5.995   4.314  0.1677 -0.5900 -0.1979
 2375TIP3    H128616   5.300   5.975   4.258 -0.8446 -1.7284  1.4340
 2375TIP3    H228617   5.368   5.931   4.386  2.2114 -0.1432  0.4577
 2376TIP3   OH228618   3.452   5.586   2.667  0.0328 -0.3105  0.3044
 2376TIP3    H128619   3.406   5.624   2.592 -0.4653 -0.3700  0.5748
 2376TIP3    H228620   3.543   5.613   2.655 -0.3970  1.4741  0.7929
 2377TIP3   OH228621   0.642   6.717   3.842  0.3881  0.7557 -0.3981
 2377TIP3    H128622   0.657   6.741   3.933  0.5301 -0.6444 -0.0311
 2377TIP3    H228623   0.585   6.640   3.846 -0.8840  1.5972 -1.5542
 2378TIP3   OH228624   4.840   4.186   1.151 -0.3178 -0.2362 -0.0078
 2378TIP3    H128625   4.788   4.263   1.128  0.9994  0.1191 -2.0438
 2378TIP3    H228626   4.871   4.204   1.240 -1.0542  1.0034  0.0198
 2379TIP3   OH228627   2.946   1.010  12.146  0.1533  0.2452  0.7893
 2379TIP3    H128628   2.922   0.990  12.236  0.1477  0.7661  0.9069
 2379TIP3    H228629   2.960   1.105  12.145  2.3828 -0.0316  0.7869
 2380TIP3   OH228630   6.537   0.409   4.423  0.1216 -0.6148  0.4620
 2380TIP3    H128631   6.513   0.476   4.358 -0.7378 -0.7327  0.6526
 2380TIP3    H228632   6.632   0.416   4.429 -0.0562  1.7786  1.7350
 2381TIP3   OH228633   6.144   1.693   6.004  0.4316  0.2619 -0.1758
 2381TIP3    H128634   6.198   1.616   6.022 -2.0685 -1.1321  2.0282
 2381TIP3    H228635   6.074   1.661   5.947  0.3061  1.3287 -0.6370
 2382TIP3   OH228636   6.133   3.775  10.584  0.5487  0.3409  0.1840
 2382TIP3    H128637   6.219   3.805  10.556  1.5921 -0.6059  2.1619
 2382TIP3    H228638   6.123   3.810  10.672 -0.9201  0.0486  0.1586
 2383TIP3   OH228639   3.647   3.292  12.701  0.0848  0.5309  0.4718
 2383TIP3    H128640   3.707   3.230  12.741  0.6599  1.1845  0.6461
 2383TIP3    H228641   3.582   3.310  12.770  0.1494  0.4321  0.5589
 2384TIP3   OH228642   0.848   3.655   0.907 -0.0634 -0.2631 -0.3487
 2384TIP3    H128643   0.768   3.707   0.913  1.9745  3.0607  1.5747
 2384TIP3    H228644   0.837   3.586   0.973 -1.9408 -0.9731 -1.3340
 2385TIP3   OH228645   5.074   3.578   5.857  0.0119  0.8585  0.0460
 2385TIP3    H128646   5.042   3.488   5.856 -0.3680  0.9942 -0.5508
 2385TIP3    H228647   5.047   3.612   5.942 -0.8930  0.7722 -0.1960
 2386TIP3   OH228648   4.404   3.812   4.442  0.2377  0.0195 -0.2483
 2386TIP3    H128649   4.423   3.869   4.367 -1.8941  0.3134 -0.6128
 2386TIP3    H228650   4.490   3.794   4.480  1.2046  1.3445 -1.6739
 2387TIP3   OH228651   2.468   6.621   3.221  0.6225 -0.1733 -0.0788
 2387TIP3    H128652   2.519   6.701   3.235  2.3220 -0.9874 -1.2241
 2387TIP3    H228653   2.464   6.580   3.307  1.4445  0.1774  0.1332
 2388TIP3   OH228654   3.778   1.432   1.131  0.3629  0.5477 -0.4378
 2388TIP3    H128655   3.772   1.358   1.071 -0.3329  0.6996 -0.5655
 2388TIP3    H228656   3.867   1.465   1.119  1.7050 -1.9440  1.6520
 2389TIP3   OH228657   3.000   4.909  13.693 -0.2836  0.1114  0.0973
 2389TIP3    H128658   3.034   4.994  13.720 -0.4245  0.8746 -1.9747
 2389TIP3    H228659   2.905   4.920  13.692 -0.3371 -0.2953  0.4981
 2390TIP3   OH228660   5.710   2.242  11.113  0.2608 -0.2340 -0.3051
 2390TIP3    H128661   5.738   2.151  11.109  2.9808  0.5174 -1.1744
 2390TIP3    H228662   5.704   2.269  11.021 -1.3225  0.2828 -0.0783
 2391TIP3   OH228663   5.831   2.667  11.911 -0.5661  0.2131 -0.3160
 2391TIP3    H128664   5.799   2.737  11.968 -0.7926  0.4207 -0.6893
 2391TIP3    H228665   5.869   2.714  11.836  4.0598  0.2382  1.6831
 2392TIP3   OH228666   3.636   3.550   5.711  0.1309 -0.0807 -0.2532
 2392TIP3    H128667   3.648   3.473   5.656  0.6258  0.1433 -0.4575
 2392TIP3    H228668   3.596   3.515   5.791  1.6373 -0.7749  0.2398
 2393TIP3   OH228669   3.116   6.570  13.140  0.5701  0.3185 -0.8409
 2393TIP3    H128670   3.153   6.501  13.085  0.4617 -0.3451 -0.1122
 2393TIP3    H228671   3.108   6.529  13.227  0.6646  1.3087 -0.3552
 2394TIP3   OH228672   0.378   4.865  12.994  0.2067 -0.2228  0.5134
 2394TIP3    H128673   0.415   4.936  12.941  0.6332 -0.5840  0.3169
 2394TIP3    H228674   0.317   4.821  12.935 -1.5941  1.1802  1.2320
 2395TIP3   OH228675   1.004   6.426   6.042 -0.0183  0.1429 -0.0370
 2395TIP3    H128676   1.060   6.394   6.113 -1.2905  0.5256  1.1933
 2395TIP3    H228677   0.997   6.520   6.058 -2.2179 -0.0971  0.8080
 2396TIP3   OH228678   6.524   4.149  15.915 -0.2801 -0.6357  0.2396
 2396TIP3    H128679   6.540   4.215  15.983  1.5220  1.1473 -1.7396
 2396TIP3    H228680   6.429   4.148  15.904 -0.3822  1.4612  0.5527
 2397TIP3   OH228681   5.419   5.341   1.425 -0.3433  0.0257  0.1801
 2397TIP3    H128682   5.496   5.351   1.481  0.1928  0.5341 -0.6259
 2397TIP3    H228683   5.431   5.407   1.357 -1.7771  0.4826  0.3518
 2398TIP3   OH228684   5.205   6.313   2.710 -0.0098  0.2512  0.1206
 2398TIP3    H128685   5.212   6.388   2.650  0.2837 -0.7044 -1.0721
 2398TIP3    H228686   5.140   6.340   2.775 -1.5298  0.7231 -1.5351
 2399TIP3   OH228687   6.741   0.933   3.554  0.1384  0.2934 -0.4128
 2399TIP3    H128688   6.740   0.899   3.465  0.9925 -1.4275  0.1988
 2399TIP3    H228689   6.834   0.943   3.575  0.0782 -1.8698  1.1789
 2400TIP3   OH228690   1.385   1.383  12.229  0.0029 -0.2840 -0.1855
 2400TIP3    H128691   1.330   1.417  12.158  0.7763  1.1306 -0.1450
 2400TIP3    H228692   1.326   1.376  12.304 -0.4552 -0.1888 -0.5368
 2401TIP3   OH228693   3.793   5.876   1.461 -0.2174  0.4921  0.2234
 2401TIP3    H128694   3.759   5.809   1.520 -0.3229  1.5022  1.3493
 2401TIP3    H228695   3.869   5.912   1.508  0.0941  0.8699 -0.5555
 2402TIP3   OH228696   1.896   3.069  16.954 -0.2188  0.0641 -0.1203
 2402TIP3    H128697   1.949   3.013  17.010  1.2838  0.0867 -1.4471
 2402TIP3    H228698   1.869   3.012  16.882 -0.7991  0.4293 -0.2005
 2403TIP3   OH228699   4.796   1.270   4.340  0.2850 -0.0176 -0.3406
 2403TIP3    H128700   4.711   1.258   4.383  0.2016 -0.4436 -0.6186
 2403TIP3    H228701   4.844   1.329   4.399 -0.1765  0.1772 -0.1511
 2404TIP3   OH228702   3.758   5.527  15.646 -0.1206  0.5795 -0.5898
 2404TIP3    H128703   3.821   5.536  15.575 -0.0785  1.5878 -0.4324
 2404TIP3    H228704   3.787   5.589  15.712 -0.6918  0.3108 -0.0787
 2405TIP3   OH228705   4.557   1.673  12.680  0.1216  0.3879 -0.0054
 2405TIP3    H128706   4.609   1.685  12.601  0.7871 -0.0404  0.3564
 2405TIP3    H228707   4.466   1.675  12.650  0.3688 -1.9345 -1.1539
 2406TIP3   OH228708   2.304   4.208  13.824  0.0242  0.0099 -0.4344
 2406TIP3    H128709   2.219   4.231  13.863 -0.7980 -1.5283 -1.2282
 2406TIP3    H228710   2.308   4.262  13.745 -0.2383  0.0648 -0.4137
 2407TIP3   OH228711   0.511   1.692  11.888 -0.1074  0.3407  0.0360
 2407TIP3    H128712   0.459   1.688  11.808  0.8309  0.0097 -0.5724
 2407TIP3    H228713   0.496   1.608  11.930 -1.9229  1.1279  1.0933
 2408TIP3   OH228714   3.498   3.262  11.104 -0.1454  0.0312  0.4808
 2408TIP3    H128715   3.419   3.227  11.062 -0.5179  1.5191 -0.1260
 2408TIP3    H228716   3.510   3.208  11.182 -0.9373 -1.1376 -0.1826
 2409TIP3   OH228717   1.686   6.495  12.845 -0.4981  0.7361 -0.0010
 2409TIP3    H128718   1.610   6.503  12.902  0.8703  2.7349  1.7400
 2409TIP3    H228719   1.657   6.528  12.760 -1.9427 -0.0180  0.1716
 2410TIP3   OH228720   0.267   4.130  16.849  0.6416 -0.1945 -0.0058
 2410TIP3    H128721   0.310   4.160  16.929  0.1562  0.8743 -0.1149
 2410TIP3    H228722   0.330   4.147  16.779  1.4881 -2.1289  0.2534
 2411TIP3   OH228723   0.032   6.693   0.256 -0.2611 -0.1629 -0.0262
 2411TIP3    H128724   0.093   6.733   0.318 -1.0263  0.5691  0.2636
 2411TIP3    H228725  -0.028   6.642   0.310  0.6436 -1.6897 -0.3826
 2412TIP3   OH228726   2.529   0.300   2.872 -0.4708 -0.0841  0.2441
 2412TIP3    H128727   2.460   0.300   2.938 -0.2778  0.1510  0.4493
 2412TIP3    H228728   2.581   0.222   2.892  1.5395  1.6653  2.4628
 2413TIP3   OH228729   3.590   3.792  16.285 -0.2184 -0.4708 -0.5917
 2413TIP3    H128730   3.664   3.734  16.302 -0.1278 -0.6123 -1.4503
 2413TIP3    H228731   3.531   3.778  16.360 -0.4938 -2.1386 -1.0761
 2414TIP3   OH228732   1.102   1.018  15.106  0.6828  0.0473 -0.3635
 2414TIP3    H128733   1.135   0.929  15.119  0.0037  0.1263  2.4443
 2414TIP3    H228734   1.176   1.075  15.128  1.3734  0.2782 -2.9265
 2415TIP3   OH228735   5.379   1.485   1.795 -0.4511  0.4266 -0.2284
 2415TIP3    H128736   5.414   1.573   1.785  0.2318  0.1090 -0.7644
 2415TIP3    H228737   5.360   1.456   1.706  2.2570 -1.0971 -0.4120
 2416TIP3   OH228738   6.611   3.821  17.156 -0.2116  0.2983  0.0010
 2416TIP3    H128739   6.541   3.760  17.179  0.0729 -1.5819 -3.3495
 2416TIP3    H228740   6.692   3.769  17.166  0.3686  1.2658  0.4208
 2417TIP3   OH228741   5.346   2.704  13.056  0.4854 -0.2912 -0.5500
 2417TIP3    H128742   5.302   2.640  13.112 -1.5409  0.4231 -1.2646
 2417TIP3    H228743   5.335   2.788  13.101  0.3409  0.0315 -1.1732
 2418TIP3   OH228744   1.359   1.025   3.318  0.2727  0.0026 -0.5196
 2418TIP3    H128745   1.269   1.011   3.289  0.2688 -1.6576  0.2276
 2418TIP3    H228746   1.388   1.100   3.266 -0.8358 -0.7367 -2.3192
 2419TIP3   OH228747   4.956   6.061  13.166  0.3506  0.1306 -0.4706
 2419TIP3    H128748   5.046   6.033  13.154  0.1879 -0.4190 -0.4387
 2419TIP3    H228749   4.962   6.148  13.205  0.8635 -0.1172  0.0079
 2420TIP3   OH228750   5.667   3.954  12.751 -0.1448  0.5017 -0.1969
 2420TIP3    H128751   5.621   4.027  12.710 -0.1099  1.2491  1.0335
 2420TIP3    H228752   5.656   3.969  12.845 -0.7820 -1.4930  0.0936
 2421TIP3   OH228753   2.693   0.161  16.257 -0.7318 -0.0465 -0.0952
 2421TIP3    H128754   2.716   0.086  16.203 -0.8896 -0.2961  0.1779
 2421TIP3    H228755   2.604   0.183  16.231 -1.7897 -1.7596  1.7986
 2422TIP3   OH228756   4.912   4.739   1.865 -0.2863  0.2031  0.3970
 2422TIP3    H128757   4.899   4.778   1.778  0.5180  1.3013  0.7443
 2422TIP3    H228758   4.984   4.677   1.853 -0.4226  0.0827  0.2009
 2423TIP3   OH228759   1.257   1.411  11.410 -0.0582 -0.3953 -0.0048
 2423TIP3    H128760   1.265   1.341  11.475  1.4664 -1.0264 -0.8318
 2423TIP3    H228761   1.334   1.466  11.424 -0.5103  0.3225 -0.3015
 2424TIP3   OH228762   4.672   5.313   6.382  0.5155 -0.2700  0.4342
 2424TIP3    H128763   4.652   5.256   6.457 -1.7032  1.2099  1.0932
 2424TIP3    H228764   4.716   5.389   6.421 -0.4660  0.4110  0.2524
 2425TIP3   OH228765   5.932   6.543   3.884  0.3823 -0.6672  0.0990
 2425TIP3    H128766   5.890   6.587   3.958  0.9500 -4.3561  2.8722
 2425TIP3    H228767   6.022   6.528   3.912  0.9854 -1.1206 -1.8840
 2426TIP3   OH228768   0.320   6.194   0.418 -0.1710 -0.5073 -0.5264
 2426TIP3    H128769   0.289   6.105   0.400 -1.9073 -0.1957  0.6839
 2426TIP3    H228770   0.240   6.246   0.426  0.5858  0.3792  2.5787
 2427TIP3   OH228771   0.234   6.510  17.049 -0.8598 -0.1741 -0.2003
 2427TIP3    H128772   0.251   6.554  17.133 -0.1959 -1.7104  0.5062
 2427TIP3    H228773   0.138   6.505  17.044 -0.9106  0.1573  0.3241
 2428TIP3   OH228774   1.042   0.216  12.638  0.5608  0.6247  0.6492
 2428TIP3    H128775   0.953   0.224  12.604  1.1933  0.8174 -1.0613
 2428TIP3    H228776   1.074   0.133  12.601  1.1621  0.6771  1.0486
 2429TIP3   OH228777   1.629   3.748   0.195  0.0696 -0.1711 -0.1516
 2429TIP3    H128778   1.651   3.713   0.109 -0.5984 -0.0468 -0.3799
 2429TIP3    H228779   1.653   3.679   0.257  3.1273  0.7568 -0.1526
 2430TIP3   OH228780   2.711   6.129   4.933 -0.0678  0.6766  0.0104
 2430TIP3    H128781   2.755   6.140   4.849  0.2998 -0.8088 -0.0160
 2430TIP3    H228782   2.746   6.199   4.989 -1.2369  2.4760 -1.3949
 2431TIP3   OH228783   4.863   1.703   0.949  0.1159 -0.3873  0.3487
 2431TIP3    H128784   4.913   1.675   1.026 -1.7846  0.8547  2.1238
 2431TIP3    H228785   4.849   1.796   0.962 -1.1734 -0.3708 -0.9681
 2432TIP3   OH228786   3.722   0.942  16.426 -0.0655  0.2156 -0.7168
 2432TIP3    H128787   3.664   0.979  16.359  1.4068  0.6380 -1.8017
 2432TIP3    H228788   3.701   0.848  16.426 -0.7819  0.3649 -1.0354
 2433TIP3   OH228789   6.183   4.410  13.679 -0.1445  0.5491  0.0239
 2433TIP3    H128790   6.145   4.322  13.666  0.6997 -0.1553  1.9755
 2433TIP3    H228791   6.180   4.450  13.592 -1.2204 -1.1340 -0.7765
 2434TIP3   OH228792   3.731   4.401   0.794 -0.4025  0.5975  0.3993
 2434TIP3    H128793   3.807   4.394   0.851  0.3076  1.5927 -0.3766
 2434TIP3    H228794   3.666   4.448   0.846  0.4601  2.0593  0.2344
 2435TIP3   OH228795   2.575   0.501  13.252 -0.1808  0.1161 -0.6915
 2435TIP3    H128796   2.534   0.414  13.259 -1.0522  0.6263  1.1162
 2435TIP3    H228797   2.669   0.484  13.260 -0.4308 -0.4781  3.6466
 2436TIP3   OH228798   6.117   4.316   0.464 -0.1875  0.3282 -0.4759
 2436TIP3    H128799   6.075   4.345   0.383  0.2754 -1.1568 -1.2881
 2436TIP3    H228800   6.062   4.243   0.494  0.4022 -0.0147 -0.2041
 2437TIP3   OH228801   2.916   5.945   4.383 -0.0623  0.0027  0.1891
 2437TIP3    H128802   2.898   5.862   4.338 -0.8363 -0.8716  1.9969
 2437TIP3    H228803   3.006   5.936   4.415 -0.1593 -0.1756  0.4177
 2438TIP3   OH228804   0.999   0.151   0.135  0.1641 -0.3147  0.0288
 2438TIP3    H128805   1.036   0.203   0.207  0.3790 -2.1545  1.3396
 2438TIP3    H228806   1.033   0.062   0.151  0.4680 -0.7335 -2.5534
 2439TIP3   OH228807   4.875   2.042  15.120 -0.1847 -0.0420 -0.3276
 2439TIP3    H128808   4.954   2.078  15.160 -0.7121 -2.0268  2.8144
 2439TIP3    H228809   4.803   2.083  15.168 -1.0459  0.2266 -1.7874
 2440TIP3   OH228810   0.250   1.207   4.232 -0.3735  0.1250 -0.2535
 2440TIP3    H128811   0.221   1.183   4.320 -0.1737 -2.1678 -0.7592
 2440TIP3    H228812   0.232   1.301   4.226  0.2728  0.5196  2.4784
 2441TIP3   OH228813   5.577   4.541   0.350  0.0783 -0.2995  0.4203
 2441TIP3    H128814   5.501   4.599   0.352  0.0401 -0.2038 -1.4109
 2441TIP3    H228815   5.539   4.454   0.336  0.2428 -0.4768  1.0533
 2442TIP3   OH228816   5.904   0.695   2.412 -0.1475 -0.0311 -0.4268
 2442TIP3    H128817   5.843   0.748   2.463  0.3359 -0.0140  0.1346
 2442TIP3    H228818   5.918   0.616   2.464  0.4013  0.0192 -0.4881
 2443TIP3   OH228819   0.452   5.026  12.573 -0.4105  0.1354 -0.6339
 2443TIP3    H128820   0.448   5.050  12.666  1.7920  0.4175 -0.5398
 2443TIP3    H228821   0.389   4.955  12.564  0.1809 -0.7427  1.3859
 2444TIP3   OH228822   4.518   0.573   3.503 -0.1305  0.7953  0.0291
 2444TIP3    H128823   4.526   0.560   3.598  1.2218  1.9873  0.1009
 2444TIP3    H228824   4.581   0.642   3.483  0.7143 -0.4770 -1.9761
 2445TIP3   OH228825   6.485   2.944   1.056 -0.1088 -0.1170  0.9024
 2445TIP3    H128826   6.500   3.029   1.015 -1.9030 -0.8008 -1.3915
 2445TIP3    H228827   6.401   2.954   1.101 -0.5696 -0.7803  0.2125
 2446TIP3   OH228828   2.578   5.165  13.863  0.2399 -0.0860  0.1026
 2446TIP3    H128829   2.522   5.090  13.843  0.6838 -0.3682 -0.1059
 2446TIP3    H228830   2.628   5.138  13.940 -0.5436  0.5071  0.8324
 2447TIP3   OH228831   4.191   1.261  16.886 -0.0407  0.9379  0.0084
 2447TIP3    H128832   4.261   1.210  16.928 -0.9795 -0.3824  0.0395
 2447TIP3    H228833   4.232   1.297  16.808  0.3613 -0.9927 -0.7391
 2448TIP3   OH228834   4.110   0.067   5.657 -0.1332 -0.6806  0.3615
 2448TIP3    H128835   4.118   0.008   5.582  0.9556 -1.4732  1.0830
 2448TIP3    H228836   4.184   0.046   5.713 -0.8175  0.0293  1.5845
 2449TIP3   OH228837   5.074   3.036   1.703  0.0898  0.5395  0.4641
 2449TIP3    H128838   4.999   2.981   1.728  0.1407 -0.7719 -1.9534
 2449TIP3    H228839   5.045   3.081   1.624  0.9554  2.1301  1.0153
 2450TIP3   OH228840   0.659   4.282  10.923 -0.3466  1.0641 -0.1065
 2450TIP3    H128841   0.631   4.331  10.845 -1.3974  0.8840  0.1404
 2450TIP3    H228842   0.743   4.320  10.946 -0.0827  1.2191 -1.2501
 2451TIP3   OH228843   4.143   5.423  16.136  0.2690  0.5299  0.1236
 2451TIP3    H128844   4.196   5.346  16.115  0.2947  1.1756 -2.6492
 2451TIP3    H228845   4.054   5.398  16.111  0.1932  1.1763 -0.3041
 2452TIP3   OH228846   1.739   3.507   2.684 -0.3902  0.1504  0.1789
 2452TIP3    H128847   1.707   3.596   2.670  1.3086  0.7892  0.1735
 2452TIP3    H228848   1.745   3.470   2.595  1.3908  0.9567 -0.0679
 2453TIP3   OH228849   1.835   6.023   4.250 -0.1071 -0.0437  0.2347
 2453TIP3    H128850   1.789   6.017   4.334  0.5000  0.6581  0.6278
 2453TIP3    H228851   1.875   5.937   4.239 -1.8729 -0.8401 -0.3511
 2454TIP3   OH228852   5.255   4.202  11.310  0.1730  0.3734  0.2725
 2454TIP3    H128853   5.263   4.218  11.216  0.1631  1.4185  0.4361
 2454TIP3    H228854   5.238   4.108  11.317  1.0926  0.1124 -0.7116
 2455TIP3   OH228855   6.081   6.681   2.720  0.1416  0.3356  0.3411
 2455TIP3    H128856   6.126   6.765   2.721  0.6054  0.1031  1.9897
 2455TIP3    H228857   6.151   6.616   2.728 -0.1730 -0.2656 -1.3316
 2456TIP3   OH228858   2.786   5.157  16.443  0.2958  0.4547 -0.0328
 2456TIP3    H128859   2.871   5.197  16.459 -0.1676  1.2084  0.6305
 2456TIP3    H228860   2.761   5.119  16.527 -1.2083  2.5888  0.5550
 2457TIP3   OH228861   2.500   3.408  14.327 -0.8367 -0.4410  0.4208
 2457TIP3    H128862   2.442   3.362  14.267 -0.6306 -0.8701  0.5431
 2457TIP3    H228863   2.567   3.446  14.271  0.2440 -2.1451  0.4806
 2458TIP3   OH228864   0.718   6.341   5.076 -0.3923  0.1751 -0.5664
 2458TIP3    H128865   0.689   6.251   5.092  0.5337 -0.2259 -1.0800
 2458TIP3    H228866   0.637   6.392   5.073 -0.8148 -0.2577  1.9006
 2459TIP3   OH228867   1.202   5.517  12.106 -0.2243 -0.1760 -0.0781
 2459TIP3    H128868   1.114   5.516  12.144 -0.5998  0.4097 -0.9093
 2459TIP3    H228869   1.257   5.478  12.174 -1.4300 -2.4794 -0.3079
 2460TIP3   OH228870   6.232   0.582   3.022  0.2976 -0.1155  0.0453
 2460TIP3    H128871   6.314   0.589   3.070  0.2066 -0.0488  0.1927
 2460TIP3    H228872   6.224   0.665   2.975  0.2481 -0.0676  0.1379
 2461TIP3   OH228873   2.782   1.062  17.151 -0.0701 -0.1642 -0.0770
 2461TIP3    H128874   2.797   1.066  17.056 -0.7495  2.2367 -0.1408
 2461TIP3    H228875   2.869   1.057  17.188  0.4409  2.0399 -0.7971
 2462TIP3   OH228876   0.136   4.333   2.073 -0.2766 -0.2646 -0.3260
 2462TIP3    H128877   0.069   4.276   2.037 -2.0956  0.5780  1.5473
 2462TIP3    H228878   0.088   4.398   2.124  1.9420  0.7239  0.6437
 2463TIP3   OH228879   4.179   3.599   5.144  0.4290 -0.2451  0.1879
 2463TIP3    H128880   4.207   3.529   5.086 -0.7074 -0.2051 -0.4434
 2463TIP3    H228881   4.084   3.600   5.136  0.2773  0.0305  1.7605
 2464TIP3   OH228882   4.179   3.685  16.949 -0.4177 -0.4856  0.9747
 2464TIP3    H128883   4.206   3.726  17.031 -0.6510  1.6870  0.0596
 2464TIP3    H228884   4.084   3.682  16.953 -0.4811  0.4297  0.4686
 2465TIP3   OH228885   5.048   3.610   2.355 -0.2705 -0.4527  0.1197
 2465TIP3    H128886   4.969   3.646   2.314  0.6994 -0.4134 -1.8434
 2465TIP3    H228887   5.020   3.525   2.390 -1.2163 -0.4183 -0.5062
 2466TIP3   OH228888   2.362   6.459  14.993  0.5169  0.8392 -0.5510
 2466TIP3    H128889   2.427   6.390  15.005  1.1718  1.4160 -0.7523
 2466TIP3    H228890   2.283   6.413  14.964 -1.5960 -0.9587  6.1419
 2467TIP3   OH228891   4.239   5.131  12.056 -0.7676  0.1690  0.0645
 2467TIP3    H128892   4.244   5.182  12.137  1.0892 -0.6692  0.5228
 2467TIP3    H228893   4.296   5.179  11.995 -0.3260 -0.4453 -0.0107
 2468TIP3   OH228894   3.488   6.539   4.450 -0.2536 -0.0988  0.1146
 2468TIP3    H128895   3.466   6.450   4.424 -0.0140 -0.1014 -0.0863
 2468TIP3    H228896   3.554   6.529   4.519 -1.1623 -0.0989  1.0123
 2469TIP3   OH228897   5.853   4.448  14.815  0.6376  0.2416 -0.0020
 2469TIP3    H128898   5.909   4.515  14.777  2.0992 -1.4289 -0.9073
 2469TIP3    H228899   5.898   4.420  14.894  0.3985 -0.1792 -0.0113
 2470TIP3   OH228900   6.706   1.393   1.221 -0.0579  0.6410 -0.7441
 2470TIP3    H128901   6.782   1.369   1.275 -0.5792  0.1272 -0.2217
 2470TIP3    H228902   6.709   1.333   1.147  1.5446  2.3372 -2.1727
 2471TIP3   OH228903   3.557   0.918  11.723 -0.8043  0.3124  0.0509
 2471TIP3    H128904   3.472   0.961  11.714 -0.8300  0.0845 -0.9361
 2471TIP3    H228905   3.580   0.930  11.815 -3.1406 -1.9342  1.0525
 2472TIP3   OH228906   2.655   3.396   5.113 -0.3983 -0.2338 -0.0533
 2472TIP3    H128907   2.665   3.393   5.018  0.4295  0.1021  0.0131
 2472TIP3    H228908   2.676   3.308   5.143  1.2483  0.1359 -0.0315
 2473TIP3   OH228909   3.432   3.576  13.539  0.2182  0.1709  0.2551
 2473TIP3    H128910   3.379   3.643  13.583  1.0181  0.5679  0.6364
 2473TIP3    H228911   3.375   3.542  13.470 -0.0754  1.5240 -0.2065
 2474TIP3   OH228912   6.215   5.272  16.174 -0.2895 -0.1755  0.1922
 2474TIP3    H128913   6.297   5.263  16.125  0.0462 -1.5180  0.9583
 2474TIP3    H228914   6.153   5.218  16.126 -0.0153 -1.3190  1.0782
 2475TIP3   OH228915   2.706   0.007  10.340  0.2332  0.0091 -0.0492
 2475TIP3    H128916   2.748  -0.075  10.311  2.2635  0.9917 -0.0778
 2475TIP3    H228917   2.620   0.005  10.300  1.2106 -0.8920 -2.2871
 2476TIP3   OH228918   4.998   5.124   1.591 -0.5272 -0.3204  0.2610
 2476TIP3    H128919   5.027   5.089   1.507  0.3882 -1.8254  1.1759
 2476TIP3    H228920   5.047   5.206   1.600 -0.1751 -0.4515 -0.3778
 2477TIP3   OH228921   5.022   1.863   3.771  0.2227  0.2066  0.4125
 2477TIP3    H128922   5.103   1.869   3.821  0.5113 -1.5771  0.2293
 2477TIP3    H228923   4.983   1.950   3.777  1.4084  0.6764  1.7493
 2478TIP3   OH228924   3.766   3.301  11.130 -0.4868  0.0249 -0.1584
 2478TIP3    H128925   3.807   3.311  11.044  0.0334 -0.7561 -0.0062
 2478TIP3    H228926   3.674   3.324  11.115 -0.2775  0.4779 -0.7890
 2479TIP3   OH228927   6.443   5.167  14.851 -0.6062 -0.5899 -0.1171
 2479TIP3    H128928   6.461   5.155  14.944  1.5238  1.1578 -0.2159
 2479TIP3    H228929   6.352   5.196  14.847 -0.5351 -0.0715  1.4879
 2480TIP3   OH228930   1.054   2.039   4.638 -0.7085 -0.2236 -0.5479
 2480TIP3    H128931   1.147   2.018   4.649 -0.8516 -0.9289 -0.5997
 2480TIP3    H228932   1.051   2.134   4.632  0.1756 -0.2520 -2.0235
 2481TIP3   OH228933   6.124   6.005  13.410 -0.3909 -0.3424 -0.3321
 2481TIP3    H128934   6.079   6.061  13.474 -0.4730  0.0522 -0.7279
 2481TIP3    H228935   6.142   5.924  13.458 -2.7428 -1.0604 -0.5347
 2482TIP3   OH228936   2.126   4.095   0.787  0.4661  0.5460  0.3091
 2482TIP3    H128937   2.145   4.167   0.847  1.5180  0.5365 -0.0057
 2482TIP3    H228938   2.035   4.073   0.806  1.0116 -0.0451  2.5558
 2483TIP3   OH228939   3.975   0.094  16.535 -0.1739  0.2571 -0.0689
 2483TIP3    H128940   3.964   0.019  16.593  0.5607  0.0189 -0.2349
 2483TIP3    H228941   4.069   0.109  16.532 -0.3842  2.6804  1.8716
 2484TIP3   OH228942   0.919   1.295   5.391 -0.0216  0.1141 -0.0068
 2484TIP3    H128943   0.898   1.271   5.300 -0.5896  0.1886  0.1026
 2484TIP3    H228944   0.851   1.253   5.443  0.2444  0.1615  0.3757
 2485TIP3   OH228945   5.922   1.624  15.687  0.2986 -0.0438  0.6382
 2485TIP3    H128946   5.895   1.538  15.655  0.4968  0.3742 -0.7036
 2485TIP3    H228947   5.844   1.679  15.679  0.6408  0.3426 -0.2034
 2486TIP3   OH228948   0.703   4.388  13.662  0.5759 -0.0567 -0.0111
 2486TIP3    H128949   0.720   4.406  13.570  1.6992  3.4721  0.7069
 2486TIP3    H228950   0.776   4.333  13.690  1.6342  0.9387 -0.7120
 2487TIP3   OH228951   0.552   3.329  10.679  0.0344 -0.2068  0.9005
 2487TIP3    H128952   0.535   3.276  10.601  0.0401 -0.1846  0.8843
 2487TIP3    H228953   0.487   3.300  10.743  0.1814 -0.3934  0.9669
 2488TIP3   OH228954   4.970   5.004   1.917 -0.5039 -0.1503 -0.5724
 2488TIP3    H128955   4.892   5.051   1.889 -0.2127 -0.5889 -2.2312
 2488TIP3    H228956   4.944   4.912   1.917 -0.2844 -0.2153 -0.0857
 2489TIP3   OH228957   4.000   2.038   1.336 -0.6620 -0.2160  0.3959
 2489TIP3    H128958   4.013   2.118   1.286  0.4949 -1.2084 -0.9812
 2489TIP3    H228959   3.907   2.016   1.324 -0.5761 -0.0210 -0.6956
 2490TIP3   OH228960   3.742   2.113  11.699  0.3868  0.1766 -0.0843
 2490TIP3    H128961   3.653   2.078  11.700  0.4934 -0.1641  2.1267
 2490TIP3    H228962   3.760   2.130  11.606 -0.5358 -3.4306 -1.0951
 2491TIP3   OH228963   2.181   1.139   6.007 -0.4676  0.3634  0.8815
 2491TIP3    H128964   2.218   1.208   6.062 -2.2357  0.2435  2.3201
 2491TIP3    H228965   2.235   1.062   6.025  0.1848  0.8272  0.9359
 2492TIP3   OH228966   5.338   5.153  16.358 -0.2086 -0.2217  0.2843
 2492TIP3    H128967   5.249   5.131  16.385 -0.0953  1.0817  1.8479
 2492TIP3    H228968   5.332   5.244  16.328  0.6536  0.0095  0.7867
 2493TIP3   OH228969   3.440   0.845  12.256  0.1282 -0.1855 -0.4496
 2493TIP3    H128970   3.525   0.851  12.213  0.5756 -1.2572  0.2268
 2493TIP3    H228971   3.403   0.933  12.250  0.7975  0.0331 -1.7235
 2494TIP3   OH228972   2.418   2.151   2.416  0.0185 -0.1031  0.0413
 2494TIP3    H128973   2.341   2.108   2.379  0.2473 -1.4915  1.1067
 2494TIP3    H228974   2.492   2.103   2.380  0.4849  1.7994 -1.7028
 2495TIP3   OH228975   2.562   3.304  13.660  0.5248  0.4958  0.2058
 2495TIP3    H128976   2.515   3.361  13.599 -2.4210 -1.6775  0.2369
 2495TIP3    H228977   2.537   3.336  13.747 -0.9318 -0.6163  0.2227
 2496TIP3   OH228978   1.435   1.749  12.651  0.4419 -0.0027  0.3502
 2496TIP3    H128979   1.370   1.762  12.582 -0.0375  0.6524  0.9095
 2496TIP3    H228980   1.425   1.658  12.678  1.5623 -0.6815 -1.3615
 2497TIP3   OH228981   4.403   6.622   3.863  0.3279 -0.3591 -0.4341
 2497TIP3    H128982   4.368   6.710   3.869 -0.3651 -0.6609  0.0811
 2497TIP3    H228983   4.497   6.634   3.855  0.0693  0.5058 -2.9497
 2498TIP3   OH228984   3.982   4.439   0.895  0.4934  0.4647 -0.7487
 2498TIP3    H128985   3.993   4.439   0.990 -1.5843  0.0287 -0.4585
 2498TIP3    H228986   3.977   4.531   0.871 -1.8383  0.6021  0.0117
 2499TIP3   OH228987   0.472   1.692  16.673  0.6413  0.0718 -1.0988
 2499TIP3    H128988   0.522   1.657  16.747  0.0483 -1.0613 -1.2203
 2499TIP3    H228989   0.476   1.623  16.607 -0.4294  0.3000 -1.4093
 2500TIP3   OH228990   4.898   2.802  12.472  0.7441  0.4498 -0.1760
 2500TIP3    H128991   4.864   2.748  12.543  1.7770  0.1106  0.0773
 2500TIP3    H228992   4.846   2.882  12.476 -0.1414 -0.1204  0.0698
 2501TIP3   OH228993   0.803   1.917   5.191 -0.0678 -0.4129 -0.0478
 2501TIP3    H128994   0.833   1.943   5.278  1.5856  0.5345 -0.8610
 2501TIP3    H228995   0.866   1.851   5.163 -0.0332 -0.0293 -0.9011
 2502TIP3   OH228996   6.323   1.411   0.300 -0.1186 -0.1624  0.0025
 2502TIP3    H128997   6.390   1.479   0.305  0.3625 -0.5187 -1.1818
 2502TIP3    H228998   6.369   1.331   0.326 -0.3770 -0.2345  0.2460
 2503TIP3   OH228999   5.466   2.405   2.511 -0.2858  0.0842 -0.4118
 2503TIP3    H129000   5.547   2.378   2.555  0.9753  0.9700 -2.0650
 2503TIP3    H229001   5.423   2.322   2.489  2.1012 -0.6795 -2.8571
 2504TIP3   OH229002   1.276   1.234  10.768 -0.3733  0.6540  0.0064
 2504TIP3    H129003   1.319   1.282  10.698 -0.3602  1.4963  0.5774
 2504TIP3    H229004   1.183   1.242  10.750 -0.3583  0.5659 -0.1108
 2505TIP3   OH229005   0.880   0.713  15.027  0.4351 -0.1470 -0.3054
 2505TIP3    H129006   0.858   0.801  15.056 -0.0514 -0.9012  1.8321
 2505TIP3    H229007   0.975   0.707  15.039  0.3028 -0.2956  0.8333
 2506TIP3   OH229008   1.974   3.729  12.044  0.1129  0.4944  0.6192
 2506TIP3    H129009   1.917   3.660  12.008  3.1002 -2.6923  1.4221
 2506TIP3    H229010   2.037   3.746  11.975  0.5145  1.0620  1.1177
 2507TIP3   OH229011   5.132   2.185   2.617 -0.1368 -0.1168  0.2203
 2507TIP3    H129012   5.219   2.163   2.586  0.3848  0.4361  1.2378
 2507TIP3    H229013   5.088   2.224   2.541 -0.3947 -2.6183 -1.0423
 2508TIP3   OH229014   2.578   2.329  14.313 -0.6753 -0.4161  0.0299
 2508TIP3    H129015   2.560   2.414  14.275  0.3171 -1.2849 -2.6064
 2508TIP3    H229016   2.492   2.292  14.332 -1.1454  0.7209  0.2078
 2509TIP3   OH229017   2.337   3.382   5.976 -0.2814  0.4042  0.1547
 2509TIP3    H129018   2.427   3.357   5.996 -0.7397 -3.4589 -1.6280
 2509TIP3    H229019   2.304   3.419   6.057  2.5104  0.7748  1.2485
 2510TIP3   OH229020   1.995   2.640  11.579 -0.3214 -0.3344 -0.3261
 2510TIP3    H129021   1.992   2.641  11.484 -1.5036  0.1178 -0.3055
 2510TIP3    H229022   1.993   2.548  11.603  1.0368 -0.4849 -0.7477
 2511TIP3   OH229023   3.430   6.781   2.031 -0.2981  0.2537  0.5186
 2511TIP3    H129024   3.459   6.727   2.104  1.1223 -2.4940 -1.8956
 2511TIP3    H229025   3.509   6.828   2.003 -0.8019  1.1906  0.6170
 2512TIP3   OH229026   6.592   6.302   2.228  0.2241 -0.0576  0.2295
 2512TIP3    H129027   6.523   6.327   2.167  1.0485  2.7612  0.2949
 2512TIP3    H229028   6.546   6.288   2.311 -0.4114  0.6889  0.0192
 2513TIP3   OH229029   4.290   2.876   6.075  0.3891 -0.1604  0.3460
 2513TIP3    H129030   4.307   2.831   5.992 -1.6663 -1.9226  0.8087
 2513TIP3    H229031   4.377   2.885   6.115  1.4570  0.9086 -2.0007
 2514TIP3   OH229032   6.468   5.693   4.690  0.1173  0.0565  0.1962
 2514TIP3    H129033   6.543   5.744   4.721  0.2064  1.8901 -2.6432
 2514TIP3    H229034   6.395   5.724   4.743  0.5075  1.9567 -0.2952
 2515TIP3   OH229035   4.741   4.530   3.045 -0.3712  0.6958 -0.1745
 2515TIP3    H129036   4.649   4.504   3.052 -0.6195  1.2178 -1.2617
 2515TIP3    H229037   4.754   4.592   3.116 -0.4484 -0.4861  0.8933
 2516TIP3   OH229038   0.450   4.490   5.141  0.5311  0.5598 -0.4377
 2516TIP3    H129039   0.397   4.568   5.159 -0.2826  0.1002 -0.7700
 2516TIP3    H229040   0.538   4.524   5.125  0.5972  1.2502  1.2066
 2517TIP3   OH229041   2.102   5.223  14.463 -0.3348  0.1515  0.1275
 2517TIP3    H129042   2.095   5.196  14.554  0.8509  0.3792  0.3059
 2517TIP3    H229043   2.035   5.290  14.451 -0.8053 -0.2178  0.7039
 2518TIP3   OH229044   0.293   3.582   6.569 -0.0954  0.5871 -0.0014
 2518TIP3    H129045   0.285   3.487   6.560 -1.1687  0.4546  1.8286
 2518TIP3    H229046   0.356   3.593   6.640  1.8880  1.3505 -1.7615
 2519TIP3   OH229047   0.614   6.315  12.182  0.3343  0.0719  0.0304
 2519TIP3    H129048   0.541   6.253  12.182 -0.2266  0.6634 -1.6298
 2519TIP3    H229049   0.587   6.385  12.241  0.7404 -0.9731  1.4982
 2520TIP3   OH229050   3.009   3.613   1.273 -0.3665 -0.6674 -0.2871
 2520TIP3    H129051   3.101   3.601   1.295 -0.1913 -1.8576 -1.5178
 2520TIP3    H229052   2.971   3.655   1.350  1.2520  0.1088  0.1317
 2521TIP3   OH229053   5.796   4.886   0.163  0.8016  0.7563  1.1844
 2521TIP3    H129054   5.804   4.924   0.075 -0.1765 -0.4915  0.5145
 2521TIP3    H229055   5.869   4.825   0.170  0.5870  0.4774  1.0243
 2522TIP3   OH229056   4.233   4.091   5.204 -0.7101 -0.2634 -0.0853
 2522TIP3    H129057   4.185   4.081   5.287 -0.2238 -1.6443  0.0571
 2522TIP3    H229058   4.325   4.075   5.228 -0.1561  1.9953 -0.4119
 2523TIP3   OH229059   3.026   1.961  16.707  0.3660 -0.1708  0.6567
 2523TIP3    H129060   3.105   1.909  16.724  0.7972 -0.2422 -1.2730
 2523TIP3    H229061   3.042   2.044  16.751  1.3383 -0.3474  0.6648
 2524TIP3   OH229062   0.912   6.718   1.993  0.1905  0.1781 -0.6969
 2524TIP3    H129063   0.920   6.623   2.001 -1.0452  0.2169  2.2776
 2524TIP3    H229064   0.849   6.731   1.922 -2.3286 -1.4697  1.0775
 2525TIP3   OH229065   4.599   5.714   0.829  0.4297  0.3537 -0.2306
 2525TIP3    H129066   4.513   5.750   0.804  0.1234 -0.0566  0.2200
 2525TIP3    H229067   4.607   5.733   0.922  0.0235 -1.2046  0.1514
 2526TIP3   OH229068   4.493   0.610  10.285  0.5108 -0.2884 -0.3560
 2526TIP3    H129069   4.486   0.705  10.298 -1.1399 -0.3728 -0.5008
 2526TIP3    H229070   4.418   0.573  10.331  1.8634 -1.6734  0.8523
 2527TIP3   OH229071   3.831   6.042  15.020 -0.4601 -0.3000 -0.4456
 2527TIP3    H129072   3.796   6.071  15.104  0.2526  0.7091 -0.4748
 2527TIP3    H229073   3.842   6.122  14.970  0.5087 -0.7274 -0.9518
 2528TIP3   OH229074   5.654   5.758  11.502  0.3525  0.4282 -0.1621
 2528TIP3    H129075   5.731   5.805  11.534  0.4436 -0.1324  0.4657
 2528TIP3    H229076   5.580   5.802  11.543  0.3541  0.7552 -0.5017
 2529TIP3   OH229077   5.579   2.779  12.132  0.1234 -0.0736  0.6155
 2529TIP3    H129078   5.549   2.869  12.145  0.1783 -0.0787  0.7876
 2529TIP3    H229079   5.529   2.747  12.057  1.9583  0.9524 -1.1369
 2530TIP3   OH229080   2.052   5.910   4.525  0.5927  0.4128 -0.3002
 2530TIP3    H129081   2.061   5.869   4.439 -0.6354 -1.7261  0.5079
 2530TIP3    H229082   1.962   5.943   4.527  0.5988  0.4126  0.1649
 2531TIP3   OH229083   3.749   0.261  13.438  0.2187  0.0727  0.3150
 2531TIP3    H129084   3.803   0.340  13.449 -1.2543  1.2658 -0.5921
 2531TIP3    H229085   3.799   0.192  13.481  1.1285  1.6762  1.9949
 2532TIP3   OH229086   0.704   2.486  17.101  0.3673  0.9066 -0.0588
 2532TIP3    H129087   0.659   2.456  17.022 -1.4075  1.9440  0.5052
 2532TIP3    H229088   0.775   2.423  17.114  1.0096  0.9797 -2.7272
 2533TIP3   OH229089   2.234   1.639  13.281  0.2219  0.1324  0.2350
 2533TIP3    H129090   2.191   1.721  13.257  0.6146  0.0995 -0.5976
 2533TIP3    H229091   2.166   1.572  13.274  0.5422 -0.0450 -1.8268
 2534TIP3   OH229092   1.586   4.035  12.455  0.0702 -0.4906  0.2049
 2534TIP3    H129093   1.649   3.963  12.454  0.2983 -0.3423  1.6574
 2534TIP3    H229094   1.510   4.000  12.502 -0.3059 -0.1647 -0.1559
 2535TIP3   OH229095   4.081   5.967  14.825 -0.3692  0.3286 -0.3344
 2535TIP3    H129096   4.082   5.880  14.784 -0.5789 -0.4757  1.2784
 2535TIP3    H229097   4.033   6.022  14.763 -2.8478 -1.4175 -0.1433
 2536TIP3   OH229098   6.176   4.444  11.226 -0.1913  0.3572  0.2689
 2536TIP3    H129099   6.183   4.434  11.131  0.9845  0.7067  0.3069
 2536TIP3    H229100   6.082   4.440  11.244 -0.4251  0.3430 -0.9145
 2537TIP3   OH229101   5.227   5.403  16.848 -0.5152  0.0152 -0.9402
 2537TIP3    H129102   5.204   5.421  16.939 -0.4139  0.3685 -0.9823
 2537TIP3    H229103   5.304   5.458  16.831 -1.4777  1.1642 -1.7087
 2538TIP3   OH229104   2.963   0.076   1.135 -0.2835  0.0897 -0.5291
 2538TIP3    H129105   2.968   0.172   1.134  1.9933  0.0199 -1.1778
 2538TIP3    H229106   3.034   0.049   1.193 -1.5578 -1.2256  0.4828
 2539TIP3   OH229107   3.744   4.807  14.189 -0.1376 -0.5089  0.1136
 2539TIP3    H129108   3.693   4.789  14.111 -0.5097 -0.6651  0.3903
 2539TIP3    H229109   3.828   4.838  14.156 -0.2405 -0.7110 -0.3471
 2540TIP3   OH229110   1.936   1.643   1.593  0.0945  0.1617 -0.0650
 2540TIP3    H129111   2.008   1.671   1.649 -0.1531 -2.5372  1.7566
 2540TIP3    H229112   1.857   1.656   1.645 -0.3623 -0.4314 -0.5873
 2541TIP3   OH229113   2.937   5.188   0.813  0.3647  0.1731 -0.5764
 2541TIP3    H129114   2.887   5.115   0.851 -0.5144  0.9995 -0.0976
 2541TIP3    H229115   2.947   5.250   0.885  0.3686  0.9037 -1.1951
 2542TIP3   OH229116   1.395   0.441  11.041 -0.4767  0.7004  0.1335
 2542TIP3    H129117   1.382   0.352  11.006  1.8030  0.6552 -0.7324
 2542TIP3    H229118   1.413   0.427  11.133 -1.6417  0.4219  0.3427
 2543TIP3   OH229119   4.246   4.445  10.272  0.6134  0.3287 -0.3354
 2543TIP3    H129120   4.288   4.523  10.309  0.4428  0.4875 -0.4751
 2543TIP3    H229121   4.184   4.417  10.339  0.8433  0.1736 -0.1848
 2544TIP3   OH229122   5.429   5.975  17.135 -0.3397 -0.1143 -0.0187
 2544TIP3    H129123   5.371   6.036  17.089  2.6654  3.4726  0.4081
 2544TIP3    H229124   5.468   5.922  17.065  0.3294  1.6995 -1.1044
 2545TIP3   OH229125   2.625   4.778  17.254 -0.3824  0.0764 -0.1214
 2545TIP3    H129126   2.617   4.683  17.242 -1.1425 -0.2890  2.6040
 2545TIP3    H229127   2.551   4.814  17.205 -1.1030 -0.8977  0.2147
 2546TIP3   OH229128   1.730   0.270  15.758  0.1566  0.0834  0.5328
 2546TIP3    H129129   1.702   0.305  15.843  3.8918  0.0496  1.9506
 2546TIP3    H229130   1.738   0.348  15.703 -0.7726  0.2876  0.6593
 2547TIP3   OH229131   0.009   3.522   5.875  0.2168 -0.1381 -0.5687
 2547TIP3    H129132   0.040   3.569   5.798  0.7800 -1.8296 -1.4228
 2547TIP3    H229133  -0.086   3.537   5.875 -0.1182 -1.7322 -2.8068
 2548TIP3   OH229134   4.021   4.279   1.735  0.3360  0.0386 -0.1123
 2548TIP3    H129135   4.044   4.290   1.827  0.9239  0.0675 -0.2552
 2548TIP3    H229136   4.062   4.353   1.691  0.9211 -0.5238 -0.5317
 2549TIP3   OH229137   5.833   6.049   1.112  0.2601  0.3178  0.3741
 2549TIP3    H129138   5.778   5.995   1.057 -0.6206  1.0255  0.5366
 2549TIP3    H229139   5.873   6.112   1.052 -0.6282  1.0304  0.5074
 2550TIP3   OH229140   5.095   2.285   4.983  0.1441  0.3764  0.3053
 2550TIP3    H129141   5.148   2.295   5.063  0.4943  1.5935 -0.0619
 2550TIP3    H229142   5.153   2.314   4.913 -0.7240  0.9285 -0.2001
 2551TIP3   OH229143   1.127   6.655  14.616 -0.1207  0.4121  0.5629
 2551TIP3    H129144   1.061   6.685  14.679  0.4736  2.2342  0.3772
 2551TIP3    H229145   1.201   6.628  14.670 -0.9776 -1.7138  0.7769
 2552TIP3   OH229146   4.897   1.670   3.198  0.0417  0.4485  0.1648
 2552TIP3    H129147   4.878   1.666   3.291 -0.6228  0.8805  0.0519
 2552TIP3    H229148   4.828   1.725   3.161 -0.5730 -0.8945 -0.8077
 2553TIP3   OH229149   6.743   6.261  14.354  0.5989 -0.2997  0.4539
 2553TIP3    H129150   6.754   6.339  14.299 -0.1605 -0.7124 -0.3054
 2553TIP3    H229151   6.812   6.268  14.419  0.3111  1.2072  0.6315
 2554TIP3   OH229152   2.994   0.789   4.745 -0.0632  0.1662 -0.6475
 2554TIP3    H129153   3.074   0.769   4.697 -0.3799 -2.9667 -0.0845
 2554TIP3    H229154   2.924   0.785   4.680 -0.2115 -1.6058 -0.4213
 2555TIP3   OH229155   4.379   2.623  15.907 -0.0517  0.4488  0.1532
 2555TIP3    H129156   4.430   2.656  15.981 -0.6594 -1.9568  1.7676
 2555TIP3    H229157   4.427   2.653  15.830  1.2734  2.0546  1.5193
 2556TIP3   OH229158   3.714   3.748  14.319  0.0126 -0.2542  0.1895
 2556TIP3    H129159   3.795   3.699  14.334  0.4116  0.0718 -0.8336
 2556TIP3    H229160   3.740   3.823  14.266 -1.0525 -0.4819 -0.7103
 2557TIP3   OH229161   6.224   4.098   4.347  0.5683  0.5780 -0.0210
 2557TIP3    H129162   6.136   4.105   4.311  0.1141  2.9538  1.3592
 2557TIP3    H229163   6.281   4.137   4.280  0.3966  0.3372 -0.3089
 2558TIP3   OH229164   0.318   4.480   2.808 -0.6416  0.5845  0.0186
 2558TIP3    H129165   0.275   4.395   2.804  0.0232 -0.1507  3.9981
 2558TIP3    H229166   0.407   4.464   2.776 -0.4865 -0.2963  0.8442
 2559TIP3   OH229167   3.773   6.388   2.964  0.1042 -0.7278 -0.5460
 2559TIP3    H129168   3.746   6.375   2.873  1.1966  1.5492 -1.2654
 2559TIP3    H229169   3.869   6.391   2.960  0.1179  0.9644  0.3941
 2560TIP3   OH229170   2.371   2.174  14.544 -0.6112  0.4600 -0.1311
 2560TIP3    H129171   2.443   2.110  14.548 -0.7457  0.0926 -2.3444
 2560TIP3    H229172   2.402   2.248  14.596  0.3653 -0.6234  0.8961
 2561TIP3   OH229173   0.474   2.379   5.975 -0.0197 -0.5120 -0.1234
 2561TIP3    H129174   0.461   2.419   6.061 -1.3737 -0.2501 -0.4224
 2561TIP3    H229175   0.558   2.333   5.982  1.0114  1.3514  0.6224
 2562TIP3   OH229176   4.887   5.393  12.287 -0.0917  0.7199 -0.2413
 2562TIP3    H129177   4.816   5.329  12.287 -1.1313  1.8196  0.3480
 2562TIP3    H229178   4.950   5.359  12.350 -0.4345  0.0856 -0.2324
 2563TIP3   OH229179   4.983   0.571   5.409  0.0754  0.0522 -0.1044
 2563TIP3    H129180   4.889   0.579   5.393  0.2021 -0.4023 -1.1594
 2563TIP3    H229181   4.995   0.604   5.498 -0.8049  2.0694 -0.6682
 2564TIP3   OH229182   5.538   3.025   1.593  0.1233 -0.6615  0.0244
 2564TIP3    H129183   5.476   2.967   1.549 -1.2775  0.8182 -0.0775
 2564TIP3    H229184   5.485   3.071   1.658  1.6094 -0.9248  1.4917
 2565TIP3   OH229185   5.880   5.799  14.451 -0.2860  0.2575 -0.3036
 2565TIP3    H129186   5.938   5.856  14.502  0.9164 -0.5239 -0.7520
 2565TIP3    H229187   5.924   5.713  14.452 -0.2471  0.1899 -2.5639
 2566TIP3   OH229188   0.280   6.002   1.655 -0.2996  0.7858  0.1500
 2566TIP3    H129189   0.255   5.950   1.578  1.1771 -0.4531  0.4546
 2566TIP3    H229190   0.344   5.948   1.701  0.2658  2.3092  1.2501
 2567TIP3   OH229191   2.713   2.204  16.082  0.7982 -0.3697 -0.3959
 2567TIP3    H129192   2.765   2.255  16.019 -1.2588  0.9072 -1.1711
 2567TIP3    H229193   2.705   2.118  16.043  0.1966  0.1852 -1.5453
 2568TIP3   OH229194   5.061   4.972   3.405  0.0973  0.0763 -0.0779
 2568TIP3    H129195   5.026   4.962   3.316  0.6849  1.2730 -0.4654
 2568TIP3    H229196   5.155   4.983   3.392  0.3161 -0.6834  0.7734
 2569TIP3   OH229197   3.698   6.608  12.150 -0.4416  0.7358  0.1889
 2569TIP3    H129198   3.739   6.572  12.071  0.5767 -0.0108  1.0203
 2569TIP3    H229199   3.619   6.651  12.118 -0.6221 -0.4635 -1.1197
 2570TIP3   OH229200   2.267   0.467  13.189 -0.0022 -0.1463  0.1612
 2570TIP3    H129201   2.172   0.473  13.179 -0.1253 -0.5191  1.0134
 2570TIP3    H229202   2.301   0.479  13.100 -0.7614  1.3894  0.0483
 2571TIP3   OH229203   5.976   5.908  17.152  0.2945 -0.1137 -0.2093
 2571TIP3    H129204   6.047   5.876  17.208  1.0857  1.6448 -0.1456
 2571TIP3    H229205   5.967   6.001  17.176 -3.0137 -0.5731  0.8197
 2572TIP3   OH229206   1.548   3.467   4.637  0.4119 -0.3219 -0.3428
 2572TIP3    H129207   1.565   3.546   4.689  0.6314 -0.0950 -0.7570
 2572TIP3    H229208   1.612   3.403   4.670  1.1760  0.1055 -0.9509
 2573TIP3   OH229209   6.090   6.043  14.222 -0.5922 -0.3309  0.0966
 2573TIP3    H129210   6.141   5.985  14.278 -1.7300 -0.6116  0.8957
 2573TIP3    H229211   5.999   6.018  14.239 -1.0291  0.6247 -0.7375
 2574TIP3   OH229212   0.611   1.387  13.325  0.2022 -0.0630 -0.3170
 2574TIP3    H129213   0.700   1.389  13.290  0.2107  0.6573 -0.2587
 2574TIP3    H229214   0.612   1.313  13.386  1.0595  0.5576  0.4538
 2575TIP3   OH229215   2.841   6.135   0.388  0.9444 -0.2474  0.1738
 2575TIP3    H129216   2.901   6.075   0.433 -0.8678 -3.2831 -1.1148
 2575TIP3    H229217   2.804   6.188   0.458  2.9064 -0.3133  1.3502
 2576TIP3   OH229218   1.312   6.756  16.112  0.2597 -0.1052  0.6234
 2576TIP3    H129219   1.376   6.790  16.175 -0.4581  0.8161  0.8792
 2576TIP3    H229220   1.365   6.712  16.046  1.1395  0.3709  0.9925
 2577TIP3   OH229221   0.256   0.233  16.635  0.0099  0.2762  0.9607
 2577TIP3    H129222   0.214   0.296  16.694  0.3360  0.7343  0.7080
 2577TIP3    H229223   0.346   0.227  16.667  0.0471  0.1290  0.8292
 2578TIP3   OH229224   3.479   0.700  17.248  0.0760 -0.3542 -0.0429
 2578TIP3    H129225   3.462   0.745  17.165 -0.1241 -0.2313  0.0646
 2578TIP3    H229226   3.552   0.641  17.229  0.8795  0.5965  0.0286
 2579TIP3   OH229227   5.459   4.806   1.422 -0.4393  0.7441  0.0084
 2579TIP3    H129228   5.531   4.818   1.485 -0.9814 -0.7196  0.9633
 2579TIP3    H229229   5.503   4.779   1.341  0.0969 -0.7186  0.7457
 2580TIP3   OH229230   1.866   6.635  16.649  0.3001  0.7240 -0.2686
 2580TIP3    H129231   1.846   6.610  16.559 -1.3427  0.5941  0.1061
 2580TIP3    H229232   1.807   6.708  16.668 -0.9555 -0.6286  1.3849
 2581TIP3   OH229233   0.280   5.286  13.572 -0.0290  0.0278 -0.3675
 2581TIP3    H129234   0.374   5.289  13.587 -0.1804  0.3952  0.5718
 2581TIP3    H229235   0.259   5.193  13.566  0.5697 -0.0338 -1.8281
 2582TIP3   OH229236   1.372   3.694   2.242 -0.0312  0.7648  0.0309
 2582TIP3    H129237   1.280   3.709   2.264  0.1080  1.0435  0.4348
 2582TIP3    H229238   1.420   3.758   2.294  0.7304 -2.0227  3.1331
 2583TIP3   OH229239   4.587   1.618   1.454  0.1852  0.1415  0.2024
 2583TIP3    H129240   4.553   1.529   1.466  0.2073  0.0455 -0.3977
 2583TIP3    H229241   4.628   1.640   1.537 -2.0554  0.5741  1.2683
 2584TIP3   OH229242   3.865   4.054  12.016 -0.0235  0.3130 -0.3717
 2584TIP3    H129243   3.793   3.997  11.988  0.5913  0.2976 -2.0668
 2584TIP3    H229244   3.831   4.099  12.093 -2.6956  1.8658 -2.2713
 2585TIP3   OH229245   4.706   4.337  13.224  0.1577 -0.1630 -0.2796
 2585TIP3    H129246   4.789   4.376  13.198  1.4884 -2.4850  0.1546
 2585TIP3    H229247   4.699   4.357  13.318  0.5626 -0.4933 -0.1757
 2586TIP3   OH229248   2.942   4.610   0.793 -0.9768 -0.4051  0.1444
 2586TIP3    H129249   2.911   4.621   0.883  2.1944 -1.5358  1.5039
 2586TIP3    H229250   2.970   4.698   0.767  0.0788 -0.4303  1.1123
 2587TIP3   OH229251   4.989   5.132  15.150 -0.3311 -0.4037 -0.5797
 2587TIP3    H129252   4.953   5.044  15.166 -0.4010 -0.1977  0.4512
 2587TIP3    H229253   5.004   5.134  15.055 -2.8429 -0.5674 -1.0509
 2588TIP3   OH229254   2.163   1.414   1.981 -0.5107 -0.3353 -0.3627
 2588TIP3    H129255   2.247   1.369   1.990 -0.1251  0.3358 -0.5770
 2588TIP3    H229256   2.098   1.344   1.985 -0.0908 -0.6848  2.1357
 2589TIP3   OH229257   0.842   2.985  15.238 -0.2101  0.5437  0.5370
 2589TIP3    H129258   0.922   3.023  15.201 -0.2862 -0.3072 -0.5605
 2589TIP3    H229259   0.831   2.902  15.191 -0.7901 -0.1919  1.8991
 2590TIP3   OH229260   6.020   5.156  16.049  0.8358 -0.5295  0.0651
 2590TIP3    H129261   5.975   5.169  15.966  0.4112 -1.2086  0.1833
 2590TIP3    H229262   6.057   5.068  16.043  0.1743 -0.8763  0.8822
 2591TIP3   OH229263   0.848   0.378  11.671 -0.3560  0.1393  0.3364
 2591TIP3    H129264   0.920   0.358  11.611  0.3207  0.9224  0.8695
 2591TIP3    H229265   0.790   0.302  11.664  0.7662 -0.7473  0.2686
 2592TIP3   OH229266   3.773   2.811  10.574 -0.2608 -0.2549  0.1750
 2592TIP3    H129267   3.797   2.831  10.664  0.0188  2.2027 -0.3868
 2592TIP3    H229268   3.821   2.730  10.554 -2.1640 -2.2506  2.9014
 2593TIP3   OH229269   1.257   4.903  14.216 -0.1965 -0.2114  0.0281
 2593TIP3    H129270   1.170   4.863  14.218  0.3017 -1.3612  2.5181
 2593TIP3    H229271   1.300   4.865  14.139 -2.1996  1.2750 -1.9445
 2594TIP3   OH229272   2.460   4.697  15.836  0.4716 -0.4203  0.1038
 2594TIP3    H129273   2.460   4.724  15.928  0.4367 -0.5352  0.1376
 2594TIP3    H229274   2.552   4.704  15.810  0.1990  1.6486 -0.4547
 2595TIP3   OH229275   0.720   6.111  13.124  0.1467 -0.2446  0.2108
 2595TIP3    H129276   0.713   6.166  13.202 -1.6630  0.1202 -0.1511
 2595TIP3    H229277   0.695   6.024  13.153  0.3422 -0.2952  0.2265
 2596TIP3   OH229278   6.095   6.613  13.121  0.3815  0.4608  0.2028
 2596TIP3    H129279   6.060   6.701  13.132  1.1698  0.9192 -0.7846
 2596TIP3    H229280   6.152   6.601  13.197 -1.4512 -0.0947  1.5401
 2597TIP3   OH229281   2.307   1.638   2.640 -0.1278 -0.2769 -0.2342
 2597TIP3    H129282   2.373   1.590   2.691  1.0924  0.3938 -1.1235
 2597TIP3    H229283   2.230   1.581   2.642 -0.1781 -0.2596  2.3701
 2598TIP3   OH229284   5.563   1.000  12.805  0.5117  0.1703 -0.0799
 2598TIP3    H129285   5.555   1.095  12.805  2.6989  0.4563 -2.3635
 2598TIP3    H229286   5.553   0.975  12.713 -0.0534 -1.8486  0.4735
 2599TIP3   OH229287   0.361   3.551  14.346  0.6646  0.0429 -0.5460
 2599TIP3    H129288   0.289   3.560  14.408 -1.0956  0.7010 -2.5400
 2599TIP3    H229289   0.385   3.459  14.351  0.5794  0.0755  1.0684
 2600TIP3   OH229290   0.874   3.519  14.912  0.6241  0.1045 -0.0513
 2600TIP3    H129291   0.814   3.511  14.986 -0.8981 -0.5932 -1.2873
 2600TIP3    H229292   0.843   3.596  14.864  2.0439  0.9864  0.3919
 2601TIP3   OH229293   5.493   2.784   3.563 -0.4384  0.2822  0.3124
 2601TIP3    H129294   5.447   2.809   3.483  0.9221 -0.0860 -0.6091
 2601TIP3    H229295   5.478   2.689   3.570 -0.8792  0.3754  0.7286
 2602TIP3   OH229296   5.054   2.365   4.185 -0.8241  0.0606 -0.0760
 2602TIP3    H129297   5.089   2.352   4.097  1.0402 -0.4247  0.6770
 2602TIP3    H229298   4.995   2.291   4.200 -0.9693  0.0236 -0.8283
 2603TIP3   OH229299   6.037   3.498   6.641 -0.7225  0.3649 -0.1692
 2603TIP3    H129300   6.043   3.444   6.720  0.4654  0.2018 -0.3631
 2603TIP3    H229301   6.098   3.570   6.657  0.3663 -0.2595 -1.3953
 2604TIP3   OH229302   0.975   1.889  14.446 -0.1100  0.3503 -0.0403
 2604TIP3    H129303   0.974   1.833  14.523  1.3924 -0.2372 -0.4194
 2604TIP3    H229304   0.898   1.945  14.456  0.2518  0.5494  2.0822
 2605TIP3   OH229305   1.357   3.741   1.010 -0.1792 -0.7042  0.2056
 2605TIP3    H129306   1.264   3.744   0.984  0.1319 -0.2557 -0.9318
 2605TIP3    H229307   1.398   3.687   0.943  0.6714  0.5392 -0.3152
 2606TIP3   OH229308   1.538   2.755   6.327 -1.1649  0.5093 -0.0814
 2606TIP3    H129309   1.557   2.802   6.408  1.2925 -1.2537  0.4662
 2606TIP3    H229310   1.496   2.674   6.356  1.2979 -0.9376 -0.3230
 2607TIP3   OH229311   4.194   3.738  11.596 -0.4666 -0.3789  0.9825
 2607TIP3    H129312   4.144   3.731  11.678 -1.0480  2.3228  0.9607
 2607TIP3    H229313   4.282   3.763  11.624 -0.2932 -0.8122  0.8293
 2608TIP3   OH229314   6.002   2.248  14.393 -0.3473 -0.1247 -0.4405
 2608TIP3    H129315   6.093   2.225  14.373 -0.3431  0.6672 -1.3634
 2608TIP3    H229316   5.957   2.247  14.309 -0.5729  2.1975 -0.4143
 2609TIP3   OH229317   0.372   4.112   4.294  0.6677  0.1578 -0.2585
 2609TIP3    H129318   0.304   4.178   4.277  0.4612  0.0350  0.0617
 2609TIP3    H229319   0.449   4.144   4.248  0.8706  1.1600  0.7366
 2610TIP3   OH229320   1.841   3.759  12.282  0.2601  0.3091  0.0562
 2610TIP3    H129321   1.876   3.800  12.203 -0.2426  3.1006  1.1606
 2610TIP3    H229322   1.894   3.680  12.294  1.0573  0.3766 -2.4301
 2611TIP3   OH229323   0.714   2.029  11.294  0.6440 -0.6629  0.2747
 2611TIP3    H129324   0.793   2.081  11.307  0.4277 -0.6848  1.8181
 2611TIP3    H229325   0.713   1.968  11.368  0.2735 -2.0767 -0.8614
 2612TIP3   OH229326   0.066   5.448   4.093 -0.0976  0.2524  0.1452
 2612TIP3    H129327   0.037   5.529   4.051  0.2124  0.4587  0.3316
 2612TIP3    H229328   0.105   5.476   4.175  1.2681  0.0500 -0.4030
 2613TIP3   OH229329   1.036   2.573   3.877 -0.0442  0.0866 -0.3951
 2613TIP3    H129330   1.082   2.491   3.858  0.5339  0.6431 -1.4871
 2613TIP3    H229331   1.050   2.586   3.971 -0.4134 -1.2133 -0.1335
 2614TIP3   OH229332   2.790   5.300  15.796  0.1134 -0.3589  0.3894
 2614TIP3    H129333   2.785   5.308  15.892  3.2201  0.2213  0.6214
 2614TIP3    H229334   2.830   5.383  15.768 -0.0331 -0.8403 -1.3275
 2615TIP3   OH229335   2.707   1.964   0.515 -0.5509  0.5136 -0.2847
 2615TIP3    H129336   2.630   1.935   0.467 -0.8566 -1.0223  1.0408
 2615TIP3    H229337   2.680   1.965   0.607  0.6136  1.2669  0.0713
 2616TIP3   OH229338   0.726   3.396   3.981 -0.0685  0.1731  0.1139
 2616TIP3    H129339   0.678   3.356   4.054  0.3272  1.1188  0.9180
 2616TIP3    H229340   0.809   3.425   4.020 -2.1682  6.3749  1.0067
 2617TIP3   OH229341   6.682   0.034   5.917  0.4313  0.1655  0.3031
 2617TIP3    H129342   6.765   0.051   5.961  0.8513  0.1940 -0.4926
 2617TIP3    H229343   6.616   0.070   5.977  0.9191 -0.5598  1.3068
 2618TIP3   OH229344   0.064   5.971  16.290  0.1221 -0.5493 -0.7809
 2618TIP3    H129345   0.146   5.979  16.240 -0.7566 -1.4806 -2.4782
 2618TIP3    H229346   0.008   6.039  16.253  0.5187  1.0286  1.3300
 2619TIP3   OH229347   5.493   1.690   5.744  0.0889  0.4608 -0.2025
 2619TIP3    H129348   5.424   1.730   5.692  0.4544  0.6699 -0.5334
 2619TIP3    H229349   5.570   1.690   5.687  0.7987  1.6833  0.6780
 2620TIP3   OH229350   4.802   2.118   5.750 -0.2040 -0.3158 -0.2054
 2620TIP3    H129351   4.853   2.169   5.812 -0.8010 -0.4862  0.4371
 2620TIP3    H229352   4.867   2.066   5.702  0.3486  0.5442 -0.4167
 2621TIP3   OH229353   1.788   1.284   3.976  0.0504 -0.3012  0.5571
 2621TIP3    H129354   1.855   1.293   3.908 -0.2642  1.4211  0.4308
 2621TIP3    H229355   1.818   1.341   4.047 -1.4827  0.9067  0.2990
 2622TIP3   OH229356   4.605   4.994   4.157 -0.2898  0.3883 -0.0905
 2622TIP3    H129357   4.627   4.901   4.169 -1.1392  0.0984 -0.7027
 2622TIP3    H229358   4.652   5.039   4.228  2.0511 -0.2110 -1.1919
 2623TIP3   OH229359   6.376   0.463  12.316 -0.2250 -0.5308  0.5459
 2623TIP3    H129360   6.295   0.453  12.366  0.1175  1.9843  1.7763
 2623TIP3    H229361   6.356   0.529  12.250  1.2074  1.5720  2.0592
 2624TIP3   OH229362   1.768   5.330   5.239 -0.0774  0.2744 -0.1584
 2624TIP3    H129363   1.800   5.417   5.260  1.4815 -0.4714  0.7663
 2624TIP3    H229364   1.742   5.292   5.323  1.6606 -1.0291 -0.1569
 2625TIP3   OH229365   2.528   1.930   6.275  0.1040 -0.2955 -0.4675
 2625TIP3    H129366   2.542   1.939   6.181  0.1880 -1.2972 -0.5530
 2625TIP3    H229367   2.438   1.898   6.282 -0.1910  0.5521 -0.1580
 2626TIP3   OH229368   4.340   2.170  12.247  0.1238 -0.5722 -0.1019
 2626TIP3    H129369   4.407   2.105  12.269  0.4202 -0.0708  0.5155
 2626TIP3    H229370   4.387   2.253  12.244 -0.6978  0.0289  1.9136
 2627TIP3   OH229371   1.576   5.077  15.030 -0.5146  0.5466  0.0021
 2627TIP3    H129372   1.557   5.069  14.936 -1.3462 -0.3812  0.2294
 2627TIP3    H229373   1.671   5.064  15.037 -0.4672  0.4859 -0.6964
 2628TIP3   OH229374   1.047   1.574  11.563 -0.5061 -0.6584 -0.3102
 2628TIP3    H129375   1.053   1.635  11.489 -0.9343 -0.5090 -0.2237
 2628TIP3    H229376   1.082   1.492  11.529  0.2349 -0.3251 -0.3828
 2629TIP3   OH229377   0.792   4.861  11.092 -0.0848 -0.3029 -0.4771
 2629TIP3    H129378   0.853   4.900  11.155  0.8049 -1.5933 -0.4965
 2629TIP3    H229379   0.784   4.927  11.023  0.2775  0.4156  0.1487
 2630TIP3   OH229380   4.585   0.705  14.769 -0.5929  0.7551  0.0036
 2630TIP3    H129381   4.497   0.696  14.805 -0.9714 -1.2392 -1.2737
 2630TIP3    H229382   4.625   0.775  14.821 -2.2924  0.4636  1.8213
 2631TIP3   OH229383   4.404   5.212  11.841 -0.0601 -0.2205 -0.6953
 2631TIP3    H129384   4.413   5.126  11.799  2.8067 -0.7011  0.6819
 2631TIP3    H229385   4.465   5.268  11.793 -0.3811  0.5117 -0.2612
 2632TIP3   OH229386   5.153   5.982   5.075  0.1622  0.2455 -0.1920
 2632TIP3    H129387   5.142   6.077   5.077  2.9809  0.6777 -0.5424
 2632TIP3    H229388   5.230   5.966   5.130  0.4276 -1.7007 -1.0420
 2633TIP3   OH229389   5.741   0.894  11.740  0.2347  0.8326  0.4413
 2633TIP3    H129390   5.650   0.891  11.711  0.1490  1.2060  0.6646
 2633TIP3    H229391   5.789   0.845  11.674 -0.2041  0.1507  0.6166
 2634TIP3   OH229392   4.763   3.620  16.166  0.0146  0.2298  0.4682
 2634TIP3    H129393   4.719   3.535  16.156  0.3767 -0.1602  1.9263
 2634TIP3    H229394   4.770   3.654  16.077 -1.6880 -0.4717  0.0351
 2635TIP3   OH229395   6.729   3.101  12.941  0.1715  0.1055  0.2137
 2635TIP3    H129396   6.744   3.111  13.035 -0.4228  0.1581  0.3050
 2635TIP3    H229397   6.706   3.188  12.910 -1.5453 -0.2389  0.3833
 2636TIP3   OH229398   6.722   4.444  12.241  0.1316  0.0218  1.0597
 2636TIP3    H129399   6.784   4.512  12.268  0.9206 -0.5002  0.6308
 2636TIP3    H229400   6.697   4.469  12.152 -1.0704  0.7728  1.5922
 2637TIP3   OH229401   0.787   0.733   2.259 -0.0613 -0.0288 -0.1428
 2637TIP3    H129402   0.767   0.817   2.218  1.9105  0.8522  0.5421
 2637TIP3    H229403   0.791   0.753   2.353  0.4771 -0.8669  0.0206
 2638TIP3   OH229404   0.750   5.220  14.632 -0.0838  0.6980  0.0824
 2638TIP3    H129405   0.676   5.159  14.638  1.7764 -1.7891 -0.4542
 2638TIP3    H229406   0.790   5.219  14.719  0.0388  1.0130  0.0297
 2639TIP3   OH229407   0.066   1.816   1.993 -0.1674 -0.6202 -0.5851
 2639TIP3    H129408   0.040   1.879   1.925  0.2172 -0.7836 -0.8906
 2639TIP3    H229409   0.066   1.867   2.074 -0.5870 -0.4103 -0.7110
 2640TIP3   OH229410   5.812   6.332  15.705  0.0529 -0.0258  0.6043
 2640TIP3    H129411   5.746   6.361  15.767  0.0872  1.7962 -0.1656
 2640TIP3    H229412   5.849   6.412  15.669  2.4082 -0.9852  0.7024
 2641TIP3   OH229413   5.557   4.513  12.286 -0.4866  0.6121 -0.0369
 2641TIP3    H129414   5.528   4.601  12.311  0.4238  1.1525 -0.8390
 2641TIP3    H229415   5.648   4.509  12.314 -0.2480  0.2607 -0.8429
 2642TIP3   OH229416   4.900   5.755  12.650  0.0084 -0.1932  0.7956
 2642TIP3    H129417   4.902   5.684  12.714  0.7153 -1.9331 -1.0667
 2642TIP3    H229418   4.991   5.782  12.640 -0.1517  0.3837  0.8468
 2643TIP3   OH229419   6.487   1.565  11.073 -0.1008 -0.2323  0.3527
 2643TIP3    H129420   6.395   1.544  11.086 -0.5011  0.0744 -1.6605
 2643TIP3    H229421   6.486   1.650  11.029  1.0759 -0.6899 -0.6185
 2644TIP3   OH229422   3.544   5.812  12.966  0.3393 -0.1442  0.5440
 2644TIP3    H129423   3.623   5.760  12.951 -0.0179 -1.3963  2.5950
 2644TIP3    H229424   3.476   5.747  12.981 -0.2318  0.8614  2.7064
 2645TIP3   OH229425   2.899   4.008   2.475  0.2805 -0.2149 -0.1645
 2645TIP3    H129426   2.898   4.104   2.485  2.8431  0.0275 -1.5550
 2645TIP3    H229427   2.942   3.976   2.554  0.7769 -0.0935 -0.3848
 2646TIP3   OH229428   2.103   0.727   0.039 -0.3127  0.2856 -0.6359
 2646TIP3    H129429   2.184   0.773   0.016 -0.3603  1.2138  0.9086
 2646TIP3    H229430   2.069   0.775   0.115  0.0426 -2.7612  1.6215
 2647TIP3   OH229431   4.084   4.258  16.766 -0.0111 -0.5047  0.3005
 2647TIP3    H129432   4.139   4.294  16.697  1.5678 -0.7080  1.4040
 2647TIP3    H229433   4.123   4.173  16.786 -0.1594 -0.2632  1.7264
 2648TIP3   OH229434   1.013   2.300   0.173  0.5029 -0.8158 -0.4830
 2648TIP3    H129435   0.936   2.244   0.178 -0.2978 -0.0020 -2.4586
 2648TIP3    H229436   1.076   2.249   0.123  0.1831 -0.4181 -1.3121
 2649TIP3   OH229437   3.291   3.768  13.701 -0.1778  0.8865  0.9365
 2649TIP3    H129438   3.311   3.852  13.660 -0.6492  0.2907 -0.5753
 2649TIP3    H229439   3.205   3.745  13.667  1.3487 -1.8198 -1.4570
 2650TIP3   OH229440   3.414   0.911   0.166 -0.4359 -0.0810  0.7306
 2650TIP3    H129441   3.393   0.844   0.102 -2.3615  0.1384  1.0916
 2650TIP3    H229442   3.434   0.989   0.114 -1.6752  0.0081  0.3575
 2651TIP3   OH229443   6.692   4.599  16.598  0.3723  0.1374  0.2218
 2651TIP3    H129444   6.746   4.583  16.675 -1.3096 -1.2335  1.1883
 2651TIP3    H229445   6.607   4.623  16.633 -1.0139 -2.4260 -1.0888
 2652TIP3   OH229446   2.416   1.630   3.367 -0.4829 -0.1735 -0.1410
 2652TIP3    H129447   2.333   1.583   3.378 -1.0174  0.7945  0.0714
 2652TIP3    H229448   2.415   1.697   3.436  0.8365 -0.6423  0.3648
 2653TIP3   OH229449   0.232   0.750   3.094  0.4001 -0.4227  0.1681
 2653TIP3    H129450   0.305   0.694   3.069  0.6108 -0.2850  0.4643
 2653TIP3    H229451   0.264   0.839   3.081  0.6497 -0.3401  1.2692
 2654TIP3   OH229452   5.877   0.305  13.390  0.2949 -0.7705  0.8737
 2654TIP3    H129453   5.789   0.313  13.355 -0.2162  1.9580  2.4239
 2654TIP3    H229454   5.934   0.314  13.313 -0.7172 -2.5800 -0.1483
 2655TIP3   OH229455   3.505   5.244   2.901 -0.2149 -0.3310 -0.0624
 2655TIP3    H129456   3.481   5.230   2.992 -1.6173  0.9757 -0.1967
 2655TIP3    H229457   3.454   5.178   2.853  0.3935 -0.9049  0.0550
 2656TIP3   OH229458   3.777   6.135  13.045 -0.0604 -0.4777  0.0852
 2656TIP3    H129459   3.790   6.083  12.966  1.8192  0.6999 -0.4419
 2656TIP3    H229460   3.729   6.077  13.104 -2.5622 -0.9809 -2.2737
 2657TIP3   OH229461   0.311   1.804  16.882 -0.0778  0.4096  0.4473
 2657TIP3    H129462   0.366   1.801  16.803  1.3668 -1.3899  1.4353
 2657TIP3    H229463   0.301   1.897  16.901 -0.0469  0.8648 -1.5595
 2658TIP3   OH229464   4.540   4.327   1.317  0.2280 -0.3886 -0.4087
 2658TIP3    H129465   4.563   4.396   1.256  0.0353 -0.0777 -0.1348
 2658TIP3    H229466   4.558   4.245   1.270 -2.3493 -0.2172 -1.8628
 2659TIP3   OH229467   6.354   4.735   5.198  0.3990 -0.1837  0.2308
 2659TIP3    H129468   6.331   4.651   5.158  1.1466  0.9084 -2.7845
 2659TIP3    H229469   6.284   4.794   5.170  0.2018  0.3635  1.8062
 2660TIP3   OH229470   6.765   2.035  13.343 -0.3560 -0.3568 -0.4007
 2660TIP3    H129471   6.837   2.056  13.402 -0.6397  0.4667 -0.3215
 2660TIP3    H229472   6.803   2.041  13.255 -0.3866  0.3860 -0.3737
 2661TIP3   OH229473   3.591   6.565  14.781 -0.5829  0.7287 -0.3051
 2661TIP3    H129474   3.598   6.488  14.724  0.7702  0.5713  0.0379
 2661TIP3    H229475   3.547   6.533  14.859 -0.8532  0.5237 -0.5377
 2662TIP3   OH229476   6.400   4.502   4.446 -0.5307 -0.4369 -0.1029
 2662TIP3    H129477   6.353   4.585   4.454  0.0610  0.1515 -2.2255
 2662TIP3    H229478   6.492   4.528   4.434 -0.0529 -1.4848  0.9944
 2663TIP3   OH229479   1.898   3.020  14.532 -0.3393  0.1540 -0.7226
 2663TIP3    H129480   1.805   3.007  14.551 -0.6381 -0.3430 -2.3916
 2663TIP3    H229481   1.926   3.086  14.595 -1.6835 -0.0886  0.1728
 2664TIP3   OH229482   0.266   0.541   5.313  0.3362 -0.6915  0.6863
 2664TIP3    H129483   0.344   0.567   5.362 -0.6741  1.1608  1.4432
 2664TIP3    H229484   0.255   0.448   5.332  2.1556 -0.9233  0.7959
 2665TIP3   OH229485   1.276   5.963   0.004 -0.6126  0.0365 -0.4453
 2665TIP3    H129486   1.305   5.888   0.055 -1.5909 -0.3626 -0.4487
 2665TIP3    H229487   1.250   5.926  -0.081  0.2095  0.5785 -0.9548
 2666TIP3   OH229488   4.669   1.345   6.257 -0.0456  0.8796 -0.1099
 2666TIP3    H129489   4.660   1.397   6.337  2.5786  2.6145 -0.8331
 2666TIP3    H229490   4.657   1.408   6.186 -0.4751 -0.2767 -1.1059
 2667TIP3   OH229491   3.136   4.557  14.905  0.2731  0.3412 -0.5869
 2667TIP3    H129492   3.189   4.478  14.893  0.5486  0.3392  0.5158
 2667TIP3    H229493   3.179   4.623  14.851 -0.2077 -0.3580 -1.8630
 2668TIP3   OH229494   4.111   1.766  15.946  0.0136 -0.2336  0.1738
 2668TIP3    H129495   4.186   1.797  15.997  0.0884  1.5328 -0.9100
 2668TIP3    H229496   4.034   1.790  15.999  0.1345  0.4218  0.0617
 2669TIP3   OH229497   3.207   5.339   3.504 -0.0803  0.5363  0.5472
 2669TIP3    H129498   3.198   5.340   3.409  0.8570  0.2287  0.4458
 2669TIP3    H229499   3.166   5.257   3.532 -2.3421  1.6317  0.6505
 2670TIP3   OH229500   6.776   3.427  16.936  0.4707  0.1065 -0.1570
 2670TIP3    H129501   6.758   3.384  17.019  0.9908 -1.6055 -0.8958
 2670TIP3    H229502   6.778   3.520  16.957  0.3429 -0.2814  1.6906
 2671TIP3   OH229503   3.359   3.552  10.857 -0.1378 -0.7395 -0.1797
 2671TIP3    H129504   3.385   3.551  10.765  0.5341 -2.9274 -0.0375
 2671TIP3    H229505   3.440   3.570  10.905 -0.2542 -0.7331  0.0163
 2672TIP3   OH229506   2.128   2.333   5.250  0.1713 -0.5083  0.5655
 2672TIP3    H129507   2.189   2.260   5.243  0.5218 -0.1517 -0.1822
 2672TIP3    H229508   2.099   2.332   5.342 -0.3718 -2.0090  0.4029
 2673TIP3   OH229509   5.472   1.061  15.739  0.0741  0.0017 -0.6034
 2673TIP3    H129510   5.520   1.055  15.657 -1.8169  0.6189 -1.8385
 2673TIP3    H229511   5.381   1.046  15.714 -1.0201  3.4197  0.7717
 2674TIP3   OH229512   5.640   3.468  10.779 -0.4162  0.0996  0.1096
 2674TIP3    H129513   5.554   3.457  10.738 -0.2695  1.4661 -0.6188
 2674TIP3    H229514   5.695   3.403  10.736 -1.2498 -1.3946  1.1922
 2675TIP3   OH229515   2.969   0.574  14.182 -0.2549 -0.0616  0.2107
 2675TIP3    H129516   3.059   0.558  14.154 -0.3946 -0.0389 -0.2753
 2675TIP3    H229517   2.952   0.510  14.250 -0.3068 -0.9638 -0.6292
 2676TIP3   OH229518   6.507   0.086   0.046  0.1156  0.7052 -0.2701
 2676TIP3    H129519   6.448   0.137  -0.009  1.3839 -0.5726 -3.0103
 2676TIP3    H229520   6.594   0.106   0.013  0.9306 -0.3662  1.1096
 2677TIP3   OH229521   3.372   1.051   3.038 -0.4413 -0.1236 -0.2560
 2677TIP3    H129522   3.315   0.982   3.004  1.5452 -1.9885  0.0094
 2677TIP3    H229523   3.349   1.059   3.130  0.0032 -1.1747 -0.0471
 2678TIP3   OH229524   2.927   2.448   0.068 -0.3380 -0.1182 -0.8921
 2678TIP3    H129525   2.964   2.439   0.156  1.2681 -1.3313 -1.6304
 2678TIP3    H229526   2.850   2.503   0.080 -1.1174 -1.5602  1.5315
 2679TIP3   OH229527   1.707   2.707  17.145 -0.0542 -0.1327  0.0231
 2679TIP3    H129528   1.758   2.731  17.222 -0.2631 -0.5360  0.2892
 2679TIP3    H229529   1.670   2.621  17.166  1.8105 -1.3614 -1.4659
 2680TIP3   OH229530   2.456   1.121   2.857  0.6987  0.3699 -0.1420
 2680TIP3    H129531   2.475   1.194   2.916  2.0865 -1.7381  2.2465
 2680TIP3    H229532   2.495   1.146   2.774  3.1829  1.4540  1.2470
 2681TIP3   OH229533   2.713   4.710  15.673  0.4834  0.0492  0.1286
 2681TIP3    H129534   2.801   4.687  15.705  0.4816 -0.0799  0.0440
 2681TIP3    H229535   2.695   4.795  15.712  1.3124  0.8294 -1.1201
 2682TIP3   OH229536   1.243   6.794   2.699  0.2240 -0.0154 -0.0921
 2682TIP3    H129537   1.156   6.761   2.675 -0.2400  0.4676  0.8988
 2682TIP3    H229538   1.295   6.782   2.619 -0.3968 -1.4949 -0.3051
 2683TIP3   OH229539   2.748   4.111  14.622  0.2338 -0.2697 -0.1458
 2683TIP3    H129540   2.840   4.135  14.630 -0.3486  3.0985 -1.7090
 2683TIP3    H229541   2.704   4.193  14.597 -3.1742 -1.7745  0.3797
 2684TIP3   OH229542   4.586   3.979  13.662 -0.4009 -0.5395  0.0129
 2684TIP3    H129543   4.521   3.959  13.595  0.0922  1.1950 -1.0235
 2684TIP3    H229544   4.548   3.944  13.743 -2.3669 -0.0843 -0.6609
 2685TIP3   OH229545   0.162   3.962   5.364  0.5331  0.3694  0.2502
 2685TIP3    H129546   0.128   3.956   5.454 -0.6745  0.3039 -0.1976
 2685TIP3    H229547   0.255   3.940   5.373  0.8003  1.8566  1.7106
 2686TIP3   OH229548   6.236   1.879   2.495 -0.7561  0.2520  0.2918
 2686TIP3    H129549   6.209   1.940   2.426 -0.4813 -1.4819 -1.4351
 2686TIP3    H229550   6.190   1.910   2.573  0.1282  3.2139 -0.2332
 2687TIP3   OH229551   1.923   5.017   3.593  0.5296 -0.7522  0.1515
 2687TIP3    H129552   1.957   5.038   3.506  1.0347 -0.5347  0.3957
 2687TIP3    H229553   1.988   4.956   3.630  0.5446 -0.5092  0.5388
 2688TIP3   OH229554   1.078   5.750  15.219 -0.4326  0.2717 -0.2389
 2688TIP3    H129555   1.113   5.832  15.251 -0.8515 -0.0249  1.0357
 2688TIP3    H229556   1.122   5.682  15.271 -0.8428 -0.2467 -0.5513
 2689TIP3   OH229557   2.459   2.019  15.470 -0.3528 -0.4873 -0.3813
 2689TIP3    H129558   2.389   1.999  15.532  1.7430 -1.3003  1.8730
 2689TIP3    H229559   2.478   1.935  15.427  1.4760 -1.1532  1.5564
 2690TIP3   OH229560   5.384   6.599  15.873 -0.5209 -0.0565 -0.3555
 2690TIP3    H129561   5.416   6.674  15.921 -0.2430 -1.2862  1.4851
 2690TIP3    H229562   5.290   6.596  15.892 -1.0596  1.1693 -2.4235
 2691TIP3   OH229563   4.634   1.794  14.313  0.6220 -0.0228 -0.1677
 2691TIP3    H129564   4.677   1.769  14.394 -2.8902  0.0750  1.9014
 2691TIP3    H229565   4.571   1.725  14.297 -0.8925  1.4928 -1.0784
 2692TIP3   OH229566   5.218   3.733   3.502 -0.2566  0.5011  0.2137
 2692TIP3    H129567   5.226   3.798   3.432  0.3517  0.5271  0.3016
 2692TIP3    H229568   5.305   3.693   3.507 -0.7596 -0.6767 -0.1765
 2693TIP3   OH229569   5.136   3.879  16.282  0.1308 -0.2161 -0.3519
 2693TIP3    H129570   5.099   3.794  16.259 -1.6159  0.3281  0.2718
 2693TIP3    H229571   5.079   3.943  16.239  1.9446  0.6681 -1.5671
 2694TIP3   OH229572   5.569   3.059   2.311  0.1887 -0.2835  0.8001
 2694TIP3    H129573   5.509   3.132   2.294  0.5781 -0.2099 -0.3486
 2694TIP3    H229574   5.653   3.100   2.330  0.3184 -0.4269  0.5349
 2695TIP3   OH229575   0.045   4.458  13.967  0.0485 -0.0246 -0.0025
 2695TIP3    H129576   0.137   4.484  13.972 -0.2451  1.1662 -0.6014
 2695TIP3    H229577   0.012   4.470  14.056  0.3938 -0.2058  0.1549
 2696TIP3   OH229578   1.463   0.195   5.885  0.2785 -0.3615  0.1162
 2696TIP3    H129579   1.378   0.215   5.924  0.2105 -2.2626  1.0009
 2696TIP3    H229580   1.508   0.280   5.884 -0.9090  0.3363  1.3757
 2697TIP3   OH229581   0.909   6.494  17.215 -0.5233 -0.2029  0.0165
 2697TIP3    H129582   0.900   6.510  17.309 -0.2179 -1.3384  0.2469
 2697TIP3    H229583   0.880   6.576  17.175 -2.2167 -0.2574  1.0402
 2698TIP3   OH229584   1.300   1.744   5.022  0.0470  0.2622  0.0895
 2698TIP3    H129585   1.327   1.661   4.982 -1.3779 -0.7443  1.1147
 2698TIP3    H229586   1.234   1.779   4.963 -0.3400 -0.0337  0.3412
 2699TIP3   OH229587   6.747   1.626  14.210 -0.4494 -0.2197  0.7464
 2699TIP3    H129588   6.748   1.656  14.301  0.7366 -0.0240  0.6906
 2699TIP3    H229589   6.720   1.703  14.160  0.8188  0.2753  0.7734
 2700TIP3   OH229590   0.831   2.789  11.225  0.7084 -0.1262  0.0933
 2700TIP3    H129591   0.926   2.797  11.230  0.5466  1.0036  2.2510
 2700TIP3    H229592   0.804   2.759  11.312 -1.0472  1.3913  0.1293
 2701TIP3   OH229593   3.093   0.554  11.153  0.5730  0.2120  0.6628
 2701TIP3    H129594   3.078   0.648  11.164  1.0081  0.8873 -3.1351
 2701TIP3    H229595   3.187   0.547  11.136  0.2358 -0.5679 -1.0946
 2702TIP3   OH229596   4.336   4.375  12.940  0.4509  0.1130 -0.5811
 2702TIP3    H129597   4.262   4.345  12.992  0.7699 -1.1125 -0.8015
 2702TIP3    H229598   4.308   4.460  12.905 -0.3713  0.2179  0.2920
 2703TIP3   OH229599   5.721   5.539  14.290  0.2305 -0.0530  0.0290
 2703TIP3    H129600   5.773   5.590  14.353  1.5195 -0.6821 -0.4822
 2703TIP3    H229601   5.719   5.451  14.327 -1.1023  0.1124  0.3887
 2704TIP3   OH229602   0.898   4.170  11.627  0.5019 -0.2414 -0.4640
 2704TIP3    H129603   0.896   4.081  11.592 -1.2580  0.6482 -2.9109
 2704TIP3    H229604   0.809   4.185  11.659  0.3418  1.0682 -1.4301
 2705TIP3   OH229605   0.146   3.724  13.962 -0.3071  0.0117  0.4191
 2705TIP3    H129606   0.210   3.684  14.021  0.4588  1.8805  0.9082
 2705TIP3    H229607   0.186   3.806  13.935 -1.8860  0.5349 -0.4362
 2706TIP3   OH229608   0.765   1.908  13.180  0.0470  0.3000  0.2787
 2706TIP3    H129609   0.844   1.930  13.131 -0.3046  0.1642 -0.3690
 2706TIP3    H229610   0.702   1.976  13.155 -0.2307  0.0531  0.3046
 2707TIP3   OH229611   6.660   0.099  16.055  0.4787  0.1955 -1.0103
 2707TIP3    H129612   6.621   0.166  15.999 -0.2697  0.3497 -0.3258
 2707TIP3    H229613   6.652   0.135  16.144 -3.3373 -2.2521 -0.1048
 2708TIP3   OH229614   2.982   3.497   0.034  0.0645  0.0116  0.3462
 2708TIP3    H129615   3.001   3.544  -0.047 -1.7136  2.2588  1.1346
 2708TIP3    H229616   2.945   3.414   0.006  0.9611  0.0711 -1.1151
 2709TIP3   OH229617   1.303   0.555  14.115  0.0199 -0.0044  0.2189
 2709TIP3    H129618   1.250   0.533  14.192 -0.1093  1.6427  0.6430
 2709TIP3    H229619   1.379   0.600  14.151  1.7870 -2.2870 -0.3753
 2710TIP3   OH229620   2.650   4.092   2.045 -0.1374 -0.1273  0.0512
 2710TIP3    H129621   2.741   4.066   2.055 -0.1401  0.1185  0.8188
 2710TIP3    H229622   2.641   4.116   1.953  0.3659 -0.9048 -0.2130
 2711TIP3   OH229623   2.435   1.803   3.590  0.5363 -0.9075  0.1410
 2711TIP3    H129624   2.470   1.740   3.653  1.4349 -0.1520  0.4258
 2711TIP3    H229625   2.508   1.863   3.573 -0.2142 -0.0992 -0.3093
 2712TIP3   OH229626   5.350   2.896   2.293  0.7255  0.5627  0.5844
 2712TIP3    H129627   5.284   2.940   2.346 -1.4375 -0.7884 -0.8262
 2712TIP3    H229628   5.430   2.946   2.308 -0.4737  2.0166  2.7134
 2713TIP3   OH229629   6.042   5.740  15.847 -0.4407  0.1538 -0.1798
 2713TIP3    H129630   6.099   5.705  15.915  1.8713  2.2246 -0.9020
 2713TIP3    H229631   5.959   5.756  15.892  0.0761 -1.2027  1.3917
 2714TIP3   OH229632   4.973   4.940   4.165  0.3936 -0.1953 -0.3667
 2714TIP3    H129633   5.002   4.987   4.244 -0.2472 -0.1253 -0.1647
 2714TIP3    H229634   4.917   4.870   4.199 -0.4639  0.2739 -0.8019
 2715TIP3   OH229635   6.161   6.166  15.226 -0.4193  0.3243  0.1153
 2715TIP3    H129636   6.174   6.071  15.232  0.9377  0.5764  2.0854
 2715TIP3    H229637   6.066   6.177  15.233 -0.7162 -0.9184 -1.3939
 2716TIP3   OH229638   3.209   1.103   1.593  0.9225 -0.1982  0.0083
 2716TIP3    H129639   3.208   1.129   1.686 -0.5769 -0.4889  0.0984
 2716TIP3    H229640   3.207   1.007   1.596 -0.8282 -0.1985 -0.2953
 2717TIP3   OH229641   3.185   3.684   4.547 -0.1790 -0.3813  0.0059
 2717TIP3    H129642   3.113   3.683   4.484  0.0420  2.2975 -0.4020
 2717TIP3    H229643   3.169   3.761   4.602  1.7756 -0.3180  0.5795
 2718TIP3   OH229644   5.664   1.567   6.040 -0.0693 -0.3281  0.0509
 2718TIP3    H129645   5.693   1.643   5.990 -0.2438 -0.8326 -0.8295
 2718TIP3    H229646   5.621   1.604   6.117  0.3832  0.4548 -0.0615
 2719TIP3   OH229647   4.786   5.147   6.592  0.0330  0.2106 -0.3210
 2719TIP3    H129648   4.748   5.170   6.677 -1.1751  0.5294 -0.9262
 2719TIP3    H229649   4.774   5.052   6.586 -0.8446  0.3252 -0.5703
 2720TIP3   OH229650   1.659   3.412   6.055  0.4036  0.0831  0.1129
 2720TIP3    H129651   1.744   3.399   6.011  0.7180  1.6555  0.2251
 2720TIP3    H229652   1.680   3.411   6.148  0.1706 -0.3303  0.1619
 2721TIP3   OH229653   1.603   4.626  12.754  0.0376 -0.1184  0.0672
 2721TIP3    H129654   1.589   4.700  12.813  0.3915  0.0654 -0.0746
 2721TIP3    H229655   1.643   4.559  12.809  0.0160 -0.0847  0.1233
 2722TIP3   OH229656   3.242   4.362  11.909 -0.2563 -0.7628  0.5138
 2722TIP3    H129657   3.307   4.405  11.853 -0.6554 -1.3844 -0.4470
 2722TIP3    H229658   3.208   4.432  11.965 -1.9088  0.5384 -1.9532
 2723TIP3   OH229659   3.324   4.638   6.659  0.9167 -0.1097  0.3821
 2723TIP3    H129660   3.397   4.647   6.598  1.1374 -0.7675  0.5365
 2723TIP3    H229661   3.365   4.636   6.746  0.7581 -0.8194  0.4509
 2724TIP3   OH229662   3.026   0.059  15.144 -0.3441 -0.1556  0.0756
 2724TIP3    H129663   2.982   0.120  15.203  0.6442  0.2835  0.3729
 2724TIP3    H229664   2.967  -0.016  15.139 -2.1444  1.2317 -1.1640
 2725TIP3   OH229665   2.728   4.422  11.407  0.2158 -0.3143 -0.1607
 2725TIP3    H129666   2.658   4.428  11.342  0.4833 -1.7993 -0.6397
 2725TIP3    H229667   2.740   4.328  11.419  2.1420 -0.0975 -0.1079
 2726TIP3   OH229668   4.171   6.201  15.261 -0.5378  0.4441 -0.9676
 2726TIP3    H129669   4.184   6.181  15.169  0.3654  2.0088 -1.2014
 2726TIP3    H229670   4.259   6.203  15.298 -0.7944  1.1603 -0.3719
 2727TIP3   OH229671   0.055   3.716   2.583 -0.1930  0.0551  0.1833
 2727TIP3    H129672   0.147   3.729   2.561 -0.0073  0.3775  1.0987
 2727TIP3    H229673   0.057   3.681   2.672 -0.9818  1.3884  0.7619
 2728TIP3   OH229674   3.516   2.823  12.814 -0.1626  0.8245 -0.0264
 2728TIP3    H129675   3.426   2.839  12.787 -0.1868 -0.0257 -0.4779
 2728TIP3    H229676   3.569   2.849  12.739 -0.1637 -0.5523 -0.5246
 2729TIP3   OH229677   4.092   2.433   6.423  1.0508 -0.5289 -0.0660
 2729TIP3    H129678   4.131   2.386   6.496  1.4443  0.3826  0.3089
 2729TIP3    H229679   4.049   2.364   6.371  0.1315 -1.1099  1.3948
 2730TIP3   OH229680   4.646   2.914   3.993 -0.2800 -0.8534  0.0208
 2730TIP3    H129681   4.671   2.869   4.074  0.2230  0.4466  0.6199
 2730TIP3    H229682   4.561   2.877   3.970 -0.9227 -0.5157  1.7296
 2731TIP3   OH229683   3.309   3.791   0.885 -0.2337 -0.0806  0.2715
 2731TIP3    H129684   3.226   3.783   0.932 -0.5429 -0.8879 -0.3824
 2731TIP3    H229685   3.296   3.863   0.824  0.0532  0.7459  1.1618
 2732TIP3   OH229686   4.115   2.613  15.975 -0.1896  0.3681  0.1325
 2732TIP3    H129687   4.210   2.624  15.963  0.1971 -0.1725  2.2767
 2732TIP3    H229688   4.105   2.524  16.009 -1.4873  0.4164 -0.0640
 2733TIP3   OH229689   3.394   1.111   3.996 -0.1200 -0.1309  0.0413
 2733TIP3    H129690   3.327   1.043   3.991  0.2734 -0.5912  0.8342
 2733TIP3    H229691   3.465   1.072   4.047  0.4067  0.6332 -0.0812
 2734TIP3   OH229692   6.333   2.722  15.401 -0.4360  0.2035  0.2465
 2734TIP3    H129693   6.343   2.735  15.307 -1.8587  0.3167  0.0954
 2734TIP3    H229694   6.300   2.805  15.433 -2.5855 -0.6603  0.4028
 2735TIP3   OH229695   5.630   5.165  13.900 -0.5950 -0.5798  0.2589
 2735TIP3    H129696   5.577   5.215  13.838  1.4362  2.4001  0.7143
 2735TIP3    H229697   5.697   5.122  13.846 -0.2802  0.0568  0.1284
 2736TIP3   OH229698   0.449   6.105   5.939 -0.4212 -0.1368 -0.4263
 2736TIP3    H129699   0.481   6.193   5.918 -2.2733  0.7033  0.0307
 2736TIP3    H229700   0.444   6.060   5.855  1.2839 -0.0969 -0.5743
 2737TIP3   OH229701   6.520   4.216  15.561 -0.0497  0.7322  0.5238
 2737TIP3    H129702   6.541   4.122  15.559  0.6100  0.8805  0.0197
 2737TIP3    H229703   6.560   4.251  15.482 -1.4475  1.2224  0.0062
 2738TIP3   OH229704   4.263   1.724   1.312 -0.3129  0.5257 -0.6195
 2738TIP3    H129705   4.297   1.803   1.354 -1.0644  0.9112 -0.7163
 2738TIP3    H229706   4.310   1.719   1.228 -0.8545  1.3344 -0.9818
 2739TIP3   OH229707   5.529   0.439   0.007  0.1032 -0.2946  0.3237
 2739TIP3    H129708   5.586   0.449   0.082 -0.2756  1.4165  0.4127
 2739TIP3    H229709   5.571   0.489  -0.063 -0.3067 -0.6357 -0.1821
 2740TIP3   OH229710   0.343   4.218  13.403 -0.4964 -0.0666  0.0348
 2740TIP3    H129711   0.429   4.233  13.363  0.2048 -1.6483  0.8448
 2740TIP3    H229712   0.281   4.226  13.330  0.3933  0.5351 -0.6760
 2741TIP3   OH229713   3.485   1.349   4.294  0.1592  0.1192  0.2006
 2741TIP3    H129714   3.392   1.369   4.310 -0.3657 -1.5115 -0.6134
 2741TIP3    H229715   3.497   1.367   4.201 -0.4069 -3.2426 -0.6521
 2742TIP3   OH229716   2.190   4.507   2.636  0.0857  0.5046 -0.0501
 2742TIP3    H129717   2.105   4.537   2.668 -0.2730  0.9962 -1.4169
 2742TIP3    H229718   2.197   4.418   2.670 -0.4018  0.8883  1.1260
 2743TIP3   OH229719   1.280   4.517  11.541  0.2591  0.0992 -0.0671
 2743TIP3    H129720   1.283   4.506  11.446 -2.0638  0.5037 -0.2337
 2743TIP3    H229721   1.348   4.458  11.574  0.5486 -0.6698 -1.9144
 2744TIP3   OH229722   4.883   2.332  11.123 -0.9674  0.3311  0.0140
 2744TIP3    H129723   4.868   2.400  11.057 -0.0719  1.1818  0.6568
 2744TIP3    H229724   4.938   2.374  11.189 -1.2086 -0.7343  0.9288
 2745TIP3   OH229725   5.814   6.054   3.305  0.0072  0.1874 -0.2116
 2745TIP3    H129726   5.902   6.038   3.272 -0.7164 -1.7798 -1.3652
 2745TIP3    H229727   5.827   6.110   3.382  2.2913 -0.5184 -0.0054
 2746TIP3   OH229728   5.618   5.181   4.687 -0.1881 -0.6233 -0.3697
 2746TIP3    H129729   5.603   5.087   4.687 -0.8145 -0.5522 -1.7566
 2746TIP3    H229730   5.650   5.200   4.598  1.5407  0.2433  0.3886
 2747TIP3   OH229731   5.533   1.667   1.206  0.6495  0.0878 -0.2598
 2747TIP3    H129732   5.464   1.642   1.144 -0.4014  1.0754  0.4554
 2747TIP3    H229733   5.568   1.584   1.238 -1.8325 -0.5504  1.0837
 2748TIP3   OH229734   1.481   4.360   4.970 -0.1799  0.1015 -0.3221
 2748TIP3    H129735   1.480   4.406   5.054  1.1791 -0.6708  0.1620
 2748TIP3    H229736   1.516   4.273   4.991 -0.4971 -0.3514 -1.5758
 2749TIP3   OH229737   1.608   4.621  12.142  0.2297  0.2106  0.6748
 2749TIP3    H129738   1.669   4.574  12.085 -0.1387  0.0428  0.4150
 2749TIP3    H229739   1.528   4.628  12.090  0.5988  2.0746  0.2812
 2750TIP3   OH229740   6.267   3.049  13.499 -0.3421  0.4274 -0.0991
 2750TIP3    H129741   6.172   3.051  13.492 -0.4175 -0.1797  0.6299
 2750TIP3    H229742   6.287   3.107  13.573 -0.5020 -2.5615  2.5253
 2751TIP3   OH229743   4.062   6.119   3.320  0.1976  0.2693  0.0574
 2751TIP3    H129744   4.001   6.066   3.268  1.2527 -2.2295  1.1686
 2751TIP3    H229745   4.100   6.181   3.258 -2.5420  1.1395 -0.9111
 2752TIP3   OH229746   3.541   5.421  13.840 -0.0378 -0.0642 -0.3795
 2752TIP3    H129747   3.630   5.452  13.821 -0.0074 -0.3150 -0.6526
 2752TIP3    H229748   3.492   5.440  13.759 -0.0803 -0.5047 -0.4564
 2753TIP3   OH229749   5.913   4.577  16.934  0.1806 -0.5388 -0.0033
 2753TIP3    H129750   5.958   4.492  16.938  2.3748  0.4936 -0.7715
 2753TIP3    H229751   5.883   4.584  16.844  2.2562  0.4772 -0.6925
 2754TIP3   OH229752   0.477   3.571  11.206 -0.0447  0.2442  0.4985
 2754TIP3    H129753   0.405   3.545  11.148 -0.1704 -0.2547  0.8743
 2754TIP3    H229754   0.507   3.489  11.246  0.7626  0.4351  0.3176
 2755TIP3   OH229755   2.366   1.244  13.965  0.1904  0.0602 -0.3275
 2755TIP3    H129756   2.423   1.179  13.923  2.8902  2.3157 -0.3976
 2755TIP3    H229757   2.385   1.326  13.920 -0.7851  1.5266  1.7652
 2756TIP3   OH229758   3.370   2.109   1.999  0.2411  0.7214  0.2572
 2756TIP3    H129759   3.342   2.050   2.069  0.0472  1.5297  0.8721
 2756TIP3    H229760   3.453   2.073   1.968 -0.7831 -0.9775 -0.7069
 2757TIP3   OH229761   5.395   3.124   6.268  0.1403  0.1956 -0.0847
 2757TIP3    H129762   5.313   3.156   6.231 -0.2606 -0.6847 -0.0073
 2757TIP3    H229763   5.390   3.146   6.361  0.2022  0.5571 -0.1677
 2758TIP3   OH229764   5.509   5.935  11.903  0.1225 -0.0295  0.4159
 2758TIP3    H129765   5.484   5.846  11.880 -0.5479  0.7327 -2.1100
 2758TIP3    H229766   5.604   5.932  11.914  0.1462 -0.9859  0.0147
 2759TIP3   OH229767   5.169   0.295   1.478 -0.1336 -0.1053 -0.2806
 2759TIP3    H129768   5.103   0.249   1.529  0.0317 -0.9749 -0.8341
 2759TIP3    H229769   5.120   0.356   1.423 -0.2395  2.6013  2.4925
 2760TIP3   OH229770   4.684   2.345   1.455  0.3241  0.4429 -0.5159
 2760TIP3    H129771   4.705   2.292   1.532  1.0955  1.1902 -0.1927
 2760TIP3    H229772   4.768   2.358   1.411  0.0939  1.1324 -0.7625
 2761TIP3   OH229773   5.064   6.774  12.429  0.0772  0.0784 -0.1898
 2761TIP3    H129774   5.137   6.719  12.400  0.0843  0.5132 -1.0356
 2761TIP3    H229775   4.994   6.711  12.449  0.1139 -0.2655 -1.0555
 2762TIP3   OH229776   5.139   1.902  10.576  0.0962 -0.0219  0.2841
 2762TIP3    H129777   5.078   1.890  10.503  1.6196 -0.8642 -0.9407
 2762TIP3    H229778   5.144   1.997  10.588 -0.3088  0.1231 -0.6129
 2763TIP3   OH229779   0.707   3.602   0.246 -0.2776 -0.3042  0.3854
 2763TIP3    H129780   0.659   3.610   0.328 -0.7444  1.1274 -0.0147
 2763TIP3    H229781   0.674   3.521   0.207 -2.7780  0.8871 -0.1254
 2764TIP3   OH229782   2.993   4.183   1.411  0.1077 -0.0141 -0.0377
 2764TIP3    H129783   3.081   4.207   1.439 -1.0779  1.7956  2.4699
 2764TIP3    H229784   2.952   4.266   1.387 -0.9081 -0.8473 -1.3223
 2765TIP3   OH229785   0.174   5.577  13.419 -0.2705  0.1017 -0.0118
 2765TIP3    H129786   0.175   5.548  13.510  1.5693  1.1278  0.3557
 2765TIP3    H229787   0.266   5.571  13.391 -0.6290  0.8527 -1.4336
 2766TIP3   OH229788   3.753   0.525   5.353  0.2586 -0.4559  0.9789
 2766TIP3    H129789   3.769   0.458   5.419 -0.5053 -1.4420  0.2080
 2766TIP3    H229790   3.702   0.480   5.285  1.0528  0.4941 -0.3057
 2767TIP3   OH229791   1.469   5.774  11.817 -0.4984  0.1817  0.4716
 2767TIP3    H129792   1.539   5.818  11.867 -0.0772  0.3404 -0.2368
 2767TIP3    H229793   1.516   5.727  11.747 -0.7582 -2.8410  2.1624
 2768TIP3   OH229794   0.707   2.213   1.389 -0.0211 -0.4739 -0.2068
 2768TIP3    H129795   0.717   2.211   1.294 -0.8564 -1.1281 -0.2910
 2768TIP3    H229796   0.622   2.255   1.403 -0.1474 -0.8772  0.2359
 2769TIP3   OH229797   6.516   2.618  15.122  0.0534  0.5692 -0.6896
 2769TIP3    H129798   6.449   2.644  15.058 -0.8683 -3.2501 -1.5148
 2769TIP3    H229799   6.551   2.536  15.088  1.6373 -0.1166  2.2753
 2770TIP3   OH229800   6.167   4.426  13.173 -0.2006  0.1492 -0.3002
 2770TIP3    H129801   6.252   4.460  13.198 -0.0543 -1.4575  1.5841
 2770TIP3    H229802   6.184   4.377  13.092  1.0838 -1.6467  0.9803
 2771TIP3   OH229803   2.499   1.490  10.974 -0.1846  0.4403 -0.9005
 2771TIP3    H129804   2.421   1.435  10.966 -0.1099  0.2166 -0.1620
 2771TIP3    H229805   2.551   1.469  10.897  0.8240 -2.1304  0.3614
 2772TIP3   OH229806   4.445   0.179   2.168  0.1834  0.2013 -0.0449
 2772TIP3    H129807   4.439   0.258   2.221  1.2569 -0.0854  0.5417
 2772TIP3    H229808   4.356   0.164   2.136 -0.0554  1.5710 -0.0802
 2773TIP3   OH229809   4.610   0.870   4.298  0.3445  0.5105 -0.0593
 2773TIP3    H129810   4.529   0.876   4.348  1.4528 -0.9401  2.0589
 2773TIP3    H229811   4.671   0.927   4.344  0.8297  0.8276 -1.0524
 2774TIP3   OH229812   3.806   3.044  10.432  0.4992  0.5107 -0.2968
 2774TIP3    H129813   3.899   3.051  10.408  0.1031  0.9191 -1.7896
 2774TIP3    H229814   3.803   2.968  10.490  1.7867  0.5764 -0.1030
 2775TIP3   OH229815   0.013   4.881   1.647 -0.5267  0.2530 -0.0711
 2775TIP3    H129816   0.107   4.866   1.652  0.1671  3.7566 -0.0880
 2775TIP3    H229817  -0.010   4.863   1.555  0.2125 -0.0707 -0.1953
 2776TIP3   OH229818   5.513   4.880  11.511 -0.3717 -0.3160 -0.1783
 2776TIP3    H129819   5.607   4.883  11.531 -0.2500 -1.6850 -0.5053
 2776TIP3    H229820   5.488   4.789  11.523 -1.8042  0.1225  0.4541
 2777TIP3   OH229821   1.343   2.510  16.427  0.4114 -0.2477 -0.1372
 2777TIP3    H129822   1.285   2.583  16.449 -0.3244 -0.6302 -0.7611
 2777TIP3    H229823   1.301   2.468  16.351  0.7960 -1.3349  0.2341
 2778TIP3   OH229824   1.213   6.406   5.515  0.1177  0.2212 -0.0491
 2778TIP3    H129825   1.257   6.438   5.593  1.3291  0.4280 -0.7864
 2778TIP3    H229826   1.122   6.434   5.525  0.1580 -0.1282  1.4673
 2779TIP3   OH229827   1.966   2.381  14.746 -0.7793 -0.5852 -0.2353
 2779TIP3    H129828   2.030   2.391  14.675 -1.0955  0.1900 -0.4297
 2779TIP3    H229829   1.937   2.290  14.739  1.3004 -1.3863  0.7378
 2780TIP3   OH229830   3.536   5.044   3.547 -0.1429 -0.3399  0.1351
 2780TIP3    H129831   3.514   4.956   3.578  0.1734 -0.4309  0.1012
 2780TIP3    H229832   3.527   5.100   3.625  1.5594 -0.7154  0.6282
 2781TIP3   OH229833   4.232   5.834   4.307  0.9022  0.4666 -0.3147
 2781TIP3    H129834   4.240   5.746   4.345  0.9949  0.3816 -0.5280
 2781TIP3    H229835   4.170   5.824   4.236  0.5921  0.6641 -0.0733
 2782TIP3   OH229836   0.296   0.153  16.944 -1.1215  0.1008 -0.2805
 2782TIP3    H129837   0.283   0.126  17.035 -2.2023 -0.9653 -0.7248
 2782TIP3    H229838   0.234   0.101  16.895 -1.8772  1.9850 -1.4396
 2783TIP3   OH229839   3.392   6.458  17.196 -0.2997  0.2195 -0.3676
 2783TIP3    H129840   3.380   6.553  17.189  0.1126  0.2423 -0.8527
 2783TIP3    H229841   3.352   6.435  17.279  2.8700  1.3672  1.6506
 2784TIP3   OH229842   4.835   5.258  11.634  0.5175  0.1646 -0.2377
 2784TIP3    H129843   4.883   5.276  11.715  0.6637  0.6558 -0.4329
 2784TIP3    H229844   4.768   5.195  11.660  2.0983 -1.6071 -0.2150
 2785TIP3   OH229845   5.778   5.779   1.041  0.2533 -0.1549  0.1846
 2785TIP3    H129846   5.811   5.814   0.959  0.2640 -0.4398  0.0651
 2785TIP3    H229847   5.845   5.716   1.069 -0.5935 -1.4092 -0.5157
 2786TIP3   OH229848   3.846   3.594   3.940  0.6637 -0.1046  0.7022
 2786TIP3    H129849   3.927   3.638   3.915  0.2805  0.4880  0.4804
 2786TIP3    H229850   3.869   3.501   3.941  1.4243  0.0743  0.9506
 2787TIP3   OH229851   0.805   5.982  15.776 -0.4928  0.2939  0.3433
 2787TIP3    H129852   0.864   5.968  15.850  1.7400 -0.1194 -1.3963
 2787TIP3    H229853   0.815   6.075  15.754  0.7391 -0.0902 -0.8682
 2788TIP3   OH229854   4.687   4.621  16.364  0.6867 -0.0002  0.2612
 2788TIP3    H129855   4.645   4.587  16.285  0.2572 -1.6614  1.1562
 2788TIP3    H229856   4.697   4.715  16.347 -2.5452  0.3627 -0.3999
 2789TIP3   OH229857   5.850   2.888   0.092  0.2377  0.2636  0.0124
 2789TIP3    H129858   5.852   2.984   0.090  0.7924  0.2635 -2.1530
 2789TIP3    H229859   5.894   2.865   0.174 -0.8117  1.8307  1.0873
 2790TIP3   OH229860   1.872   6.404  14.517  0.2890  0.2689 -0.3803
 2790TIP3    H129861   1.923   6.382  14.595  1.3004 -0.8160 -1.3046
 2790TIP3    H229862   1.902   6.491  14.492 -1.3270  1.4145  1.4072
 2791TIP3   OH229863   3.725   0.077  15.483  0.0365  0.1569  0.2460
 2791TIP3    H129864   3.760  -0.010  15.464 -0.7173  0.1330 -1.1336
 2791TIP3    H229865   3.801   0.127  15.511  0.4280 -1.0256  1.4276
 2792TIP3   OH229866   4.549   2.450   2.925 -0.1449 -0.3276 -0.1513
 2792TIP3    H129867   4.537   2.356   2.936 -0.6253 -0.1554  0.8041
 2792TIP3    H229868   4.539   2.487   3.013  0.8014  0.5352 -0.3883
 2793TIP3   OH229869   4.533   0.267   4.704  0.0532 -0.1704  0.4884
 2793TIP3    H129870   4.613   0.289   4.752  0.4400  0.3908 -0.3961
 2793TIP3    H229871   4.555   0.282   4.612 -1.0103 -0.1955  0.2207
 2794TIP3   OH229872   6.063   0.270  13.197  0.2043 -0.8043  0.0564
 2794TIP3    H129873   6.099   0.347  13.152  0.9635 -0.8690  0.5375
 2794TIP3    H229874   6.140   0.225  13.232 -0.3209 -1.1807  0.7415
 2795TIP3   OH229875   5.792   6.777  14.031  0.6368 -0.1782  0.0044
 2795TIP3    H129876   5.702   6.763  14.058  0.7378 -0.0452  0.4206
 2795TIP3    H229877   5.828   6.689  14.017  0.5052 -0.2365  0.0386
 2796TIP3   OH229878   5.695   1.540   0.348  0.3932 -0.2766  0.2755
 2796TIP3    H129879   5.682   1.576   0.260 -0.9720 -0.7153  0.2812
 2796TIP3    H229880   5.777   1.579   0.377  0.3102  0.7373 -0.7598
 2797TIP3   OH229881   1.871   4.487  15.700  0.2844  0.6818 -0.5627
 2797TIP3    H129882   1.797   4.491  15.761  1.6624 -0.6707  1.3137
 2797TIP3    H229883   1.831   4.466  15.615 -1.7248  2.9919 -0.2928
 2798TIP3   OH229884   1.192   3.237   4.468  0.1081  0.5578  0.2518
 2798TIP3    H129885   1.253   3.177   4.512 -1.9971 -1.1949  0.9728
 2798TIP3    H229886   1.248   3.298   4.421  2.4213 -1.4799  0.1483
 2799TIP3   OH229887   5.861   2.451  17.203  0.2504 -0.1077  0.0482
 2799TIP3    H129888   5.789   2.475  17.144 -1.3854 -0.3955  1.8032
 2799TIP3    H229889   5.908   2.533  17.219 -0.2913  0.2917 -0.3654
 2800TIP3   OH229890   5.003   3.590  12.148  1.0574  0.2500 -0.5299
 2800TIP3    H129891   5.036   3.516  12.096 -2.8679 -1.6792 -0.6268
 2800TIP3    H229892   4.972   3.653  12.082  0.1469 -0.1714 -0.5133
 2801TIP3   OH229893   2.185   3.243  15.695  0.0194 -0.0855 -0.3557
 2801TIP3    H129894   2.187   3.214  15.604 -1.2939  0.0304 -0.4350
 2801TIP3    H229895   2.136   3.174  15.741 -2.4408  1.4995 -0.4023
 2802TIP3   OH229896   5.073   3.627   3.202 -0.3144  0.1945  0.1667
 2802TIP3    H129897   5.153   3.575   3.209 -0.9604 -1.0384 -1.1454
 2802TIP3    H229898   5.098   3.702   3.148  0.1792  0.2711  0.5034
 2803TIP3   OH229899   6.484   0.619  13.365  0.1586  0.2913 -0.2377
 2803TIP3    H129900   6.451   0.696  13.411  0.8570  0.5283 -0.1269
 2803TIP3    H229901   6.411   0.556  13.369 -1.8104  2.1319 -3.4275
 2804TIP3   OH229902   2.733   6.241   2.631 -0.0845 -0.4493  0.5248
 2804TIP3    H129903   2.696   6.185   2.563 -0.0734  0.5683 -0.3432
 2804TIP3    H229904   2.806   6.191   2.666 -0.3495 -1.1649  0.0693
 2805TIP3   OH229905   4.013   0.597   5.287 -0.7121  0.2521  0.0788
 2805TIP3    H129906   4.033   0.590   5.380  1.7513 -3.2538 -0.5345
 2805TIP3    H229907   3.918   0.582   5.282 -0.6426 -1.2482  1.9620
 2806TIP3   OH229908   2.748   2.430  17.065  0.2995  0.0933 -0.8258
 2806TIP3    H129909   2.748   2.514  17.020  0.3738  1.4842  1.6081
 2806TIP3    H229910   2.810   2.441  17.137 -2.4186 -0.6799  1.8367
 2807TIP3   OH229911   4.104   0.542  11.689 -0.8932  0.3163 -0.0572
 2807TIP3    H129912   4.192   0.533  11.725 -0.1363 -1.5426 -2.1157
 2807TIP3    H229913   4.047   0.551  11.765  0.6809 -2.4417  1.6065
 2808TIP3   OH229914   3.364   1.718  14.317 -0.2591  0.0200 -0.4855
 2808TIP3    H129915   3.328   1.733  14.405 -0.4994 -2.3933 -0.1116
 2808TIP3    H229916   3.424   1.791  14.304 -0.8441  0.9035  1.3304
 2809TIP3   OH229917   5.458   0.384  15.482  0.3537 -0.1299  0.1873
 2809TIP3    H129918   5.468   0.406  15.574  0.1125  3.0639 -0.4342
 2809TIP3    H229919   5.546   0.397  15.445 -0.0288  0.8104 -0.4115
 2810TIP3   OH229920   1.689   3.041  17.168  0.4030 -0.0624  0.1036
 2810TIP3    H129921   1.747   2.987  17.222 -0.0610 -0.6620  0.0187
 2810TIP3    H229922   1.738   3.053  17.086  0.3776 -0.6503 -0.0093
 2811TIP3   OH229923   2.476   4.219   5.504  0.3978  0.0496  0.1241
 2811TIP3    H129924   2.514   4.159   5.569 -2.9193 -1.0395  1.2960
 2811TIP3    H229925   2.422   4.278   5.556 -1.3463 -0.0371 -1.5179
 2812TIP3   OH229926   5.896   1.560   3.046 -0.1539  0.0361  0.5427
 2812TIP3    H129927   5.870   1.500   3.116  0.8377 -0.2807  0.6591
 2812TIP3    H229928   5.991   1.567   3.055 -0.1024  0.5647 -0.3212
 2813TIP3   OH229929   0.776   2.808   1.314  0.5939 -0.4409 -0.1461
 2813TIP3    H129930   0.761   2.816   1.220  1.9264 -4.9907 -0.9779
 2813TIP3    H229931   0.694   2.774   1.349  0.4339  0.2695  0.1902
 2814TIP3   OH229932   1.079   2.138  11.849  0.1044  0.4917  0.1856
 2814TIP3    H129933   1.062   2.110  11.939 -0.2882 -0.6608 -0.2299
 2814TIP3    H229934   1.157   2.193  11.856  1.3354 -1.2502  0.9667
 2815TIP3   OH229935   0.444   3.678   0.992 -0.1554  0.5523  0.4188
 2815TIP3    H129936   0.515   3.741   0.998  1.1944 -0.7394 -1.0428
 2815TIP3    H229937   0.403   3.679   1.079  2.9548 -0.1074  2.0150
 2816TIP3   OH229938   4.018   1.897  11.632  0.3628  0.1599 -0.7830
 2816TIP3    H129939   4.078   1.822  11.630 -1.5183 -1.4250 -3.2599
 2816TIP3    H229940   3.944   1.868  11.684  0.3952  1.0094 -0.2384
 2817TIP3   OH229941   3.071   5.687   4.155 -0.2904 -0.6557  0.3821
 2817TIP3    H129942   3.025   5.628   4.095  1.0873  0.6633 -2.0758
 2817TIP3    H229943   3.029   5.772   4.143  1.8942  0.3091 -1.0439
 2818TIP3   OH229944   6.317   5.952  11.542 -0.4094 -0.5022  0.1444
 2818TIP3    H129945   6.355   6.004  11.613 -0.7259  1.0251 -0.7815
 2818TIP3    H229946   6.386   5.888  11.520  0.2425 -0.0566  0.8497
 2819TIP3   OH229947   4.026   5.135   4.730  0.1265 -0.2502 -0.0485
 2819TIP3    H129948   4.021   5.040   4.729  2.0396 -0.3973 -0.4681
 2819TIP3    H229949   4.080   5.157   4.653  2.1048  0.9356  1.5658
 2820TIP3   OH229950   4.729   4.879  16.331 -0.2508 -0.3642 -0.7293
 2820TIP3    H129951   4.729   4.933  16.410 -0.4992 -0.8877 -0.3680
 2820TIP3    H229952   4.801   4.914  16.278 -0.9417  0.8774 -0.8847
 2821TIP3   OH229953   5.176   2.966   2.860  0.3182  0.6091 -0.4346
 2821TIP3    H129954   5.174   2.903   2.788  0.9430  2.9709 -2.6818
 2821TIP3    H229955   5.200   3.049   2.818  3.4411  1.6516  2.8634
 2822TIP3   OH229956   0.447   3.963   2.369 -0.7437  0.4358 -0.1385
 2822TIP3    H129957   0.436   4.052   2.402  0.6164  0.4155  0.4033
 2822TIP3    H229958   0.505   3.972   2.293 -0.7989  0.0319 -0.2349
 2823TIP3   OH229959   6.166   0.782   2.046  0.3496 -0.1529 -0.4376
 2823TIP3    H129960   6.110   0.836   1.990 -0.6274 -1.0846 -0.3842
 2823TIP3    H229961   6.199   0.842   2.112  0.6385  0.7306 -1.3620
 2824TIP3   OH229962   4.617   0.410   3.292  0.5793  0.0973 -0.3835
 2824TIP3    H129963   4.559   0.342   3.257 -0.0940 -0.4346  1.6380
 2824TIP3    H229964   4.569   0.448   3.365  1.2230  2.3406 -1.0393
 2825TIP3   OH229965   2.058   6.756  13.096 -0.2631 -0.3447  0.6872
 2825TIP3    H129966   2.001   6.826  13.065 -2.6427 -1.6201  1.9326
 2825TIP3    H229967   2.071   6.700  13.020 -0.0772  0.2994  0.2297
 2826TIP3   OH229968   6.203   6.400   5.211  0.1304  0.2297 -0.7090
 2826TIP3    H129969   6.265   6.370   5.145  0.2818 -0.4141 -0.2867
 2826TIP3    H229970   6.251   6.393   5.294 -0.9101 -1.5432 -0.2134
 2827TIP3   OH229971   5.944   5.770   2.288  0.4439 -0.5694 -0.0723
 2827TIP3    H129972   5.961   5.787   2.196 -1.5452  0.4312 -0.3065
 2827TIP3    H229973   6.019   5.808   2.334  1.2969 -0.7999 -1.2563
 2828TIP3   OH229974   2.852   4.074   2.908 -0.4768  0.3198  0.2249
 2828TIP3    H129975   2.898   4.138   2.853  1.8442 -1.1672  0.2780
 2828TIP3    H229976   2.776   4.121   2.942 -0.4344  2.1395 -1.9853
 2829TIP3   OH229977   2.566   2.815  13.242 -0.7510  0.4679  0.1520
 2829TIP3    H129978   2.607   2.834  13.158 -0.9427  1.0357  0.1778
 2829TIP3    H229979   2.634   2.836  13.307 -0.5928  0.0003  0.1390
 2830TIP3   OH229980   5.349   1.075  16.077 -0.2931  0.0827  0.7093
 2830TIP3    H129981   5.287   1.082  16.004 -0.0574  0.4096  0.5403
 2830TIP3    H229982   5.294   1.081  16.155 -0.4146  1.1005  0.5676
 2831TIP3   OH229983   5.840   4.976   5.229 -0.2149 -0.2322  0.2365
 2831TIP3    H129984   5.799   5.008   5.149  0.6380  0.4571  0.0541
 2831TIP3    H229985   5.831   4.881   5.225 -0.7561 -0.1599 -0.3534
 2832TIP3   OH229986   5.238   3.074   1.442  0.0879 -0.5626 -0.1703
 2832TIP3    H129987   5.149   3.109   1.453  0.3723  0.3706 -0.6899
 2832TIP3    H229988   5.293   3.152   1.434  1.0133 -1.1190  0.5024
 2833TIP3   OH229989   5.781   4.870   4.737  0.0576  0.1283 -0.3209
 2833TIP3    H129990   5.863   4.856   4.691 -0.1665 -0.8965 -0.4340
 2833TIP3    H229991   5.719   4.810   4.696 -0.4962  0.1655  0.4202
 2834TIP3   OH229992   3.413   1.482   2.972  0.0032 -0.0460  0.0806
 2834TIP3    H129993   3.404   1.410   2.910  1.0260 -0.0714 -0.0643
 2834TIP3    H229994   3.485   1.535   2.937  0.2134  0.2602  0.9341
 2835TIP3   OH229995   2.267   0.103   0.088 -0.1412 -0.1856 -0.3614
 2835TIP3    H129996   2.328   0.148   0.147 -0.9476 -1.5529  1.6046
 2835TIP3    H229997   2.320   0.035   0.046 -0.0055 -0.5265  0.3533
 2836TIP3   OH229998   1.153   3.416  14.713 -0.6076  0.2532  0.4699
 2836TIP3    H129999   1.110   3.404  14.628 -0.4257 -0.1033  0.4289
 2836TIP3    H230000   1.132   3.507  14.737  1.0020  1.0594 -0.9147
 2837TIP3   OH230001   1.373   5.378  12.286 -0.2588 -0.1034  0.2700
 2837TIP3    H130002   1.457   5.339  12.263  1.0540  1.8397  1.4829
 2837TIP3    H230003   1.372   5.378  12.382 -1.4633  0.2912  0.2801
 2838TIP3   OH230004   0.151   3.064  16.253 -0.2460  0.1016  0.1582
 2838TIP3    H130005   0.205   3.065  16.174  0.1166 -0.0356  0.4009
 2838TIP3    H230006   0.090   2.991  16.239  0.6057 -0.7004  0.5186
 2839TIP3   OH230007   6.632   0.439  13.110 -0.7400 -0.0486  0.1348
 2839TIP3    H130008   6.578   0.514  13.136 -0.0440  0.1483  1.0361
 2839TIP3    H230009   6.700   0.477  13.054 -1.3634 -0.2635 -0.7994
 2840TIP3   OH230010   6.013   2.649   0.048  0.3674  0.4473  0.3646
 2840TIP3    H130011   5.960   2.729   0.037 -1.0381 -0.4536  0.2868
 2840TIP3    H230012   6.027   2.642   0.142 -2.0338 -0.7189  0.7139
 2841TIP3   OH230013   0.505   0.683  14.538 -0.0058 -0.4713 -0.2578
 2841TIP3    H130014   0.432   0.709  14.481  0.2805  1.8768  0.3742
 2841TIP3    H230015   0.463   0.665  14.623  0.1671  1.7456  0.3582
 2842TIP3   OH230016   0.248   1.191   2.081 -0.2244  0.1774 -0.7245
 2842TIP3    H130017   0.241   1.266   2.021  0.4294 -0.2815 -1.4068
 2842TIP3    H230018   0.296   1.125   2.030  2.5851  0.6316  1.0907
 2843TIP3   OH230019   4.506   4.328   2.515  0.0885 -0.7294  0.5277
 2843TIP3    H130020   4.423   4.373   2.501  0.5529  0.3289  1.0806
 2843TIP3    H230021   4.492   4.240   2.480 -1.7589 -1.0671  1.9979
 2844TIP3   OH230022   6.253   2.057   0.732  0.0379 -0.1875  0.1394
 2844TIP3    H130023   6.334   2.023   0.694  0.9040  0.3875  1.4345
 2844TIP3    H230024   6.192   2.060   0.658  0.9124 -1.4552 -0.6727
 2845TIP3   OH230025   2.811   2.968   3.041 -0.4888  0.4295 -0.4606
 2845TIP3    H130026   2.864   2.994   3.116 -0.3361  1.3973 -0.8827
 2845TIP3    H230027   2.845   2.882   3.016  0.3303  0.6695 -0.2114
 2846TIP3   OH230028   1.921   2.109  11.116 -0.1998 -0.2569 -0.4119
 2846TIP3    H130029   1.898   2.201  11.113 -1.5947 -0.5936 -0.7416
 2846TIP3    H230030   1.973   2.094  11.037  1.2580  0.5134  0.3482
 2847TIP3   OH230031   5.901   2.933   3.064  0.1009  0.3908  0.6936
 2847TIP3    H130032   5.986   2.916   3.105  0.7981  0.2257 -0.7530
 2847TIP3    H230033   5.839   2.882   3.115  0.7754  0.9351  2.1038
 2848TIP3   OH230034   6.656   5.445  11.752  0.2328 -0.4056 -0.5410
 2848TIP3    H130035   6.615   5.419  11.834 -1.9226 -1.3587 -1.8366
 2848TIP3    H230036   6.653   5.541  11.753 -1.0785 -0.4327 -0.1040
 2849TIP3   OH230037   6.017   0.453  14.508 -0.1006  0.1854 -0.1026
 2849TIP3    H130038   6.011   0.458  14.603  2.2469 -0.1136  0.1216
 2849TIP3    H230039   6.011   0.360  14.488 -0.6574  0.2532 -0.2626
 2850TIP3   OH230040   4.284   1.055   5.119 -0.1442  0.4257 -0.0720
 2850TIP3    H130041   4.252   0.969   5.148  0.3225  0.3086  0.1098
 2850TIP3    H230042   4.219   1.085   5.056 -0.5273  0.1218  0.1752
 2851TIP3   OH230043   5.194   2.602   0.057 -0.1791 -0.0709 -0.0295
 2851TIP3    H130044   5.259   2.550   0.009  1.3953  1.5014  0.2893
 2851TIP3    H230045   5.237   2.686   0.072 -2.0253  0.7640  0.9051
 2852TIP3   OH230046   5.607   2.444  13.735  0.6860  0.3950 -0.0912
 2852TIP3    H130047   5.601   2.493  13.818  1.0481  0.2617  0.0131
 2852TIP3    H230048   5.661   2.498  13.679  1.7495 -0.2430  0.2873
 2853TIP3   OH230049   6.054   1.912  12.693  0.1006 -0.1859  0.0863
 2853TIP3    H130050   6.027   1.900  12.602  1.2394  0.1085 -0.3064
 2853TIP3    H230051   6.003   1.988  12.723 -0.5357 -0.4990 -0.1887
 2854TIP3   OH230052   4.165   4.463  15.685  0.4775 -0.4221 -0.8737
 2854TIP3    H130053   4.254   4.454  15.650  1.0279  2.1835 -0.3166
 2854TIP3    H230054   4.176   4.507  15.769 -1.1898 -2.4990  0.5674
 2855TIP3   OH230055   1.734   4.663   2.924  0.3985 -0.4928 -0.5137
 2855TIP3    H130056   1.758   4.602   2.994  3.0249  1.6625  0.6714
 2855TIP3    H230057   1.707   4.743   2.970 -0.8291  0.0003 -1.9976
 2856TIP3   OH230058   5.326   6.627   1.283 -0.0150 -0.1470 -0.2364
 2856TIP3    H130059   5.385   6.625   1.358 -0.1630 -1.4277 -0.1208
 2856TIP3    H230060   5.279   6.543   1.288 -1.1108  0.4096 -0.8988
 2857TIP3   OH230061   1.084   0.784  13.880 -0.6616 -0.7706  0.1318
 2857TIP3    H130062   1.110   0.693  13.896 -0.3890 -0.9446 -1.1207
 2857TIP3    H230063   1.009   0.777  13.820 -0.5292 -0.1693 -0.1095
 2858TIP3   OH230064   1.259   5.936   2.912 -0.4244  0.0307  0.0622
 2858TIP3    H130065   1.335   5.935   2.854 -1.1159 -0.0704 -0.8492
 2858TIP3    H230066   1.238   5.843   2.926 -1.8455  0.0461 -1.6597
 2859TIP3   OH230067   5.577   4.878   2.494 -0.3058  0.3909  0.2216
 2859TIP3    H130068   5.523   4.858   2.571 -1.9727 -0.6623 -1.1654
 2859TIP3    H230069   5.514   4.897   2.425  1.1747  2.2853 -0.6874
 2860TIP3   OH230070   0.165   6.744   2.547 -0.0858 -0.5098 -0.0911
 2860TIP3    H130071   0.125   6.808   2.487  1.8979  1.0415  0.1259
 2860TIP3    H230072   0.096   6.679   2.562 -0.6977 -1.0120 -4.0216
 2861TIP3   OH230073   1.740   3.225   4.748 -0.3907 -0.4703  0.5336
 2861TIP3    H130074   1.800   3.202   4.820  1.0590 -2.0615 -1.1102
 2861TIP3    H230075   1.663   3.171   4.764 -0.1898 -0.6251  1.0377
 2862TIP3   OH230076   1.860   5.262   0.784 -0.7816  0.8663  0.2238
 2862TIP3    H130077   1.785   5.241   0.841 -0.3539 -1.6483  0.0039
 2862TIP3    H230078   1.921   5.308   0.841 -1.3094  0.3873  1.2144
 2863TIP3   OH230079   0.488   3.721  15.215  0.5616  0.1768 -0.1146
 2863TIP3    H130080   0.450   3.728  15.303  0.7793  1.2753 -0.0920
 2863TIP3    H230081   0.427   3.667  15.166  0.2546 -0.1485  0.6221
 2864TIP3   OH230082   5.117   1.787  11.334  0.0640 -0.2981  0.0152
 2864TIP3    H130083   5.096   1.878  11.355 -0.4704 -0.4328  0.0792
 2864TIP3    H230084   5.190   1.792  11.272 -0.4772  0.1963 -0.5892
 2865TIP3   OH230085   3.515   1.499  11.962 -0.1613  0.6298  0.1182
 2865TIP3    H130086   3.529   1.439  11.889 -1.1080 -0.6437  0.9455
 2865TIP3    H230087   3.604   1.523  11.990  0.2516 -0.8390  0.1342
 2866TIP3   OH230088   3.265   5.727  10.919  0.2425 -0.1276  0.1967
 2866TIP3    H130089   3.186   5.673  10.921 -0.2533  0.4286 -2.1066
 2866TIP3    H230090   3.332   5.670  10.883  0.2317  0.1896 -0.3264
 2867TIP3   OH230091   6.742   5.530  13.592 -0.0674 -0.5053 -0.2903
 2867TIP3    H130092   6.694   5.524  13.675  0.8373 -0.0300  0.2838
 2867TIP3    H230093   6.774   5.441  13.577 -1.2715 -0.8820 -0.7930
 2868TIP3   OH230094   4.344   2.589  14.425  0.1918 -0.8015  0.6250
 2868TIP3    H130095   4.399   2.663  14.450  2.7999 -1.4781 -2.4626
 2868TIP3    H230096   4.383   2.513  14.468  2.5497 -1.4283 -2.2688
 2869TIP3   OH230097   5.828   3.964   1.099 -0.4921 -0.8340  0.6431
 2869TIP3    H130098   5.841   3.890   1.159  1.6288  1.0008  2.6426
 2869TIP3    H230099   5.749   4.007   1.131  0.7801  0.2997  2.4811
 2870TIP3   OH230100   4.499   6.145  14.022 -0.7981 -0.5221 -0.2057
 2870TIP3    H130101   4.547   6.188  14.093 -1.5098  1.2558 -0.7227
 2870TIP3    H230102   4.541   6.176  13.942 -1.9533  0.0552 -0.6260
 2871TIP3   OH230103   5.816   5.984  14.800  0.6760  0.0114 -0.1054
 2871TIP3    H130104   5.766   6.003  14.721  1.5858 -0.7978 -0.9074
 2871TIP3    H230105   5.878   6.057  14.808  0.5695  0.1039 -0.1247
 2872TIP3   OH230106   4.396   0.683  10.539 -0.3732 -0.1573 -0.1122
 2872TIP3    H130107   4.419   0.767  10.500  0.3152 -0.5760 -0.6459
 2872TIP3    H230108   4.309   0.696  10.576 -0.1493  0.8721  0.0775
 2873TIP3   OH230109   0.861   3.082   4.207 -0.4726  0.2955 -0.1629
 2873TIP3    H130110   0.825   3.170   4.205 -0.8410  0.1384 -0.4510
 2873TIP3    H230111   0.795   3.027   4.164  0.6900  0.2158 -1.9246
 2874TIP3   OH230112   3.437   4.415   3.007  0.1980  0.1321  0.0619
 2874TIP3    H130113   3.374   4.486   3.023  1.5948  1.4074  0.1503
 2874TIP3    H230114   3.487   4.444   2.931  0.6893 -0.8628 -0.0069
 2875TIP3   OH230115   5.420   5.880  11.608  0.1310 -0.0699  0.2643
 2875TIP3    H130116   5.349   5.899  11.548  1.0467  0.0372 -0.8162
 2875TIP3    H230117   5.382   5.894  11.695 -1.2857 -0.4846 -0.2564
 2876TIP3   OH230118   0.560   4.833   0.074 -0.0277  0.2631  0.4686
 2876TIP3    H130119   0.474   4.843   0.032 -0.9331 -2.1905  1.5469
 2876TIP3    H230120   0.622   4.843   0.002 -1.4260 -1.6279 -1.1163
 2877TIP3   OH230121   4.856   3.820   1.649 -0.0694  0.0776 -0.1961
 2877TIP3    H130122   4.814   3.851   1.729  0.5029 -0.4629  0.3346
 2877TIP3    H230123   4.863   3.725   1.661  0.9995  0.1093 -0.3971
 2878TIP3   OH230124   3.815   4.502   5.266 -0.1902 -0.4007 -0.1624
 2878TIP3    H130125   3.865   4.583   5.251  1.1480 -1.0454  0.6709
 2878TIP3    H230126   3.769   4.517   5.349 -1.1002  0.0368 -0.7284
 2879TIP3   OH230127   6.375   4.074  12.761 -0.0915  0.3926 -0.4236
 2879TIP3    H130128   6.286   4.044  12.743  0.0344  0.1176 -0.5919
 2879TIP3    H230129   6.367   4.122  12.844 -0.5897  1.2964 -0.9738
 2880TIP3   OH230130   0.620   3.628   5.369 -0.0057  0.1521  0.1467
 2880TIP3    H130131   0.601   3.652   5.279  2.6094  3.8911  0.3356
 2880TIP3    H230132   0.692   3.565   5.363  2.8409  3.2271 -0.5868
 2881TIP3   OH230133   3.685   5.302  14.988  0.1683 -0.3760  0.5264
 2881TIP3    H130134   3.636   5.332  15.064  2.6941  0.3204  2.0101
 2881TIP3    H230135   3.753   5.244  15.024 -0.3560 -2.4330 -1.5644
 2882TIP3   OH230136   5.957   1.044  14.726  0.2578  0.2057 -0.0248
 2882TIP3    H130137   5.900   0.998  14.664 -0.1207  0.4156  0.1656
 2882TIP3    H230138   6.030   1.075  14.673 -0.1108  0.4653 -0.3866
 2883TIP3   OH230139   4.977   6.558   1.204 -0.0655 -0.2499 -0.1100
 2883TIP3    H130140   4.954   6.478   1.158  0.6037 -0.0220 -0.8569
 2883TIP3    H230141   5.048   6.533   1.263 -1.5979 -0.7712  1.5944
 2884TIP3   OH230142   0.080   1.518   0.371 -0.2429 -0.0611 -0.4680
 2884TIP3    H130143   0.031   1.471   0.438  0.0072  1.0912  0.5839
 2884TIP3    H230144   0.018   1.532   0.300 -0.9673 -0.0534  0.1473
 2885TIP3   OH230145   3.348   0.723  11.878  0.3727 -0.0719  0.3561
 2885TIP3    H130146   3.301   0.675  11.810  3.0022  0.0848 -1.7354
 2885TIP3    H230147   3.284   0.787  11.910 -0.6979  0.6888 -2.8895
 2886TIP3   OH230148   4.153   1.122  14.808 -0.6185  0.1638 -0.1894
 2886TIP3    H130149   4.076   1.066  14.822  0.5700 -1.0639  2.0495
 2886TIP3    H230150   4.140   1.196  14.867 -0.6709  0.6269 -0.7748
 2887TIP3   OH230151   2.539   2.098  12.889 -0.6011  0.2468 -0.3428
 2887TIP3    H130152   2.454   2.081  12.849 -0.2385 -1.6190 -0.4104
 2887TIP3    H230153   2.533   2.188  12.919 -2.5316  0.2243 -0.5087
 2888TIP3   OH230154   5.220   1.398   6.481  0.2204 -0.2051  0.2178
 2888TIP3    H130155   5.226   1.442   6.566 -0.9754  1.6835 -0.6171
 2888TIP3    H230156   5.295   1.430   6.433 -0.5950  0.8956 -0.3561
 2889TIP3   OH230157   1.245   1.019  14.655  0.2771 -0.3505 -0.0929
 2889TIP3    H130158   1.280   0.945  14.606  3.3143 -0.8294  2.4387
 2889TIP3    H230159   1.276   1.096  14.607  1.0294 -0.7731 -0.3057
 2890TIP3   OH230160   3.671   5.599  14.199 -0.5608  0.3371  0.7994
 2890TIP3    H130161   3.680   5.548  14.118 -2.2487  1.8393 -0.4264
 2890TIP3    H230162   3.722   5.551  14.264  0.9095 -0.9050 -1.1583
 2891TIP3   OH230163   6.192   0.807   2.870 -0.4370 -0.3461  0.2557
 2891TIP3    H130164   6.219   0.800   2.778 -1.2120  0.3367 -0.0341
 2891TIP3    H230165   6.097   0.796   2.868 -0.3672 -1.3155  1.1013
 2892TIP3   OH230166   0.275   2.499  13.207 -0.5080  0.0312  0.2505
 2892TIP3    H130167   0.219   2.493  13.285 -0.7325 -0.5667  0.0500
 2892TIP3    H230168   0.220   2.543  13.142 -0.6337 -0.2545  0.1601
 2893TIP3   OH230169   3.074   5.770  12.849  0.1599  0.5104  0.0022
 2893TIP3    H130170   3.069   5.762  12.754  0.0251  1.7262 -0.1069
 2893TIP3    H230171   3.167   5.761  12.870  0.2302  0.5784 -0.2801
 2894TIP3   OH230172   1.093   0.166   0.446  0.2198  0.6350 -0.4851
 2894TIP3    H130173   1.062   0.208   0.526  1.9103  2.1091 -0.5413
 2894TIP3    H230174   1.080   0.232   0.378 -1.5862 -0.7430 -1.5725
 2895TIP3   OH230175   1.718   4.687   4.776  0.8742  0.3208 -0.4494
 2895TIP3    H130176   1.788   4.705   4.838 -1.3223  0.8554  2.0801
 2895TIP3    H230177   1.645   4.740   4.807 -0.3411  0.6993 -3.6438
 2896TIP3   OH230178   4.328   0.826  16.292 -0.2253 -0.2837 -0.0710
 2896TIP3    H130179   4.236   0.851  16.292  0.0858  0.9296 -0.2666
 2896TIP3    H230180   4.350   0.810  16.200  0.1084  0.8371 -0.1974
 2897TIP3   OH230181   2.248   0.009   1.251 -0.0963  0.5760 -0.4423
 2897TIP3    H130182   2.309  -0.063   1.262 -0.9836  0.0683  1.7482
 2897TIP3    H230183   2.206   0.018   1.337 -0.5272  3.2389 -0.8460
 2898TIP3   OH230184   5.435   5.855   3.529  0.3024 -0.1107  0.7026
 2898TIP3    H130185   5.390   5.826   3.450  0.0345  1.9652  0.0418
 2898TIP3    H230186   5.371   5.911   3.574  1.1680  0.4186  1.3039
 2899TIP3   OH230187   5.831   4.039   1.454 -0.4128 -0.6957  0.0957
 2899TIP3    H130188   5.818   3.967   1.393 -0.1468 -0.0329 -0.7619
 2899TIP3    H230189   5.743   4.073   1.472 -0.5647 -1.3857  0.7123
 2900TIP3   OH230190   2.673   0.298   4.531 -0.3408 -0.4281  0.3664
 2900TIP3    H130191   2.750   0.340   4.571 -0.1581  1.8531 -2.1383
 2900TIP3    H230192   2.708   0.250   4.456 -1.1165 -1.4217  0.6174
 2901TIP3   OH230193   1.973   2.957   3.478  0.1267  0.1117 -0.3311
 2901TIP3    H130194   1.930   2.997   3.402 -1.2778 -2.0199 -0.7289
 2901TIP3    H230195   1.906   2.957   3.546  1.5227  2.4454  1.1602
 2902TIP3   OH230196   3.369   5.859  16.409 -0.5645 -0.5512  0.0733
 2902TIP3    H130197   3.461   5.836  16.422 -0.4407  0.1854  0.6191
 2902TIP3    H230198   3.370   5.954  16.394 -1.1690 -0.6585 -0.7230
 2903TIP3   OH230199   2.204   0.228  13.325  0.0590  0.1778  0.3568
 2903TIP3    H130200   2.210   0.322  13.307 -1.9580 -0.1202 -2.4309
 2903TIP3    H230201   2.113   0.213  13.351  0.4375 -0.9915  1.1230
 2904TIP3   OH230202   1.088   5.931  16.282  0.0298  0.0638  0.1705
 2904TIP3    H130203   1.132   5.906  16.363 -0.0491  0.7628  0.4370
 2904TIP3    H230204   1.099   5.856  16.224 -0.0830 -0.5217  0.8982
 2905TIP3   OH230205   5.419   3.309   0.380  0.4570 -0.1741 -0.7352
 2905TIP3    H130206   5.437   3.258   0.459 -0.8741  0.2183 -0.1529
 2905TIP3    H230207   5.484   3.379   0.381 -0.6742  0.9258  1.0438
 2906TIP3   OH230208   6.182   3.790   4.399 -0.0679 -0.1091 -0.8665
 2906TIP3    H130209   6.207   3.882   4.389 -0.1501 -0.0050 -0.1648
 2906TIP3    H230210   6.086   3.793   4.404 -0.0163 -0.1026  0.3506
 2907TIP3   OH230211   1.831   5.761  13.508  0.1014  0.0309  0.1722
 2907TIP3    H130212   1.761   5.808  13.553 -0.3426  0.1881 -0.6745
 2907TIP3    H230213   1.890   5.830  13.476 -0.1748 -0.0144 -0.4493
 2908TIP3   OH230214   1.800   3.697   4.189 -0.2355 -0.0181  0.0808
 2908TIP3    H130215   1.850   3.772   4.222  0.7942 -1.4004  1.8399
 2908TIP3    H230216   1.717   3.701   4.237 -1.4915  1.6265 -2.0204
 2909TIP3   OH230217   5.199   1.191  14.294  0.1347  0.3213 -0.8744
 2909TIP3    H130218   5.254   1.145  14.357  0.2268  0.8458 -0.5628
 2909TIP3    H230219   5.201   1.137  14.215  0.8099  0.1596 -0.7481
 2910TIP3   OH230220   1.174   6.001   4.583  0.0406 -0.1371 -0.1668
 2910TIP3    H130221   1.146   6.054   4.509 -1.7578  0.5668  0.9505
 2910TIP3    H230222   1.247   6.049   4.621  0.3539 -0.0160 -0.9020
 2911TIP3   OH230223   2.074   2.295   0.249 -0.4548 -0.2679 -0.0054
 2911TIP3    H130224   2.088   2.389   0.234 -0.4428 -0.1138  0.8862
 2911TIP3    H230225   2.063   2.258   0.162  0.5757  0.4043 -0.4412
 2912TIP3   OH230226   5.948   4.266  16.362  0.5159 -0.1753 -0.5476
 2912TIP3    H130227   5.986   4.264  16.450 -0.5818  0.2414 -0.0492
 2912TIP3    H230228   5.895   4.186  16.357 -0.2532  0.3293 -0.4512
 2913TIP3   OH230229   3.598   3.142   3.626  0.3904  0.4228  0.3027
 2913TIP3    H130230   3.553   3.211   3.576  1.6122  0.4193 -0.8394
 2913TIP3    H230231   3.565   3.060   3.588  1.7651  0.4164 -1.0035
 2914TIP3   OH230232   3.013   3.104  15.044  0.3529  0.2633 -0.2024
 2914TIP3    H130233   2.985   3.195  15.056 -2.8281 -0.4407 -1.3125
 2914TIP3    H230234   3.106   3.110  15.024 -0.0414  3.4148 -1.7162
 2915TIP3   OH230235   5.209   6.582   2.643  0.0678 -0.0940 -0.1128
 2915TIP3    H130236   5.220   6.644   2.715 -1.0878 -1.2513  1.1092
 2915TIP3    H230237   5.194   6.638   2.566 -0.5163  1.1591  0.8630
 2916TIP3   OH230238   6.629   4.456  15.676  0.4187 -0.3987  0.4231
 2916TIP3    H130239   6.720   4.428  15.681  0.6962 -0.4843 -3.0033
 2916TIP3    H230240   6.582   4.378  15.645 -0.4941  0.1691  0.3350
 2917TIP3   OH230241   4.037   5.984  14.175  0.4585 -0.1456  0.3598
 2917TIP3    H130242   3.967   5.939  14.222  0.5878  0.2169  0.9110
 2917TIP3    H230243   4.075   5.916  14.119  0.8192 -0.8078  1.3648
 2918TIP3   OH230244   1.372   5.611   4.123 -0.3572 -0.4543  0.2626
 2918TIP3    H130245   1.386   5.700   4.155  0.9223 -0.4838 -0.1470
 2918TIP3    H230246   1.458   5.583   4.093 -1.2444 -0.7738 -2.2975
 2919TIP3   OH230247   2.903   0.550   4.010 -0.1684  0.0722 -0.3636
 2919TIP3    H130248   2.900   0.618   3.942 -1.2264 -0.2849 -0.6908
 2919TIP3    H230249   2.824   0.565   4.062  1.3561  1.2711  1.7488
 2920TIP3   OH230250   5.901   3.348  15.573 -0.0235 -0.4177  0.3710
 2920TIP3    H130251   5.901   3.265  15.621  1.1134 -0.1527  0.8463
 2920TIP3    H230252   5.813   3.353  15.535 -0.4360 -1.3653  1.1510
 2921TIP3   OH230253   6.214   0.152   4.396  0.4543 -0.4906  0.0978
 2921TIP3    H130254   6.255   0.209   4.461 -0.2929  0.6651 -0.4139
 2921TIP3    H230255   6.254   0.177   4.313 -1.0032  0.4303 -0.3659
 2922TIP3   OH230256   4.507   6.249  12.961 -0.3642 -0.0389  0.4651
 2922TIP3    H130257   4.547   6.198  13.031 -0.4240  0.8140  1.1408
 2922TIP3    H230258   4.573   6.251  12.892  0.4704  0.7097  1.2635
 2923TIP3   OH230259   2.162   4.729  15.513  0.0114  0.2216 -0.4971
 2923TIP3    H130260   2.222   4.792  15.554 -0.5134  0.8184 -0.6270
 2923TIP3    H230261   2.184   4.645  15.553  1.8247  0.1776 -1.5041
 2924TIP3   OH230262   2.640   4.589  16.921  0.4961 -1.0628 -0.2357
 2924TIP3    H130263   2.721   4.609  16.968 -0.1527  0.0783  0.4482
 2924TIP3    H230264   2.592   4.531  16.980  0.2365 -0.6566 -0.0440
 2925TIP3   OH230265   5.626   5.826  16.913 -0.0935  0.0882  0.4867
 2925TIP3    H130266   5.686   5.898  16.896 -0.4288  0.4375  0.7642
 2925TIP3    H230267   5.675   5.747  16.888  1.5917  0.0693  3.4692
 2926TIP3   OH230268   5.552   2.235  14.560  0.6568  0.3425 -0.0457
 2926TIP3    H130269   5.476   2.209  14.611  0.0497  1.9768 -0.0411
 2926TIP3    H230270   5.615   2.266  14.625  0.5024  0.9366 -0.1732
 2927TIP3   OH230271   1.671   3.614  11.305  0.0399  0.1040 -0.3383
 2927TIP3    H130272   1.668   3.520  11.286  0.4258  0.3390 -1.6574
 2927TIP3    H230273   1.603   3.627  11.371  0.0538 -1.1143 -0.0622
 2928TIP3   OH230274   6.376   6.539  16.261  0.3466  0.4735  0.2109
 2928TIP3    H130275   6.389   6.447  16.240 -0.8658  0.2290  0.4707
 2928TIP3    H230276   6.282   6.547  16.277  0.2614  1.9653 -0.8489
 2929TIP3   OH230277   3.498   1.023   6.155  0.3842 -0.2695 -0.0521
 2929TIP3    H130278   3.588   1.053   6.139  1.4412 -2.9377  0.3017
 2929TIP3    H230279   3.479   1.051   6.245  0.1069  1.8652 -0.7154
 2930TIP3   OH230280   4.977   5.265   6.455 -0.1859 -0.0037  0.5764
 2930TIP3    H130281   4.908   5.225   6.509  1.0793 -0.8534  1.6389
 2930TIP3    H230282   5.044   5.196   6.447  0.8841  1.0446  0.2542
 2931TIP3   OH230283   0.067   4.771  15.056 -0.1500  0.1376 -0.5838
 2931TIP3    H130284   0.116   4.808  15.129  1.3050 -1.0865 -0.8931
 2931TIP3    H230285   0.080   4.833  14.985 -0.3563  0.5937 -0.2328
 2932TIP3   OH230286   2.183   1.926  14.307  0.3756  0.2238 -0.1119
 2932TIP3    H130287   2.270   1.957  14.333  0.0260  1.1061  0.0584
 2932TIP3    H230288   2.200   1.846  14.257  1.4841  1.5183 -1.9885
 2933TIP3   OH230289   2.678   5.088  10.964 -0.1372  0.4940 -0.1373
 2933TIP3    H130290   2.595   5.059  10.926 -1.0025  1.2717  1.0791
 2933TIP3    H230291   2.687   5.178  10.936  2.6752 -0.7638 -4.1171
 2934TIP3   OH230292   3.389   5.134  12.945  0.2344  0.3231 -0.2790
 2934TIP3    H130293   3.449   5.081  12.997 -0.7481 -0.2871  0.2689
 2934TIP3    H230294   3.428   5.222  12.945  1.6465 -0.2782 -0.8210
 2935TIP3   OH230295   5.161   5.639  14.404 -0.4128 -0.2054 -0.5432
 2935TIP3    H130296   5.251   5.659  14.381 -0.7690  1.6433 -0.4717
 2935TIP3    H230297   5.118   5.620  14.320 -0.5280  1.4932 -0.9093
 2936TIP3   OH230298   0.704   1.039   5.857  0.3527 -0.0618 -0.3579
 2936TIP3    H130299   0.618   1.060   5.820  0.5569 -0.3283 -1.0004
 2936TIP3    H230300   0.692   1.044   5.952 -0.6269 -1.0928 -0.4134
 2937TIP3   OH230301   4.101   3.288   3.192  0.3949  0.7680 -0.4247
 2937TIP3    H130302   4.183   3.265   3.236  0.2268  0.4887 -0.2515
 2937TIP3    H230303   4.106   3.245   3.107  0.3989  0.6964 -0.3881
 2938TIP3   OH230304   6.062   1.916  13.412  0.5425  0.3998  0.6397
 2938TIP3    H130305   6.096   1.838  13.457  1.4928 -0.7015 -1.8232
 2938TIP3    H230306   6.006   1.882  13.343 -0.8780  2.0368  0.9114
 2939TIP3   OH230307   1.483   2.628   5.154  0.1600  0.1256  0.4412
 2939TIP3    H130308   1.577   2.613   5.141  0.2889  0.3669  1.0582
 2939TIP3    H230309   1.454   2.551   5.203 -0.0579 -0.1557 -0.1192
 2940TIP3   OH230310   1.773   2.165  12.581  0.1369 -0.0219 -0.7940
 2940TIP3    H130311   1.681   2.161  12.554 -1.2773  0.9703  3.1464
 2940TIP3    H230312   1.780   2.100  12.651  2.4792 -0.0761 -1.0067
 2941TIP3   OH230313   0.921   4.631  11.032 -0.0612 -0.4894 -0.0227
 2941TIP3    H130314   0.912   4.722  11.057  0.4048 -0.4563  0.0293
 2941TIP3    H230315   0.925   4.633  10.936  3.7422 -0.0567 -0.0040
 2942TIP3   OH230316   4.643   0.526  16.430  0.6628 -0.8679 -0.0467
 2942TIP3    H130317   4.619   0.551  16.341  0.7959 -3.6282 -0.9772
 2942TIP3    H230318   4.575   0.463  16.455 -0.8295  1.6744  2.8792
 2943TIP3   OH230319   2.849   0.015  14.612  0.1330 -0.2145 -0.5813
 2943TIP3    H130320   2.885  -0.074  14.611  0.7038 -0.1192  2.1017
 2943TIP3    H230321   2.809   0.024  14.699 -0.6852  1.8705 -1.0981
 2944TIP3   OH230322   5.022   5.542   3.424 -0.3894 -0.8667 -0.0644
 2944TIP3    H130323   5.052   5.615   3.478 -0.7333 -0.5278 -0.3213
 2944TIP3    H230324   5.002   5.473   3.487 -0.7242 -0.5008  0.2413
 2945TIP3   OH230325   4.640   3.861   1.906 -0.8264  0.1732 -0.0711
 2945TIP3    H130326   4.723   3.876   1.951 -0.6149 -1.4453  0.1176
 2945TIP3    H230327   4.599   3.948   1.902 -0.8524  0.4099  3.2183
 2946TIP3   OH230328   1.615   5.702   4.501  0.2412  0.2011  0.3592
 2946TIP3    H130329   1.531   5.719   4.459  0.0581  3.2329  1.7092
 2946TIP3    H230330   1.593   5.688   4.593  1.2795  3.7095  1.2742
 2947TIP3   OH230331   4.803   2.548  15.565  0.6197  0.1947  0.3666
 2947TIP3    H130332   4.837   2.602  15.494 -1.8457 -0.9421 -1.8558
 2947TIP3    H230333   4.860   2.471  15.567 -1.0340 -1.3063 -2.7325
 2948TIP3   OH230334   4.519   2.017   3.172 -0.2750 -1.0144  0.0530
 2948TIP3    H130335   4.560   2.007   3.258  2.9972 -0.9514 -1.3347
 2948TIP3    H230336   4.522   1.929   3.134  0.6884 -0.6045 -0.8914
 2949TIP3   OH230337   0.838   6.354   3.340  0.5507  0.3283 -0.3660
 2949TIP3    H130338   0.782   6.374   3.415  1.2130  1.7329 -0.1966
 2949TIP3    H230339   0.779   6.316   3.275 -0.4419  0.9839  0.1156
 2950TIP3   OH230340   0.835   5.821   1.631 -0.0943 -0.0684  0.4230
 2950TIP3    H130341   0.873   5.856   1.550  0.2056  1.0043  1.0138
 2950TIP3    H230342   0.780   5.748   1.601  1.3767 -0.8153 -0.5752
 2951TIP3   OH230343   3.328   4.377  12.542 -0.6447 -0.7143  0.3083
 2951TIP3    H130344   3.343   4.461  12.499 -1.0920 -0.6459  0.2876
 2951TIP3    H230345   3.293   4.399  12.628  1.5388 -0.8008  1.2748
 2952TIP3   OH230346   0.137   5.466  16.443  0.1805  0.6438  0.0161
 2952TIP3    H130347   0.164   5.501  16.528  0.3761 -1.5204  0.8959
 2952TIP3    H230348   0.199   5.504  16.381  2.8324 -1.0528  1.4529
 2953TIP3   OH230349   6.341   4.963  16.793 -0.2940 -0.2396  0.3564
 2953TIP3    H130350   6.254   4.968  16.831  0.6851  1.0764  2.6554
 2953TIP3    H230351   6.332   5.004  16.707 -2.2516 -1.7115 -0.2039
 2954TIP3   OH230352   0.113   5.509  12.994  0.0151 -0.4893 -0.1697
 2954TIP3    H130353   0.053   5.435  13.004 -0.1898 -0.2186  0.6391
 2954TIP3    H230354   0.067   5.570  12.936 -0.2290 -0.5532 -0.0418
 2955TIP3   OH230355   0.034   6.288  10.842  0.6022 -0.1222  0.4524
 2955TIP3    H130356   0.068   6.377  10.833  2.5653 -0.5951  2.2818
 2955TIP3    H230357   0.093   6.235  10.789 -1.3284 -0.2771 -1.6928
 2956TIP3   OH230358   5.406   5.625  13.336  0.4773  0.4107 -0.3168
 2956TIP3    H130359   5.463   5.552  13.361 -1.1525 -0.7943  0.0166
 2956TIP3    H230360   5.462   5.682  13.284  1.6150 -1.4353 -1.2043
 2957TIP3   OH230361   3.702   6.085   3.006 -0.0588 -0.0825 -0.1499
 2957TIP3    H130362   3.688   6.179   3.018  0.0980 -0.1372  0.5104
 2957TIP3    H230363   3.796   6.075   2.997 -0.0836 -0.1706 -0.3331
 2958TIP3   OH230364   2.762   3.272  15.420  0.5517 -0.2551 -0.6844
 2958TIP3    H130365   2.761   3.225  15.337  0.7749  0.9647 -1.4104
 2958TIP3    H230366   2.854   3.272  15.447  0.4280 -0.9599 -0.2432
 2959TIP3   OH230367   1.729   3.792  12.554 -0.1638 -0.2507  0.0556
 2959TIP3    H130368   1.655   3.739  12.525 -0.0196  0.2400 -1.2485
 2959TIP3    H230369   1.802   3.731  12.558 -0.5191 -0.6375  0.8864
 2960TIP3   OH230370   5.742   2.907  13.386 -0.0964 -0.6496  0.7844
 2960TIP3    H130371   5.758   2.831  13.442  0.2955 -1.9284 -0.9672
 2960TIP3    H230372   5.711   2.869  13.303 -1.2565  1.1944  0.3240
 2961TIP3   OH230373   4.367   2.368   3.650 -0.1671 -0.2779  0.3826
 2961TIP3    H130374   4.401   2.349   3.563 -0.5942  1.3467 -0.1817
 2961TIP3    H230375   4.424   2.437   3.684 -0.0752 -0.8117  1.3628
 2962TIP3   OH230376   0.918   2.517   2.214  0.4345  0.0170 -0.1122
 2962TIP3    H130377   0.877   2.532   2.300  1.3640  1.4979  0.1034
 2962TIP3    H230378   0.961   2.432   2.223 -0.4651 -0.3931  0.4880
 2963TIP3   OH230379   4.747   5.933   3.064  0.5685  0.3446  0.0786
 2963TIP3    H130380   4.830   5.981   3.067 -0.4008  2.1850 -0.9707
 2963TIP3    H230381   4.773   5.842   3.053  2.4957  0.4846  2.5485
 2964TIP3   OH230382   4.977   1.939   1.713 -0.2720  0.4653  0.3777
 2964TIP3    H130383   5.039   1.866   1.703 -0.5878  0.0818  1.1018
 2964TIP3    H230384   4.920   1.932   1.637 -0.1876  0.0565  0.3464
 2965TIP3   OH230385   6.341   3.252  14.808  0.1646 -0.2522  0.1935
 2965TIP3    H130386   6.363   3.159  14.807  0.4446 -0.3384 -3.9668
 2965TIP3    H230387   6.246   3.254  14.796  0.2219 -0.0590 -0.2712
 2966TIP3   OH230388   0.037   3.958   0.296  0.4925 -0.0872  0.4256
 2966TIP3    H130389   0.024   3.880   0.351  0.6306 -0.5234 -0.1524
 2966TIP3    H230390   0.038   4.031   0.358 -4.6927  0.1329  0.6573
 2967TIP3   OH230391   2.202   4.957   3.406 -0.0602 -0.4204 -0.0642
 2967TIP3    H130392   2.278   4.938   3.461 -0.1572  0.7296  0.4876
 2967TIP3    H230393   2.215   5.046   3.376 -0.6182 -0.6210 -0.9345
 2968TIP3   OH230394   6.168   3.824  16.854  0.5242 -0.3441  0.2598
 2968TIP3    H130395   6.131   3.843  16.941 -0.9408  0.9922 -0.5788
 2968TIP3    H230396   6.215   3.904  16.831  1.0222 -0.7477 -0.1320
 2969TIP3   OH230397   0.572   2.063   6.641  0.2389 -0.2090  0.3866
 2969TIP3    H130398   0.479   2.078   6.662 -0.2208 -0.0124 -1.5781
 2969TIP3    H230399   0.613   2.148   6.652  0.3867 -0.4728  2.0755
 2970TIP3   OH230400   1.106   6.637  16.218 -0.4522 -0.4012  0.2758
 2970TIP3    H130401   1.131   6.616  16.308 -0.7936  0.3237  0.5466
 2970TIP3    H230402   1.179   6.688  16.184 -0.3349 -0.6533  0.1469
 2971TIP3   OH230403   1.397   1.300   1.036 -0.4779  0.2528 -0.1355
 2971TIP3    H130404   1.384   1.388   1.073 -0.2846 -0.1771  0.9778
 2971TIP3    H230405   1.488   1.300   1.007 -1.2247  1.3949 -2.9040
 2972TIP3   OH230406   3.190   5.595   5.510 -0.3339 -0.3899 -0.1530
 2972TIP3    H130407   3.142   5.673   5.537 -1.8855 -0.6305 -1.9889
 2972TIP3    H230408   3.278   5.606   5.548 -0.2868  2.5618 -0.9103
 2973TIP3   OH230409   0.409   5.164   4.554  0.0164 -0.3311 -0.0797
 2973TIP3    H130410   0.467   5.214   4.496  0.1022 -0.9519 -0.5374
 2973TIP3    H230411   0.433   5.192   4.642 -0.6379  1.2120 -0.3509
 2974TIP3   OH230412   6.588   2.416  16.693  0.1868 -0.4710  0.2903
 2974TIP3    H130413   6.593   2.512  16.697 -1.4742 -0.3475 -0.0964
 2974TIP3    H230414   6.500   2.395  16.723 -0.0367 -1.7659 -1.1552
 2975TIP3   OH230415   1.691   3.319  14.453 -0.3973  0.4217 -0.1466
 2975TIP3    H130416   1.684   3.256  14.382 -1.5745 -2.0724  1.9951
 2975TIP3    H230417   1.782   3.348  14.451 -0.0108 -0.8105 -1.6592
 2976TIP3   OH230418   2.123   5.228  12.408  0.1543  0.2969 -0.2185
 2976TIP3    H130419   2.107   5.138  12.380  0.1984  0.7211 -1.6799
 2976TIP3    H230420   2.124   5.223  12.504 -0.0779 -1.2066 -0.2647
 2977TIP3   OH230421   5.409   3.292   1.391  0.1940 -0.2539  0.3547
 2977TIP3    H130422   5.395   3.366   1.451 -0.8917 -0.6883  0.6569
 2977TIP3    H230423   5.443   3.333   1.311  0.5849  0.4592  0.8684
 2978TIP3   OH230424   6.503   3.113   4.420 -0.7120  0.3673 -0.2408
 2978TIP3    H130425   6.429   3.076   4.373 -0.0860 -1.3078 -0.0025
 2978TIP3    H230426   6.500   3.070   4.506  0.3039  0.5556 -0.1012
 2979TIP3   OH230427   0.663   2.177   0.029  0.3953  0.5034  0.0102
 2979TIP3    H130428   0.707   2.259   0.005  0.5934  0.2854 -0.3779
 2979TIP3    H230429   0.618   2.150  -0.051  0.2474  0.2830  0.1665
 2980TIP3   OH230430   0.434   5.837   1.899  0.9189  0.6242 -0.7706
 2980TIP3    H130431   0.469   5.775   1.962  1.2468  1.2582 -0.3216
 2980TIP3    H230432   0.351   5.799   1.871 -0.5272  1.5554  1.9782
 2981TIP3   OH230433   3.807   5.398   1.468  0.4716  0.7253  0.0542
 2981TIP3    H130434   3.869   5.401   1.540  0.6118  1.5741 -0.0860
 2981TIP3    H230435   3.828   5.475   1.415 -0.3696  0.7535 -0.2634
 2982TIP3   OH230436   6.090   0.147   1.098  0.0731  0.7606 -0.8702
 2982TIP3    H130437   6.106   0.241   1.100 -2.5382  1.2674 -0.6058
 2982TIP3    H230438   6.031   0.131   1.171 -0.7681 -0.7932 -1.8371
 2983TIP3   OH230439   1.941   4.488   2.744  0.8571  0.1311 -0.0967
 2983TIP3    H130440   1.916   4.525   2.660  2.4215 -1.0213 -1.1244
 2983TIP3    H230441   1.961   4.563   2.799  2.2229  0.8953 -1.5576
 2984TIP3   OH230442   1.190   0.485  15.561  0.3367  0.1806  0.5003
 2984TIP3    H130443   1.095   0.496  15.552  0.0195 -2.3001  0.0895
 2984TIP3    H230444   1.208   0.400  15.521  2.4556 -0.3184  2.3310
 2985TIP3   OH230445   5.683   3.875  13.392  0.1016 -0.5011  0.0872
 2985TIP3    H130446   5.717   3.813  13.328 -0.2319  0.1624 -0.7447
 2985TIP3    H230447   5.595   3.896  13.361 -0.0161 -0.0610  0.6879
 2986TIP3   OH230448   5.975   3.329   4.837 -0.1322 -0.0200  0.3318
 2986TIP3    H130449   5.918   3.339   4.760  0.7722 -0.4509 -0.4171
 2986TIP3    H230450   5.931   3.264   4.891  0.0086 -0.9444 -0.6186
 2987TIP3   OH230451   4.382   0.033  14.724 -0.3994  0.3186  0.1973
 2987TIP3    H130452   4.473   0.006  14.738 -0.1240  0.7471 -0.6997
 2987TIP3    H230453   4.358   0.080  14.805 -0.3688 -1.1774  1.1112
 2988TIP3   OH230454   6.781   4.381  11.589 -0.1297 -0.3535 -0.6281
 2988TIP3    H130455   6.798   4.459  11.643 -3.3718 -0.7615  1.2529
 2988TIP3    H230456   6.842   4.316  11.624  1.2562  0.7420 -0.8872
 2989TIP3   OH230457   5.149   3.110  14.027 -0.1123  0.1020 -0.1733
 2989TIP3    H130458   5.146   3.014  14.019 -1.1100  0.2280 -1.6652
 2989TIP3    H230459   5.060   3.138  14.010  0.0303  1.2849  0.9159
 2990TIP3   OH230460   5.712   1.193  11.055  0.1741  0.4949  0.2825
 2990TIP3    H130461   5.639   1.133  11.040  1.4479 -0.8787 -0.6846
 2990TIP3    H230462   5.673   1.280  11.046 -1.1423 -0.2030 -1.2944
 2991TIP3   OH230463   6.380   0.906   2.528  0.0029 -0.3972  0.2487
 2991TIP3    H130464   6.434   0.936   2.601  0.5108 -1.3346  0.2621
 2991TIP3    H230465   6.321   0.980   2.511  1.8068  0.9819 -0.3007
 2992TIP3   OH230466   2.401   1.046  12.084 -0.2318 -0.0557 -0.5022
 2992TIP3    H130467   2.474   1.098  12.119  0.2845 -0.7717 -0.5048
 2992TIP3    H230468   2.323   1.095  12.109  0.1920  0.1229  0.5114
 2993TIP3   OH230469   2.898   0.368   1.109 -0.1825 -0.3211  0.0217
 2993TIP3    H130470   2.863   0.443   1.059  1.1137  0.7189  0.6096
 2993TIP3    H230471   2.854   0.374   1.193  1.2712  0.9685  0.7496
 2994TIP3   OH230472   3.857   6.525  13.262 -0.0383  0.4449  0.3374
 2994TIP3    H130473   3.824   6.595  13.319 -1.0591  0.5020 -0.2923
 2994TIP3    H230474   3.859   6.565  13.175  2.8525  0.8057  0.4899
 2995TIP3   OH230475   3.973   2.448  17.138  0.3564 -0.2897  0.3864
 2995TIP3    H130476   4.025   2.514  17.184  0.6468 -0.9552  1.0200
 2995TIP3    H230477   3.927   2.498  17.070  0.5265  0.5761  0.8871
 2996TIP3   OH230478   5.608   6.273  14.649 -0.2260  0.1485 -0.1445
 2996TIP3    H130479   5.528   6.313  14.613  0.4383  1.5990 -0.0676
 2996TIP3    H230480   5.679   6.314  14.600  0.5841  0.4883  1.2791
 2997TIP3   OH230481   2.039   0.080  17.188  0.4058  0.7051  0.4195
 2997TIP3    H130482   2.067  -0.000  17.144 -3.5361 -1.2488  1.0096
 2997TIP3    H230483   2.115   0.107  17.240  2.6408 -1.2437 -1.5884
 2998TIP3   OH230484   5.517   6.820  14.681  0.5159  0.5633 -0.0281
 2998TIP3    H130485   5.468   6.873  14.618  0.3034 -1.0452 -1.2909
 2998TIP3    H230486   5.477   6.733  14.675  1.6052 -0.0465  1.1057
 2999TIP3   OH230487   2.655   0.258  17.124  0.1904  0.4983  0.1549
 2999TIP3    H130488   2.685   0.346  17.147 -0.5801  1.1205 -1.1162
 2999TIP3    H230489   2.576   0.272  17.071 -1.7844 -1.0119  2.4427
 3000TIP3   OH230490   3.770   4.775   4.891  0.0393  0.1419 -0.0123
 3000TIP3    H130491   3.679   4.791   4.866  0.6194  2.7367 -0.6822
 3000TIP3    H230492   3.773   4.797   4.984 -0.0568 -0.1681  0.0652
 3001TIP3   OH230493   0.966   6.266  11.449  0.7665  0.0985 -0.4119
 3001TIP3    H130494   1.005   6.352  11.464 -2.3559  1.3230  1.8827
 3001TIP3    H230495   0.979   6.219  11.532  0.1607 -0.6494 -0.7282
 3002TIP3   OH230496   5.287   5.312   5.839 -0.4001  0.0935 -0.8138
 3002TIP3    H130497   5.357   5.252   5.816 -0.5577 -0.4203  0.0103
 3002TIP3    H230498   5.327   5.399   5.832  0.2604 -0.1834 -0.5486
 3003TIP3   OH230499   0.225   6.224  12.778 -0.4101 -0.4077  0.5895
 3003TIP3    H130500   0.186   6.137  12.773 -0.3157 -0.4371  0.3785
 3003TIP3    H230501   0.274   6.234  12.697 -1.8627  0.5476 -0.2262
 3004TIP3   OH230502   6.375   3.669  14.016 -0.1030  0.1178 -0.0613
 3004TIP3    H130503   6.417   3.696  14.098  2.0177 -0.1672 -0.9866
 3004TIP3    H230504   6.330   3.747  13.985  0.9172  0.8687  0.2944
 3005TIP3   OH230505   5.400   1.211   6.144 -0.1454  0.3912 -0.0881
 3005TIP3    H130506   5.459   1.207   6.220 -2.9075 -0.5725  2.1563
 3005TIP3    H230507   5.373   1.303   6.140  0.6403  0.6152 -0.4651
 3006TIP3   OH230508   0.133   3.961  16.025 -0.2636  0.1478  0.1486
 3006TIP3    H130509   0.107   3.870  16.011 -0.8212  0.2850  0.2587
 3006TIP3    H230510   0.082   4.011  15.960  1.4765  0.2018 -1.2359
 3007TIP3   OH230511   0.691   0.839   6.179 -0.3015  0.7971 -0.0162
 3007TIP3    H130512   0.658   0.806   6.263  1.1401 -0.2099  0.1841
 3007TIP3    H230513   0.716   0.929   6.197 -1.1294  0.9729  0.3128
 3008TIP3   OH230514   6.373   5.067   5.038  0.1727 -0.6022  0.3418
 3008TIP3    H130515   6.456   5.053   5.084  0.3786 -1.4009 -0.2599
 3008TIP3    H230516   6.307   5.038   5.101  0.3814 -0.4333  0.6410
 3009TIP3   OH230517   3.433   3.718   5.409 -0.0235  0.5550 -0.1985
 3009TIP3    H130518   3.526   3.738   5.406 -0.0775  0.7676 -0.4517
 3009TIP3    H230519   3.391   3.793   5.368 -0.2945  0.3587 -0.2813
 3010TIP3   OH230520   1.525   5.310   6.635 -0.2528  1.0324  0.0440
 3010TIP3    H130521   1.601   5.363   6.610 -0.1517  0.9005  0.0650
 3010TIP3    H230522   1.479   5.296   6.552 -0.7865  1.9230  0.1819
 3011TIP3   OH230523   5.402   0.710   3.947  0.2238  0.6057 -0.1648
 3011TIP3    H130524   5.343   0.681   4.016  1.2435  0.8329  0.8301
 3011TIP3    H230525   5.346   0.758   3.886 -0.4709  1.6386  1.2385
 3012TIP3   OH230526   4.074   5.512  13.708  0.3919  0.5910  0.4365
 3012TIP3    H130527   4.069   5.504  13.613  1.9657 -0.5226  0.4002
 3012TIP3    H230528   4.100   5.602  13.723 -1.6029  1.3047 -0.0613
 3013TIP3   OH230529   0.559   2.533  15.344 -0.0218  0.2597  0.0569
 3013TIP3    H130530   0.485   2.484  15.310 -0.2199  0.5766  0.0240
 3013TIP3    H230531   0.574   2.602  15.279 -0.4192  0.8863  0.6077
 3014TIP3   OH230532   0.204   1.090   3.449 -0.8640 -0.6309 -0.5054
 3014TIP3    H130533   0.213   1.184   3.467 -2.2627 -0.8005  1.3374
 3014TIP3    H230534   0.138   1.085   3.381 -1.4438 -0.2968  0.0215
 3015TIP3   OH230535   4.014   6.701   1.021 -0.3800  0.3619 -0.6267
 3015TIP3    H130536   4.050   6.677   0.935 -1.3344  0.3878 -1.0499
 3015TIP3    H230537   3.919   6.696   1.009 -0.5559  1.5059  0.0994
 3016TIP3   OH230538   6.544   0.036   4.415 -0.2780  0.1831  0.0455
 3016TIP3    H130539   6.614   0.097   4.437 -1.9731  1.7801  1.3849
 3016TIP3    H230540   6.540   0.037   4.319 -0.2215  2.2017  0.0163
 3017TIP3   OH230541   6.226   2.243  12.128 -0.3287 -0.2631 -0.1056
 3017TIP3    H130542   6.183   2.169  12.172  0.9332  0.2090  2.0768
 3017TIP3    H230543   6.175   2.320  12.155  0.8077  0.1029  1.1820
 3018TIP3   OH230544   6.458   4.082   1.718 -0.2171 -0.0274 -0.1861
 3018TIP3    H130545   6.399   4.088   1.793  0.9394  1.1330  0.6843
 3018TIP3    H230546   6.434   4.000   1.675 -0.8140 -0.8003  1.5332
 3019TIP3   OH230547   0.849   1.591   3.317 -0.0211  0.4010 -0.6971
 3019TIP3    H130548   0.763   1.627   3.339 -0.6540  0.6751 -3.3415
 3019TIP3    H230549   0.846   1.575   3.223  1.7612 -2.5353 -0.3904
 3020TIP3   OH230550   3.023   3.039   3.453 -0.2698 -0.1315  0.4734
 3020TIP3    H130551   3.110   3.047   3.491 -0.6106  0.4236  1.1651
 3020TIP3    H230552   2.979   2.972   3.505 -0.0931 -0.7997 -0.2124
 3021TIP3   OH230553   6.466   6.622   3.556  0.3432 -0.2716  0.7466
 3021TIP3    H130554   6.526   6.615   3.481 -0.3699 -3.0956  0.3411
 3021TIP3    H230555   6.512   6.576   3.627 -0.5131 -0.7738  0.9834
 3022TIP3   OH230556   2.724   5.280  16.948 -0.3835 -0.8434  0.6177
 3022TIP3    H130557   2.699   5.260  16.858  1.4705 -0.7733  0.0517
 3022TIP3    H230558   2.780   5.358  16.941 -0.4939 -0.6319  1.8730
 3023TIP3   OH230559   0.927   4.447  11.585 -0.1406  0.5219  0.2877
 3023TIP3    H130560   0.916   4.353  11.598 -0.2010  0.3970 -0.5794
 3023TIP3    H230561   1.011   4.454  11.539 -0.9110  0.7426 -1.1471
 3024TIP3   OH230562   3.890   1.115   2.916  0.2865  0.3370 -0.3054
 3024TIP3    H130563   3.961   1.099   2.978 -0.2873 -1.8952 -0.1504
 3024TIP3    H230564   3.856   1.028   2.896 -0.7924  1.1613 -2.2957
 3025TIP3   OH230565   4.832   1.521  15.731 -0.4204  0.0118 -0.5742
 3025TIP3    H130566   4.879   1.442  15.757 -0.8091  0.3559  1.2624
 3025TIP3    H230567   4.867   1.590  15.787 -1.8703  0.6332 -0.3872
 3026TIP3   OH230568   3.342   5.211  16.754 -0.0621  0.0928  0.3953
 3026TIP3    H130569   3.304   5.193  16.668 -0.3030 -1.2358  0.7624
 3026TIP3    H230570   3.428   5.248  16.735 -1.3425  2.9733 -0.4456
 3027TIP3   OH230571   0.925   4.726  10.497 -0.1088  0.2617 -0.3631
 3027TIP3    H130572   0.864   4.788  10.537 -1.1305 -1.3949  0.7779
 3027TIP3    H230573   0.914   4.740  10.403 -1.7852  0.4709 -0.1771
 3028TIP3   OH230574   2.629   3.380   3.156  0.0225 -0.4172 -0.3231
 3028TIP3    H130575   2.703   3.346   3.107  0.6700  1.6289 -0.8532
 3028TIP3    H230576   2.651   3.472   3.173 -0.5917 -0.7571  2.9757
 3029TIP3   OH230577   5.635   2.792   0.318 -0.4159  0.1039 -0.1755
 3029TIP3    H130578   5.651   2.844   0.240 -1.2560 -0.4563 -0.7424
 3029TIP3    H230579   5.682   2.837   0.388 -2.1136  2.3785 -0.3794
 3030TIP3   OH230580   3.322   2.183   4.532 -0.8729 -0.5840  0.4885
 3030TIP3    H130581   3.313   2.274   4.560 -1.4992 -0.7202  0.7489
 3030TIP3    H230582   3.302   2.132   4.611  0.1723 -0.9416  0.5312
 3031TIP3   OH230583   2.074   5.574   2.095 -0.3211  0.1782  0.0033
 3031TIP3    H130584   2.017   5.643   2.062 -0.4572  0.7416  1.3664
 3031TIP3    H230585   2.074   5.508   2.025  0.1055  1.6764 -1.4852
 3032TIP3   OH230586   2.130   2.730  16.738  0.2012  0.0190 -0.2966
 3032TIP3    H130587   2.103   2.750  16.649  1.2709  0.6207 -0.5051
 3032TIP3    H230588   2.054   2.686  16.777 -0.7396  0.8937 -1.0907
 3033TIP3   OH230589   1.536   5.113   4.864 -0.3312  0.1814  0.2822
 3033TIP3    H130590   1.519   5.188   4.808 -1.0156  1.4916  2.1223
 3033TIP3    H230591   1.556   5.151   4.950  0.2484 -1.7176  1.0458
 3034TIP3   OH230592   0.689   1.918  16.858  0.2465 -0.2516 -0.1243
 3034TIP3    H130593   0.699   1.847  16.921  1.2969  0.3146  0.3864
 3034TIP3    H230594   0.637   1.984  16.904 -0.2483 -0.4475 -0.3960
 3035TIP3   OH230595   4.477   3.173   2.229 -0.2773 -0.1761 -0.8096
 3035TIP3    H130596   4.450   3.247   2.175 -1.5559  1.1344  1.4396
 3035TIP3    H230597   4.544   3.208   2.288 -1.4473 -0.4988  0.8114
 3036TIP3   OH230598   0.385   0.247   5.551 -0.1944  0.2645 -0.6562
 3036TIP3    H130599   0.430   0.231   5.634  0.8657 -3.1842 -1.7324
 3036TIP3    H230600   0.424   0.328   5.519  1.8129 -0.0801  0.6886
 3037TIP3   OH230601   0.343   6.816   1.618  0.4413 -0.0165 -0.3719
 3037TIP3    H130602   0.395   6.740   1.593  0.7036 -0.0477  0.2415
 3037TIP3    H230603   0.365   6.831   1.710 -1.4499 -0.6794  0.2373
 3038TIP3   OH230604   1.442   0.055   0.932 -0.2266  0.6600 -0.7903
 3038TIP3    H130605   1.390  -0.021   0.958 -0.6862  1.6057  1.2221
 3038TIP3    H230606   1.531   0.021   0.923 -0.8320 -0.5960 -2.4255
 3039TIP3   OH230607   1.399   1.930  15.635  0.0318 -0.0209 -0.3487
 3039TIP3    H130608   1.435   2.011  15.599 -0.1614  0.3118  0.2058
 3039TIP3    H230609   1.343   1.896  15.565  1.0502 -0.3160 -1.0555
 3040TIP3   OH230610   4.118   6.054  16.702 -0.2923 -0.0699 -0.2754
 3040TIP3    H130611   4.197   6.005  16.680 -0.6188 -0.6943 -0.0853
 3040TIP3    H230612   4.088   6.092  16.619  0.7294  0.9749 -0.1925
 3041TIP3   OH230613   4.455   1.100  13.542 -1.0668  0.7293 -0.7934
 3041TIP3    H130614   4.508   1.130  13.615  0.7255 -0.5308 -1.5187
 3041TIP3    H230615   4.400   1.176  13.519 -0.4202  1.6862  0.7131
 3042TIP3   OH230616   1.686   4.839   3.789 -0.3180 -0.3268  0.2513
 3042TIP3    H130617   1.662   4.778   3.720 -1.1877  1.1465 -0.7874
 3042TIP3    H230618   1.635   4.811   3.865 -0.6442 -0.9265 -0.1841
 3043TIP3   OH230619   1.575   4.097  16.840  0.5324 -0.2109 -0.2674
 3043TIP3    H130620   1.563   4.046  16.760 -2.3590  2.1052 -1.4996
 3043TIP3    H230621   1.599   4.184  16.810  0.5082  0.4258  1.4445
 3044TIP3   OH230622   0.681   6.778   3.327  0.3481 -1.0807  0.1707
 3044TIP3    H130623   0.658   6.847   3.264 -0.8453 -0.6821  1.0168
 3044TIP3    H230624   0.760   6.811   3.370  0.7555 -1.0241 -0.5904
 3045TIP3   OH230625   4.633   3.915   2.560 -0.0504 -0.1011  0.1274
 3045TIP3    H130626   4.708   3.875   2.605  1.1982  0.2316 -1.5432
 3045TIP3    H230627   4.559   3.859   2.582  0.2762  0.4830  3.1932
 3046TIP3   OH230628   1.386   4.228   5.591 -0.6041  0.1844  0.0479
 3046TIP3    H130629   1.393   4.133   5.583 -2.1331  0.1374 -1.1032
 3046TIP3    H230630   1.310   4.242   5.648  0.6878  0.7508  1.7449
 3047TIP3   OH230631   0.227   2.956  13.809 -0.7854  0.3694  0.3484
 3047TIP3    H130632   0.184   3.021  13.753  0.7430  0.9267 -0.2520
 3047TIP3    H230633   0.170   2.880  13.806 -0.8557  0.4417 -1.8468
 3048TIP3   OH230634   2.564   2.163  11.962  0.0417  0.6321 -0.3378
 3048TIP3    H130635   2.548   2.115  12.043  1.1212 -0.5006 -0.7645
 3048TIP3    H230636   2.561   2.255  11.988  0.7102  0.2853  1.0605
 3049TIP3   OH230637   1.549   1.536  13.693  0.0128  0.0539 -0.0008
 3049TIP3    H130638   1.464   1.577  13.676  0.1516 -0.5391 -2.4905
 3049TIP3    H230639   1.527   1.452  13.734 -0.5542  0.1388 -0.1230
 3050TIP3   OH230640   5.066   4.043   3.894 -0.1468 -0.5215 -0.2575
 3050TIP3    H130641   5.073   4.039   3.989 -2.5345 -2.0107 -0.0614
 3050TIP3    H230642   5.085   4.134   3.872  0.0324 -0.0588  1.6642
 3051TIP3   OH230643   1.326   0.214   5.094 -0.2011  0.8876  0.1156
 3051TIP3    H130644   1.239   0.182   5.118 -0.6084  2.1466  0.3433
 3051TIP3    H230645   1.343   0.174   5.008 -0.2037 -0.8324  0.8630
 3052TIP3   OH230646   3.126   3.940   2.236  0.1951  0.5303  0.2499
 3052TIP3    H130647   3.040   3.948   2.192  0.7554  0.1499 -0.9621
 3052TIP3    H230648   3.136   4.023   2.283 -0.6475  0.7641  0.0377
 3053TIP3   OH230649   3.940   1.117   1.296  0.6670 -0.0123 -0.3043
 3053TIP3    H130650   3.959   1.205   1.330  1.1797 -0.4490  0.5728
 3053TIP3    H230651   3.846   1.107   1.306  0.8646 -0.3437  1.5932
 3054TIP3   OH230652   5.772   4.462   3.752  0.0127 -0.3303  0.3646
 3054TIP3    H130653   5.818   4.394   3.801  0.1684 -2.1146 -2.0650
 3054TIP3    H230654   5.679   4.441   3.764  0.0637 -1.1570 -0.5397
 3055TIP3   OH230655   0.872   2.900  13.531 -0.1079 -0.4232 -0.0399
 3055TIP3    H130656   0.813   2.840  13.486 -0.0538 -0.5954  0.1165
 3055TIP3    H230657   0.901   2.961  13.464  2.6667 -2.6863 -1.1031
 3056TIP3   OH230658   0.827   1.052  16.437 -0.5239  0.5859 -0.0708
 3056TIP3    H130659   0.832   1.004  16.354  0.4571 -1.2922  1.0063
 3056TIP3    H230660   0.745   1.022  16.476 -0.1885  0.2006  0.3506
 3057TIP3   OH230661   4.310   1.870   3.849 -0.1465  0.0126  1.0820
 3057TIP3    H130662   4.300   1.927   3.926 -0.0555  1.7350 -0.1145
 3057TIP3    H230663   4.404   1.855   3.844 -0.1815 -0.3524  1.4730
 3058TIP3   OH230664   6.018   6.452   2.100  0.7258  0.4936  0.3880
 3058TIP3    H130665   5.957   6.470   2.172  0.0994  0.5376 -0.1391
 3058TIP3    H230666   6.053   6.365   2.120  1.8534  1.1949  1.6178
 3059TIP3   OH230667   1.367   0.287  16.856  0.0019  0.0808 -0.5195
 3059TIP3    H130668   1.452   0.268  16.896 -0.1351  0.4052 -0.0617
 3059TIP3    H230669   1.383   0.281  16.761  0.2362 -1.0772 -0.4157
 3060TIP3   OH230670   6.634   0.438  12.488  0.1118 -0.7830 -0.7052
 3060TIP3    H130671   6.564   0.500  12.466 -0.4861 -1.6492 -1.3131
 3060TIP3    H230672   6.669   0.470  12.571  0.4596  0.8983 -1.4584
 3061TIP3   OH230673   1.718   1.058  14.249  0.1675 -0.3124 -0.2349
 3061TIP3    H130674   1.809   1.086  14.258  0.1295  0.4685 -1.9414
 3061TIP3    H230675   1.681   1.071  14.337  1.0677  1.7310 -0.0792
 3062TIP3   OH230676   5.205   4.316   5.048  0.1343 -0.2128 -0.6351
 3062TIP3    H130677   5.280   4.320   5.108  0.8560  2.1640 -1.5506
 3062TIP3    H230678   5.153   4.243   5.079  1.3608 -0.1491  1.8236
 3063TIP3   OH230679   5.840   1.370  12.057 -0.3983  0.0517 -0.0924
 3063TIP3    H130680   5.886   1.433  12.003 -0.5809  1.1780  1.0201
 3063TIP3    H230681   5.895   1.292  12.055  0.3530  0.5847 -0.6621
 3064TIP3   OH230682   1.994   5.736   3.941  0.0494  0.6585  0.2907
 3064TIP3    H130683   1.929   5.719   4.009 -2.4939  2.7247 -1.3827
 3064TIP3    H230684   2.055   5.662   3.946 -2.2560 -1.2854  2.2178
 3065TIP3   OH230685   2.665   5.886  15.675  0.1262  0.3358  0.4748
 3065TIP3    H130686   2.730   5.901  15.744 -0.8452  3.5654  0.8956
 3065TIP3    H230687   2.601   5.827  15.714  2.9819 -3.6035 -0.2263
 3066TIP3   OH230688   0.581   6.241  12.864 -0.0863  0.9886 -0.3191
 3066TIP3    H130689   0.529   6.321  12.864 -2.2254 -0.3027  0.9894
 3066TIP3    H230690   0.636   6.248  12.943 -0.5568  1.0088  0.0114
 3067TIP3   OH230691   4.060   0.018  14.251 -0.2177 -0.3529  0.0361
 3067TIP3    H130692   4.059  -0.037  14.172  1.3340 -2.0898  1.1373
 3067TIP3    H230693   4.130   0.081  14.235 -1.6877  1.0877 -1.0346
 3068TIP3   OH230694   1.232   1.838   2.969  0.5277 -0.4268  0.1235
 3068TIP3    H130695   1.228   1.761   3.026 -0.5171 -0.7377 -0.3534
 3068TIP3    H230696   1.149   1.838   2.922 -0.2131  1.8492  1.2463
 3069TIP3   OH230697   5.655   0.693   1.907 -0.1933  0.4181  0.1637
 3069TIP3    H130698   5.600   0.677   1.830  0.2964 -0.0524 -0.0933
 3069TIP3    H230699   5.665   0.607   1.948  2.5032 -0.0451 -1.2477
 3070TIP3   OH230700   3.376   5.403  16.955  0.5900  0.0229 -0.0867
 3070TIP3    H130701   3.458   5.387  16.909  1.0175  0.4792  0.5091
 3070TIP3    H230702   3.313   5.346  16.910  1.2275 -0.3540 -0.5314
 3071TIP3   OH230703   0.372   0.121   3.935  0.1650  0.0332  0.0345
 3071TIP3    H130704   0.299   0.070   3.969  0.2083 -0.5477 -0.7113
 3071TIP3    H230705   0.449   0.067   3.953  0.0235 -1.1400 -2.4966
 3072TIP3   OH230706   5.848   0.441   1.145  0.3154  0.5229  0.4752
 3072TIP3    H130707   5.765   0.489   1.152  0.1488  0.4688 -0.8624
 3072TIP3    H230708   5.848   0.407   1.056  1.7156  0.3739  0.5159
 3073TIP3   OH230709   4.386   2.710  11.484  0.2370 -0.7127  0.1524
 3073TIP3    H130710   4.306   2.731  11.435 -0.3781  2.2211  2.1439
 3073TIP3    H230711   4.449   2.776  11.457  1.1904 -1.4981  0.4193
 3074TIP3   OH230712   5.026   4.449  11.281 -0.2907  0.3403  0.6209
 3074TIP3    H130713   4.943   4.402  11.278 -2.4162  3.7408 -0.4478
 3074TIP3    H230714   5.058   4.446  11.191 -0.2221  0.5671  0.6380
 3075TIP3   OH230715   2.571   2.419   6.744 -0.1191 -0.9529  0.4455
 3075TIP3    H130716   2.646   2.474   6.766 -0.5262  0.1686 -0.8611
 3075TIP3    H230717   2.609   2.346   6.696  0.1024 -0.0593 -0.7869
 3076TIP3   OH230718   5.414   6.093   3.051  0.2967 -0.2598  0.2197
 3076TIP3    H130719   5.475   6.163   3.027 -0.6575  0.6153  0.2930
 3076TIP3    H230720   5.356   6.086   2.975 -1.2569  0.8773  1.2531
 3077TIP3   OH230721   1.499   1.754   1.356  0.3132  0.3587  0.3304
 3077TIP3    H130722   1.419   1.770   1.305 -0.3207 -0.7632  0.9285
 3077TIP3    H230723   1.559   1.823   1.328 -0.8018  1.1306 -0.2636
 3078TIP3   OH230724   5.150   1.004   1.536  0.7411  0.6750  0.0156
 3078TIP3    H130725   5.236   0.973   1.565  0.5445  1.3562  1.4188
 3078TIP3    H230726   5.092   0.930   1.548  1.3194 -0.1844 -2.0856
 3079TIP3   OH230727   1.123   5.774  11.105 -0.0407  0.4832 -0.1649
 3079TIP3    H130728   1.034   5.796  11.078 -0.5336 -0.0532  0.9673
 3079TIP3    H230729   1.176   5.788  11.027 -1.0308  1.3266 -0.7104
 3080TIP3   OH230730   3.399   1.996   2.426  0.1582 -0.0974  0.5025
 3080TIP3    H130731   3.317   1.972   2.470 -0.9079  0.6090 -1.0472
 3080TIP3    H230732   3.448   1.914   2.423  0.0471 -0.3056  2.4604
 3081TIP3   OH230733   6.508   6.485  12.625  0.5622  0.2702 -0.8119
 3081TIP3    H130734   6.557   6.409  12.655  0.3133  0.6655  0.7054
 3081TIP3    H230735   6.430   6.487  12.681 -0.0610  0.9280 -1.6715
 3082TIP3   OH230736   5.214   6.324   3.166 -0.5818  0.1761  0.3149
 3082TIP3    H130737   5.310   6.331   3.166 -0.5068 -0.6931  0.6454
 3082TIP3    H230738   5.197   6.238   3.204 -1.5294  0.8722  1.5544
 3083TIP3   OH230739   6.081   2.788   4.064  1.1241 -0.3567 -0.2601
 3083TIP3    H130740   6.159   2.749   4.025  1.5610  1.2225 -1.0479
 3083TIP3    H230741   6.047   2.847   3.996  0.3038  0.3516  0.7343
 3084TIP3   OH230742   0.969   1.874  16.812  0.1950 -0.3244  0.2439
 3084TIP3    H130743   0.967   1.814  16.887 -1.7237 -0.4274  0.1406
 3084TIP3    H230744   0.891   1.929  16.823  1.4607  1.6542 -0.0983
 3085TIP3   OH230745   3.841   6.757  12.438  0.0718 -0.2441 -0.2609
 3085TIP3    H130746   3.888   6.678  12.411  0.0430 -0.2965 -0.1610
 3085TIP3    H230747   3.872   6.773  12.528 -2.8371 -2.4496  1.3289
 3086TIP3   OH230748   5.365   4.132  16.450 -0.1790 -0.3332 -0.2797
 3086TIP3    H130749   5.378   4.127  16.355 -0.6884 -2.8025 -0.3088
 3086TIP3    H230750   5.282   4.179  16.460  0.0285  0.2104 -1.0394
 3087TIP3   OH230751   3.014   2.348  12.573  0.3501 -0.2380 -0.2267
 3087TIP3    H130752   2.962   2.277  12.535  1.0745 -0.2677 -1.2109
 3087TIP3    H230753   2.991   2.424  12.520  1.6139 -0.3469 -0.9530
 3088TIP3   OH230754   5.635   2.217  12.660  0.5954  0.1368  0.1599
 3088TIP3    H130755   5.663   2.256  12.578  0.2378 -0.8720 -0.4674
 3088TIP3    H230756   5.572   2.150  12.634  1.4200 -1.0724  1.1544
 3089TIP3   OH230757   6.752   1.984  15.349 -0.4016  0.6000  0.1367
 3089TIP3    H130758   6.746   2.010  15.441 -2.4686 -0.1591  0.2660
 3089TIP3    H230759   6.689   1.912  15.340  1.2438 -0.7665 -1.4157
 3090TIP3   OH230760   0.312   6.758   0.718  0.8810 -0.0517  0.1092
 3090TIP3    H130761   0.340   6.850   0.726  0.3217  0.0957  0.5019
 3090TIP3    H230762   0.387   6.707   0.748  0.8508  0.3185  0.8365
 3091TIP3   OH230763   2.231   1.141   1.875 -0.5224  0.0918 -0.0147
 3091TIP3    H130764   2.214   1.119   1.966  0.1839  0.4324  0.2019
 3091TIP3    H230765   2.174   1.083   1.825 -0.7436 -0.2519  0.6381
 3092TIP3   OH230766   2.865   5.553  14.544 -0.1171  0.7084  0.2668
 3092TIP3    H130767   2.883   5.546  14.450 -1.7455  0.5395 -0.0501
 3092TIP3    H230768   2.944   5.594  14.580  1.8675 -1.9861 -0.6739
 3093TIP3   OH230769   4.468   1.222   5.243 -0.5903  0.3436 -0.1809
 3093TIP3    H130770   4.393   1.170   5.212 -0.0371 -0.6065  0.0191
 3093TIP3    H230771   4.488   1.185   5.329 -0.3819  1.1224  0.1130
 3094TIP3   OH230772   3.593   5.302  16.819 -0.3140 -0.0854 -0.1464
 3094TIP3    H130773   3.672   5.254  16.795 -0.2230  0.3993 -0.8337
 3094TIP3    H230774   3.611   5.393  16.797 -0.3051  0.3806  1.6094
 3095TIP3   OH230775   2.265   3.451  15.447  0.4935  0.2925  0.2741
 3095TIP3    H130776   2.271   3.467  15.352 -1.2802  2.7181  0.4794
 3095TIP3    H230777   2.352   3.421  15.471  1.1630  0.1666 -2.0454
 3096TIP3   OH230778   2.195   3.163   3.548  0.1050  0.1144  0.0296
 3096TIP3    H130779   2.207   3.116   3.466  1.2369  0.8836 -0.2637
 3096TIP3    H230780   2.112   3.130   3.583 -0.0975 -0.6406 -1.1293
 3097TIP3   OH230781   2.434   4.835   1.828 -0.3060 -0.1125 -0.5042
 3097TIP3    H130782   2.455   4.749   1.864  0.3091 -0.0665 -0.7508
 3097TIP3    H230783   2.404   4.817   1.739 -1.9107 -0.2340  0.0252
 3098TIP3   OH230784   1.943   1.926  15.170 -0.0851 -0.0055 -0.0492
 3098TIP3    H130785   1.879   1.995  15.185  0.8897  1.2612 -1.4352
 3098TIP3    H230786   1.983   1.911  15.255 -0.5020  0.9370  0.3186
 3099TIP3   OH230787   3.747   0.194   0.408  0.6228  0.1220  0.2796
 3099TIP3    H130788   3.808   0.152   0.348  0.2516  0.6143 -0.4514
 3099TIP3    H230789   3.745   0.136   0.485  0.2731 -1.1054 -0.6150
 3100TIP3   OH230790   3.708   2.300  15.382  0.6720  0.0063  0.5078
 3100TIP3    H130791   3.680   2.339  15.465 -0.5259 -1.6198  0.9111
 3100TIP3    H230792   3.683   2.208  15.389  0.7399 -0.2100 -1.5804
 3101TIP3   OH230793   5.611   3.911  10.507  0.2430  0.5148 -0.1811
 3101TIP3    H130794   5.698   3.872  10.498 -0.0703 -0.3479  0.4275
 3101TIP3    H230795   5.554   3.854  10.456  0.1943  1.7328 -1.5473
 3102TIP3   OH230796   6.404   5.968   6.665 -0.0020 -0.0457  0.1489
 3102TIP3    H130797   6.486   6.001   6.629 -0.0787  1.1801  1.0363
 3102TIP3    H230798   6.345   5.962   6.589  0.2642  1.1372 -0.1656
 3103TIP3   OH230799   3.501   3.889  11.032 -0.2450  0.0714  0.2773
 3103TIP3    H130800   3.460   3.890  11.119 -1.4096 -0.5479 -0.2306
 3103TIP3    H230801   3.485   3.976  10.997 -0.6394  0.0137  0.3094
 3104TIP3   OH230802   6.790   5.966   3.785  0.0545  0.4736  0.9167
 3104TIP3    H130803   6.884   5.951   3.797 -0.0887 -1.8827 -0.2093
 3104TIP3    H230804   6.754   5.968   3.873  0.7300 -2.6379  1.3973
 3105TIP3   OH230805   1.363   4.819  15.585  0.4648  0.0965 -0.6534
 3105TIP3    H130806   1.361   4.874  15.506 -1.0228  0.7803 -0.1870
 3105TIP3    H230807   1.278   4.834  15.626  0.2810 -2.0691 -0.1324
 3106TIP3   OH230808   2.016   1.463  15.051  0.5057  0.6353  0.2847
 3106TIP3    H130809   2.061   1.511  15.121  0.7189  0.4030  0.3112
 3106TIP3    H230810   1.953   1.407  15.097 -0.0327  1.1870  0.2269
 3107TIP3   OH230811   4.415   4.877   0.108  0.0045 -0.0237 -0.0844
 3107TIP3    H130812   4.477   4.922   0.166  0.2873 -2.1679  1.3821
 3107TIP3    H230813   4.337   4.863   0.163  0.5503 -2.7523  0.1194
 3108TIP3   OH230814   1.186   4.794   3.687 -0.2435 -0.3266  0.6289
 3108TIP3    H130815   1.190   4.841   3.770  1.6988 -1.5562  1.2797
 3108TIP3    H230816   1.117   4.729   3.700 -0.6053  0.0995  0.9095
 3109TIP3   OH230817   1.016   3.903   0.439 -0.1699 -0.0631  0.4248
 3109TIP3    H130818   1.016   3.820   0.393 -0.4009  0.1189  0.0985
 3109TIP3    H230819   1.011   3.879   0.532  0.2740 -0.4237  0.3615
 3110TIP3   OH230820   1.053   4.818   5.607 -0.2587  0.8333  0.0323
 3110TIP3    H130821   1.020   4.735   5.572  1.5163 -0.7795  1.9650
 3110TIP3    H230822   1.103   4.856   5.534  1.3735 -1.2757 -0.0498
 3111TIP3   OH230823   6.498   4.094   0.275 -0.2795  0.1725  0.3516
 3111TIP3    H130824   6.431   4.160   0.259  0.0792  0.2484 -0.9799
 3111TIP3    H230825   6.557   4.100   0.199  1.5245  0.4409  1.7003
 3112TIP3   OH230826   5.397   3.289  12.131 -0.3404 -0.2909 -0.8186
 3112TIP3    H130827   5.323   3.300  12.190 -0.1191 -1.9560 -0.1978
 3112TIP3    H230828   5.367   3.226  12.066 -0.2777  0.8648 -2.0188
 3113TIP3   OH230829   4.871   3.390   3.935  0.6930  0.2543  0.4348
 3113TIP3    H130830   4.835   3.303   3.920  0.0074  0.5239  0.4966
 3113TIP3    H230831   4.943   3.397   3.872 -0.0585  0.1236 -0.4643
 3114TIP3   OH230832   6.763   1.253  12.057 -0.4507 -0.5290 -0.1690
 3114TIP3    H130833   6.720   1.237  12.141 -0.5816  1.9021  0.2849
 3114TIP3    H230834   6.812   1.334  12.069  0.4227 -0.6959 -2.1185
 3115TIP3   OH230835   4.844   4.772   5.121 -0.0555  0.3562  0.3399
 3115TIP3    H130836   4.853   4.863   5.092 -3.4370  0.7865  0.2283
 3115TIP3    H230837   4.825   4.723   5.041  1.4583 -0.4814  0.4411
 3116TIP3   OH230838   1.185   5.602   4.310 -0.0754 -0.3562 -0.1391
 3116TIP3    H130839   1.154   5.693   4.308  0.9768  0.0613  1.3194
 3116TIP3    H230840   1.264   5.603   4.256  0.8190 -0.0283  1.1403
 3117TIP3   OH230841   4.169   6.476  12.556  0.1390 -0.1868 -0.2307
 3117TIP3    H130842   4.165   6.510  12.467 -1.5576  1.3354  0.3557
 3117TIP3    H230843   4.077   6.474  12.585  0.5217 -1.8411  1.0603
 3118TIP3   OH230844   1.804   0.720   4.180  0.3076 -0.3695 -0.2424
 3118TIP3    H130845   1.717   0.731   4.142  0.7047  3.4567 -0.3604
 3118TIP3    H230846   1.863   0.766   4.120  1.7151  1.0661  2.0949
 3119TIP3   OH230847   1.054   2.433  11.152 -0.0826 -0.3220 -0.0749
 3119TIP3    H130848   1.126   2.390  11.104  0.1433  0.4540 -0.4445
 3119TIP3    H230849   1.032   2.509  11.099 -0.6160 -0.0855  0.4756
 3120TIP3   OH230850   1.761   1.451   1.975  0.1392 -0.4977  0.0269
 3120TIP3    H130851   1.760   1.512   1.901 -0.1387 -1.7049 -1.0019
 3120TIP3    H230852   1.721   1.371   1.941  2.2885 -1.9613  0.6987
 3121TIP3   OH230853   0.043   3.744   6.055 -0.0558 -0.0024 -0.1663
 3121TIP3    H130854   0.039   3.661   6.008 -0.7795  0.1840 -0.4505
 3121TIP3    H230855  -0.022   3.799   6.012 -0.3505  0.3559  0.7103
 3122TIP3   OH230856   3.771   4.207  10.387  0.3971 -0.0871 -0.5332
 3122TIP3    H130857   3.714   4.265  10.437  0.9341  0.4726 -0.5519
 3122TIP3    H230858   3.730   4.201  10.300  1.3146  1.8115 -1.1411
 3123TIP3   OH230859   5.706   0.915  16.605 -0.5382 -0.5802 -0.0693
 3123TIP3    H130860   5.762   0.872  16.539 -0.4085  0.4022 -0.6224
 3123TIP3    H230861   5.763   0.981  16.645 -0.7879 -0.7808  0.6245
 3124TIP3   OH230862   0.126   0.156  12.653  0.3847  0.0407 -0.0510
 3124TIP3    H130863   0.048   0.158  12.598  0.7680  0.2732 -0.5912
 3124TIP3    H230864   0.199   0.150  12.591  0.7794 -0.6180  0.4571
 3125TIP3   OH230865   4.814   5.323  15.664  0.7293  0.3276  0.0211
 3125TIP3    H130866   4.826   5.350  15.573  2.1121  1.9438  0.6290
 3125TIP3    H230867   4.808   5.405  15.713 -3.1185 -0.4256  1.1150
 3126TIP3   OH230868   5.140   1.982   1.123  0.0640  0.1015 -0.1499
 3126TIP3    H130869   5.067   1.948   1.072  1.2435  1.6901 -3.1208
 3126TIP3    H230870   5.215   1.930   1.096  0.5981  0.4969  0.5339
 3127TIP3   OH230871   5.053   0.729  12.165 -0.5760 -0.6059 -0.5650
 3127TIP3    H130872   5.109   0.795  12.207  1.3894 -1.1093 -2.2523
 3127TIP3    H230873   4.971   0.775  12.149 -0.0633  0.7106  0.3940
 3128TIP3   OH230874   2.451   2.420  15.999 -0.0411  0.1541 -0.4900
 3128TIP3    H130875   2.467   2.507  16.037  2.1319  0.0264 -0.9959
 3128TIP3    H230876   2.472   2.359  16.069 -0.7454  0.0115 -0.4006
 3129TIP3   OH230877   1.223   1.767  16.185  0.3621  0.2007  0.6373
 3129TIP3    H130878   1.161   1.748  16.255 -0.8172  0.3388 -0.3376
 3129TIP3    H230879   1.281   1.834  16.222 -0.2192  0.2584  1.4733
 3130TIP3   OH230880   3.147   0.156  14.266 -0.1565 -0.1310  0.3526
 3130TIP3    H130881   3.229   0.108  14.273 -0.6328 -0.7714  1.7928
 3130TIP3    H230882   3.103   0.142  14.350 -2.3687 -0.9404 -0.8552
 3131TIP3   OH230883   0.463   4.503  14.672  0.1541  0.2559  0.2807
 3131TIP3    H130884   0.396   4.527  14.608  0.3666 -0.7796 -0.3610
 3131TIP3    H230885   0.523   4.578  14.673 -1.7540  1.8743  1.9774
 3132TIP3   OH230886   3.081   0.892   0.563 -0.1291 -0.2845  0.0768
 3132TIP3    H130887   3.152   0.918   0.505  0.3831 -0.6725  0.5218
 3132TIP3    H230888   3.029   0.831   0.511  1.8592 -2.8160  0.8404
 3133TIP3   OH230889   5.019   5.417   3.672 -0.0269  0.1892  0.2050
 3133TIP3    H130890   5.066   5.361   3.734  0.9792  1.4038  0.5707
 3133TIP3    H230891   5.048   5.506   3.693 -0.7218  0.7501 -1.1099
 3134TIP3   OH230892   5.070   6.773  13.630 -0.6345 -0.2085 -0.5858
 3134TIP3    H130893   5.137   6.838  13.610 -0.3091 -0.3910 -0.1041
 3134TIP3    H230894   5.032   6.802  13.713 -0.4876 -0.6249 -0.3666
 3135TIP3   OH230895   2.592   1.802  14.146  1.0793 -0.1659  0.1221
 3135TIP3    H130896   2.682   1.821  14.116  1.3359 -1.4849 -0.0040
 3135TIP3    H230897   2.596   1.712  14.178 -0.3396 -0.4440 -0.4156
 3136TIP3   OH230898   2.704   2.298  13.969  0.3783 -0.5352  0.6418
 3136TIP3    H130899   2.725   2.246  13.892  1.0828 -0.4312  0.7542
 3136TIP3    H230900   2.633   2.356  13.941  0.6425 -0.4838  0.0678
 3137TIP3   OH230901   3.938   3.590   4.322 -0.1961  0.1461  0.2200
 3137TIP3    H130902   3.956   3.652   4.251  0.1973  0.0661  0.2447
 3137TIP3    H230903   4.024   3.571   4.359 -0.4481  0.5438  1.0301
 3138TIP3   OH230904   0.011   4.410  14.494 -0.2647 -0.2503  0.2389
 3138TIP3    H130905   0.100   4.375  14.497 -0.9421 -2.2072 -0.7248
 3138TIP3    H230906  -0.039   4.343  14.448 -2.5599  0.0829  2.0676
 3139TIP3   OH230907   5.344   2.421   5.139  0.0149 -0.2949  0.3516
 3139TIP3    H130908   5.321   2.442   5.229 -0.0069  0.3325  0.2059
 3139TIP3    H230909   5.334   2.503   5.092  1.6469 -0.2131  0.0959
 3140TIP3   OH230910   2.537   0.857  16.541 -0.0389  0.2197 -0.5551
 3140TIP3    H130911   2.604   0.925  16.550  0.9960 -0.6718 -1.2298
 3140TIP3    H230912   2.458   0.905  16.516  0.4626  1.2517 -0.2264
 3141TIP3   OH230913   4.735   0.634   4.694 -0.4951 -0.1639 -0.0327
 3141TIP3    H130914   4.724   0.648   4.600  0.2670 -0.7600 -0.2185
 3141TIP3    H230915   4.712   0.543   4.708 -0.7377 -0.0416  0.3820
 3142TIP3   OH230916   1.716   1.912  12.323  0.2024 -0.1285 -0.6044
 3142TIP3    H130917   1.620   1.920  12.325 -0.1135 -2.8495 -0.7761
 3142TIP3    H230918   1.737   1.852  12.394  1.9257  1.0243 -0.0629
 3143TIP3   OH230919   1.246   0.269  13.565  0.6495  0.1730  0.6755
 3143TIP3    H130920   1.340   0.258  13.581  0.9984  2.6038  0.6688
 3143TIP3    H230921   1.206   0.269  13.652  0.5533 -1.2829  0.6610
 3144TIP3   OH230922   0.068   4.484  15.085 -0.4154 -0.3588  0.1175
 3144TIP3    H130923   0.090   4.574  15.109  0.9797 -0.7073  0.2117
 3144TIP3    H230924  -0.026   4.486  15.068 -0.4392  1.0685  0.3247
 3145TIP3   OH230925   0.405   4.791   3.953  0.0342  0.1802 -0.0015
 3145TIP3    H130926   0.334   4.850   3.931  1.2713  1.5272 -0.5257
 3145TIP3    H230927   0.389   4.714   3.898 -1.2687  0.2383  0.2610
 3146TIP3   OH230928   3.808   6.158  12.415  0.0113  0.1491 -0.3146
 3146TIP3    H130929   3.781   6.068  12.435 -0.2600 -0.0097 -1.3125
 3146TIP3    H230930   3.725   6.205  12.404  0.1510  0.6513  0.7125
 3147TIP3   OH230931   6.022   0.193   2.000 -0.3115  0.2509 -0.0945
 3147TIP3    H130932   6.113   0.203   1.972 -0.5144 -2.2028 -1.9548
 3147TIP3    H230933   5.976   0.159   1.922 -2.5450  0.2055  1.1539
 3148TIP3   OH230934   6.502   4.713  15.659  0.3590  0.5798  0.4877
 3148TIP3    H130935   6.406   4.716  15.656  0.2753 -0.8261  1.0740
 3148TIP3    H230936   6.523   4.620  15.652  1.7430  0.9455 -0.7688
 3149TIP3   OH230937   0.967   4.752  16.592  0.1444  0.5155 -0.3484
 3149TIP3    H130938   0.970   4.743  16.688 -0.2695 -0.7327 -0.4337
 3149TIP3    H230939   1.034   4.817  16.572  0.2233  0.8075  0.7952
 3150TIP3   OH230940   1.734   2.043   0.739 -0.0297  0.3485  0.2997
 3150TIP3    H130941   1.827   2.056   0.719  0.0155 -0.1369  0.1578
 3150TIP3    H230942   1.705   2.126   0.775  0.4407  0.5346  0.2626
 3151TIP3   OH230943   5.843   0.020   2.136  0.3519 -0.0570 -0.3989
 3151TIP3    H130944   5.837  -0.071   2.107 -1.5309  0.6259 -2.3931
 3151TIP3    H230945   5.890   0.065   2.066  0.5730  0.6482  0.1918
 3152TIP3   OH230946   0.834   5.949   0.396 -0.0350  0.0325 -0.0575
 3152TIP3    H130947   0.873   5.952   0.309  0.7823 -0.4134  0.2772
 3152TIP3    H230948   0.741   5.961   0.381 -0.1342 -1.6887 -1.1805
 3153TIP3   OH230949   2.623   4.039  10.538  0.7142  0.3399 -0.1430
 3153TIP3    H130950   2.697   4.086  10.500  2.4309  0.1660  2.7046
 3153TIP3    H230951   2.658   4.002  10.619 -1.9036 -1.7305  0.1627
 3154TIP3   OH230952   2.648   2.534  14.701  0.1707 -0.5285  1.0896
 3154TIP3    H130953   2.610   2.598  14.641  1.4356 -0.6505  0.0983
 3154TIP3    H230954   2.627   2.567  14.789  0.8460  1.3064  0.6104
 3155TIP3   OH230955   3.456   3.261  15.853  0.2705 -0.1834 -0.4252
 3155TIP3    H130956   3.364   3.239  15.837  0.2863 -1.4848  0.9447
 3155TIP3    H230957   3.480   3.206  15.928  1.2283  2.5265  1.3808
 3156TIP3   OH230958   6.250   5.299   1.584 -0.6839 -0.0458 -0.2603
 3156TIP3    H130959   6.336   5.329   1.553 -0.5185  0.5726  0.7326
 3156TIP3    H230960   6.271   5.233   1.651 -0.8696  1.7619  1.6883
 3157TIP3   OH230961   6.571   3.625   3.367 -0.2613  0.2541 -0.0192
 3157TIP3    H130962   6.592   3.604   3.276 -0.9490  1.5574 -0.5059
 3157TIP3    H230963   6.532   3.713   3.363 -1.5803 -0.2289  1.3603
 3158TIP3   OH230964   6.278   4.800   0.172  0.3984 -0.3763 -0.3225
 3158TIP3    H130965   6.214   4.730   0.164 -1.1380  1.0386 -0.9916
 3158TIP3    H230966   6.252   4.865   0.107  0.2505  1.9376  1.8480
 3159TIP3   OH230967   3.391   4.944   5.753 -0.1030  0.0113  0.3253
 3159TIP3    H130968   3.384   4.880   5.824 -0.3691 -1.3112 -0.8529
 3159TIP3    H230969   3.485   4.949   5.734 -0.0509  0.2260  0.6259
 3160TIP3   OH230970   1.127   5.595  16.324 -0.2995 -0.1004  0.2764
 3160TIP3    H130971   1.083   5.637  16.397 -0.7051  0.3586 -0.2217
 3160TIP3    H230972   1.090   5.637  16.246 -0.3485 -1.0268 -0.2182
 3161TIP3   OH230973   3.855   6.251  16.940  0.2428 -0.5688  0.3739
 3161TIP3    H130974   3.899   6.191  16.881  0.9179  0.8445 -0.6002
 3161TIP3    H230975   3.801   6.305  16.883 -0.1591 -0.0744  1.2058
 3162TIP3   OH230976   0.513   2.237  15.439  0.8052 -0.1460 -0.1755
 3162TIP3    H130977   0.455   2.240  15.362  1.3404  0.8974 -0.5607
 3162TIP3    H230978   0.601   2.241  15.403  1.0449  1.6582  0.5266
 3163TIP3   OH230979   1.052   6.730   0.362 -0.1628  0.2354 -0.0516
 3163TIP3    H130980   1.060   6.810   0.413 -0.5394  0.0159  0.3615
 3163TIP3    H230981   1.142   6.704   0.344  0.1028 -0.9871  2.5874
 3164TIP3   OH230982   0.779   2.639   2.403  0.3258 -0.1988 -0.0609
 3164TIP3    H130983   0.726   2.707   2.361 -0.7146 -1.9692 -1.8300
 3164TIP3    H230984   0.764   2.651   2.497  0.3334  2.0822 -0.3099
 3165TIP3   OH230985   6.166   3.243  10.347  0.1802  0.1131 -0.1853
 3165TIP3    H130986   6.217   3.309  10.394 -2.4948  0.9695  1.8410
 3165TIP3    H230987   6.192   3.159  10.386  3.2180 -0.1356 -2.4131
 3166TIP3   OH230988   3.365   5.469  17.230 -0.1044 -0.2021 -0.0681
 3166TIP3    H130989   3.350   5.451  17.138 -0.3594 -1.5130  0.2171
 3166TIP3    H230990   3.455   5.502  17.234 -1.1406  3.1845 -1.1846
 3167TIP3   OH230991   0.658   1.672  10.591  0.1548 -0.1293  0.0983
 3167TIP3    H130992   0.571   1.711  10.590 -0.2233 -0.8757 -2.1097
 3167TIP3    H230993   0.699   1.707  10.670 -1.6234  1.3700  0.4357
 3168TIP3   OH230994   6.486   6.373  15.172 -0.1816 -0.0483  0.2322
 3168TIP3    H130995   6.493   6.312  15.246  3.8959  0.8190  0.7933
 3168TIP3    H230996   6.461   6.318  15.098  0.9482 -2.0042  1.2100
 3169TIP3   OH230997   4.977   3.930   1.438 -0.0969  0.2242  0.2232
 3169TIP3    H130998   4.909   3.933   1.371 -0.7107  1.6637  0.8796
 3169TIP3    H230999   4.935   3.888   1.513 -0.3450  1.2524  0.6811
 3170TIP3   OH231000   5.472   1.598  11.350  0.3252  0.6462  0.0343
 3170TIP3    H131001   5.460   1.555  11.435  0.6084 -1.9008 -1.1163
 3170TIP3    H231002   5.388   1.584  11.305  1.3052 -1.1687 -1.3473
 3171TIP3   OH231003   3.687   4.604  15.509 -0.7720 -0.7717  0.2541
 3171TIP3    H131004   3.644   4.654  15.579 -1.1389 -0.3884 -0.2372
 3171TIP3    H231005   3.768   4.572  15.549 -0.2859  0.6226  0.4451
 3172TIP3   OH231006   0.683   6.738  11.301 -0.3316 -0.4125  0.3972
 3172TIP3    H131007   0.633   6.656  11.299  0.1787 -0.7406 -1.7574
 3172TIP3    H231008   0.710   6.751  11.210  1.2383  1.1561  1.0434
 3173TIP3   OH231009   3.952   2.807  13.878 -0.0571  0.2560 -0.3135
 3173TIP3    H131010   4.039   2.812  13.838 -0.1857 -1.5129 -0.8763
 3173TIP3    H231011   3.904   2.746  13.823 -0.3325 -2.1322  2.3604
 3174TIP3   OH231012   1.490   4.728   1.752  0.0645 -0.2304  0.1038
 3174TIP3    H131013   1.495   4.780   1.832  3.2884 -0.6480  0.3065
 3174TIP3    H231014   1.483   4.638   1.781 -1.2131 -0.2495 -0.1863
 3175TIP3   OH231015   1.099   3.008  10.639  0.3968 -0.0431 -0.3542
 3175TIP3    H131016   1.105   2.972  10.551 -0.4850  1.2120 -0.9525
 3175TIP3    H231017   1.017   3.057  10.640 -0.0325 -0.7195  1.4421
 3176TIP3   OH231018   1.034   3.203   6.190  0.0562 -0.5225 -0.1756
 3176TIP3    H131019   0.976   3.128   6.178  0.7271 -1.3778  1.5576
 3176TIP3    H231020   1.120   3.164   6.210  0.2762  0.6661  1.3761
 3177TIP3   OH231021   1.091   0.776  11.793  0.2015 -0.0009  0.4671
 3177TIP3    H131022   1.005   0.745  11.764 -0.5705  0.9834  1.5765
 3177TIP3    H231023   1.124   0.827  11.719 -1.4620  1.9569  0.9639
 3178TIP3   OH231024   1.444   2.911  15.048  0.0113 -0.5898 -0.1378
 3178TIP3    H131025   1.366   2.872  15.087 -0.2356 -0.4682 -0.5036
 3178TIP3    H231026   1.471   2.978  15.111 -0.5261 -0.2269 -0.2872
 3179TIP3   OH231027   4.547   3.659  12.220 -0.4627 -0.2969  0.0565
 3179TIP3    H131028   4.457   3.633  12.239 -0.3511 -0.4757  0.3450
 3179TIP3    H231029   4.540   3.751  12.194 -0.5077  0.3379  2.0773
 3180TIP3   OH231030   2.875   1.959  16.407 -0.1198 -0.5394 -0.8370
 3180TIP3    H131031   2.824   1.973  16.487  0.2698 -2.2486 -0.2415
 3180TIP3    H231032   2.883   2.046  16.368 -0.1171  0.3875  1.0993
 3181TIP3   OH231033   2.715   2.055   4.808 -0.0352 -0.8793 -0.1744
 3181TIP3    H131034   2.668   1.973   4.822 -0.9929 -0.0130  2.1290
 3181TIP3    H231035   2.658   2.122   4.844  1.8297  0.5234  0.3434
 3182TIP3   OH231036   5.167   3.399  15.025 -0.3805 -0.9130  0.6249
 3182TIP3    H131037   5.161   3.424  15.117  0.4848 -1.6095  0.8884
 3182TIP3    H231038   5.076   3.392  14.996 -0.7245  2.4959  0.4975
 3183TIP3   OH231039   0.084   6.466  15.348 -0.1816 -0.2591 -0.2754
 3183TIP3    H131040   0.096   6.523  15.424 -2.7290  0.5654 -0.3838
 3183TIP3    H231041   0.039   6.389  15.382  0.3091 -0.7306 -0.6704
 3184TIP3   OH231042   5.945   4.206  11.295  0.0233 -0.1182 -0.1072
 3184TIP3    H131043   6.028   4.219  11.340 -0.0722 -1.5750  0.5326
 3184TIP3    H231044   5.919   4.116  11.317 -0.4937 -0.5572 -2.3264
 3185TIP3   OH231045   3.503   0.903   3.452  0.1768 -0.9265 -0.4180
 3185TIP3    H131046   3.416   0.906   3.414 -0.9145 -0.6498  1.9591
 3185TIP3    H231047   3.523   0.809   3.461 -0.9206 -1.0492  1.1545
 3186TIP3   OH231048   5.301   1.472   6.144 -0.0860  0.2275  0.2015
 3186TIP3    H131049   5.381   1.520   6.162  0.5774 -0.9202  0.4176
 3186TIP3    H231050   5.232   1.524   6.185  0.6099  0.9479  0.4830
 3187TIP3   OH231051   4.032   4.360   0.345  0.0690  0.2633 -0.2015
 3187TIP3    H131052   4.023   4.380   0.438 -0.0113  0.6364 -0.2884
 3187TIP3    H231053   3.994   4.436   0.300 -1.5282 -0.6772 -0.5267
 3188TIP3   OH231054   4.140   0.893   2.926 -0.0544 -0.2393  0.8841
 3188TIP3    H131055   4.162   0.953   2.854 -0.9817 -1.9272 -0.9089
 3188TIP3    H231056   4.158   0.806   2.890 -1.6760 -1.2060  2.2844
 3189TIP3   OH231057   1.730   5.781  11.975 -0.5673 -0.3074  0.7179
 3189TIP3    H131058   1.781   5.832  12.038  1.1876  0.5323 -1.2981
 3189TIP3    H231059   1.711   5.699  12.022 -0.2843  0.7063  2.7124
 3190TIP3   OH231060   2.793   1.500   4.236 -0.1492  0.2283 -0.4502
 3190TIP3    H131061   2.828   1.539   4.315  0.4194 -1.9647  0.4562
 3190TIP3    H231062   2.866   1.504   4.173 -0.7216  2.3079 -1.0361
 3191TIP3   OH231063   0.005   5.316   1.310  0.1659 -0.3172 -0.5115
 3191TIP3    H131064   0.087   5.267   1.317 -0.3193 -1.3226 -1.5225
 3191TIP3    H231065  -0.002   5.339   1.217 -0.9141 -0.6656 -0.5347
 3192TIP3   OH231066   3.954   2.739   2.425 -0.3168  0.2936 -0.2054
 3192TIP3    H131067   3.944   2.790   2.506  0.9768  1.3517 -0.6789
 3192TIP3    H231068   3.883   2.674   2.429 -1.3984  1.4794  0.8981
 3193TIP3   OH231069   5.839   2.054  13.044 -0.5635  0.0654 -0.0252
 3193TIP3    H131070   5.898   2.036  12.971 -0.1692  0.1920  0.2580
 3193TIP3    H231071   5.828   2.149  13.043  0.1197  0.1539  0.5980
 3194TIP3   OH231072   1.694   6.379  11.796 -0.5537 -0.5632  0.3789
 3194TIP3    H131073   1.674   6.366  11.703 -0.5845 -1.6218  0.5279
 3194TIP3    H231074   1.731   6.468  11.800  2.1849 -1.5276 -1.0908
 3195TIP3   OH231075   0.719   5.019  15.693 -0.4074  0.5581 -0.0773
 3195TIP3    H131076   0.686   5.084  15.631  1.2653  1.0788 -0.4939
 3195TIP3    H231077   0.671   5.036  15.774 -2.5965 -0.1052 -1.1792
 3196TIP3   OH231078   2.189   4.247  11.443 -0.7576 -0.4875  0.3834
 3196TIP3    H131079   2.280   4.245  11.412 -0.2678  1.0827  1.6049
 3196TIP3    H231080   2.196   4.248  11.538 -2.0768 -0.3908  0.4971
 3197TIP3   OH231081   6.550   3.095  11.724 -0.1945  0.7243  0.6638
 3197TIP3    H131082   6.630   3.094  11.672 -0.0583 -0.2176  0.8770
 3197TIP3    H231083   6.569   3.157  11.795  0.6414 -0.0390  1.1397
 3198TIP3   OH231084   2.073   4.320  13.935 -0.4096 -0.1630  0.5258
 3198TIP3    H131085   1.985   4.286  13.920 -0.5589  0.7833 -1.0656
 3198TIP3    H231086   2.084   4.319  14.030 -2.0923 -0.4117  0.7474
 3199TIP3   OH231087   1.294   5.030   0.865 -0.1252  0.3767 -0.2963
 3199TIP3    H131088   1.330   4.942   0.877 -1.7634 -0.4656 -1.2873
 3199TIP3    H231089   1.236   5.022   0.790 -1.9732  1.7716  0.8974
 3200TIP3   OH231090   1.414   0.692   4.913  0.1621  0.1675  0.7228
 3200TIP3    H131091   1.496   0.645   4.932 -0.2254 -1.7332 -1.7830
 3200TIP3    H231092   1.393   0.667   4.823 -2.3407  1.9162  0.7395
 3201TIP3   OH231093   0.595   6.773  13.697 -0.1841 -0.4964  0.3219
 3201TIP3    H131094   0.661   6.818  13.645 -0.0130  0.0479  0.9965
 3201TIP3    H231095   0.609   6.680  13.677  1.2139 -0.4437  0.9270
 3202TIP3   OH231096   5.087   3.736   0.874 -0.0072 -0.2518 -0.0788
 3202TIP3    H131097   5.150   3.795   0.833  0.8532 -1.0529  0.0397
 3202TIP3    H231098   5.075   3.770   0.962 -1.1968  0.9749 -0.6793
 3203TIP3   OH231099   0.498   5.123  10.883 -0.3191  0.3862  0.4363
 3203TIP3    H131100   0.458   5.113  10.797  0.9817  4.7389 -0.9087
 3203TIP3    H231101   0.463   5.205  10.917  3.1684  1.6122  1.5425
 3204TIP3   OH231102   5.593   3.918   0.665  0.1934 -0.5302  0.2924
 3204TIP3    H131103   5.652   3.884   0.732 -1.0952 -1.0713  1.1790
 3204TIP3    H231104   5.550   3.993   0.707 -0.9277 -1.1234  0.2583
 3205TIP3   OH231105   6.658   1.897   5.922 -0.3539  0.3126 -0.3110
 3205TIP3    H131106   6.697   1.878   5.837 -0.5346 -0.1712 -0.2876
 3205TIP3    H231107   6.712   1.967   5.958 -1.1221  1.5148 -1.4213
 3206TIP3   OH231108   1.541   2.345   5.539  0.1092 -0.5917  0.3654
 3206TIP3    H131109   1.542   2.434   5.575  0.8352 -0.0780 -0.8287
 3206TIP3    H231110   1.630   2.312   5.555  0.8384  0.0900 -1.8736
 3207TIP3   OH231111   0.842   0.366  13.013  0.1771 -0.5870  0.2952
 3207TIP3    H131112   0.807   0.346  13.100 -0.8487  1.0152  0.2872
 3207TIP3    H231113   0.767   0.352  12.954 -0.4484  2.4609  0.2194
 3208TIP3   OH231114   4.808   5.232  10.641 -0.0556  0.0316  0.5465
 3208TIP3    H131115   4.815   5.170  10.568  1.9116  0.5760  0.2352
 3208TIP3    H231116   4.790   5.316  10.598 -0.9534  0.0164  0.8590
 3209TIP3   OH231117   6.585   3.384   4.901 -0.4968 -0.4551 -0.0729
 3209TIP3    H131118   6.514   3.337   4.857 -1.3621  1.8211 -1.3172
 3209TIP3    H231119   6.592   3.467   4.853  3.1144 -0.6078 -0.0435
 3210TIP3   OH231120   2.431   5.249  12.856 -0.4499  0.0229 -0.8411
 3210TIP3    H131121   2.470   5.326  12.813  0.7544  0.3890  0.8221
 3210TIP3    H231122   2.412   5.278  12.945  1.1548 -1.9342  0.2048
 3211TIP3   OH231123   3.429   2.177  12.173  0.1976  0.2011 -0.1700
 3211TIP3    H131124   3.491   2.109  12.200 -0.9994 -0.6311  0.6011
 3211TIP3    H231125   3.484   2.249  12.140  1.5829 -0.2289  1.1139
 3212TIP3   OH231126   3.428   1.676   2.684  0.2023 -0.7484  0.1417
 3212TIP3    H131127   3.454   1.754   2.637  0.3001  0.2711  1.8014
 3212TIP3    H231128   3.489   1.671   2.758 -0.8539 -1.4118  1.0095
 3213TIP3   OH231129   3.454   6.823  15.361  0.1390 -0.0109 -0.4790
 3213TIP3    H131130   3.534   6.858  15.401 -0.0180 -0.6125  0.3863
 3213TIP3    H231131   3.387   6.889  15.377  0.7838  1.2928 -2.6608
 3214TIP3   OH231132   6.255   0.571  15.555 -0.3770 -0.2227  0.3780
 3214TIP3    H131133   6.293   0.643  15.504 -0.1713 -0.3724  0.3152
 3214TIP3    H231134   6.186   0.536  15.499 -0.6470  0.0883  0.5158
 3215TIP3   OH231135   6.681   1.670   3.258  0.3987 -0.2240 -0.2140
 3215TIP3    H131136   6.678   1.680   3.353  1.3899 -1.1468 -0.0727
 3215TIP3    H231137   6.648   1.754   3.225  0.5243  0.3045  0.9383
 3216TIP3   OH231138   1.623   3.191   0.133  0.3785  0.1420 -0.1200
 3216TIP3    H131139   1.615   3.154   0.045  2.9994  0.6782 -0.6830
 3216TIP3    H231140   1.625   3.286   0.118  0.0203  0.2695  0.6125
 3217TIP3   OH231141   2.074   2.254   0.967  0.3333  0.1556  0.2024
 3217TIP3    H131142   2.102   2.162   0.970 -2.3847 -0.7805 -0.1870
 3217TIP3    H231143   2.070   2.280   1.059  1.3461 -0.0341  0.3084
 3218TIP3   OH231144   2.135   2.791   0.709  0.5690  1.0741 -0.1148
 3218TIP3    H131145   2.123   2.846   0.631 -0.4721 -0.0284 -0.7708
 3218TIP3    H231146   2.078   2.715   0.693 -0.0504  1.0534  1.9344
 3219TIP3   OH231147   0.334   6.565   3.860 -0.0158  0.2580 -0.3349
 3219TIP3    H131148   0.355   6.521   3.777  1.5198  1.1082 -0.4254
 3219TIP3    H231149   0.341   6.495   3.926 -0.8917 -0.3435 -0.8547
 3220TIP3   OH231150   4.587   0.483  10.572  0.4933  0.4184  0.4687
 3220TIP3    H131151   4.533   0.549  10.529  0.1527  0.0304  0.2939
 3220TIP3    H231152   4.528   0.441  10.635  0.0753 -1.1814 -0.9219
 3221TIP3   OH231153   5.116   3.548  15.261 -0.5936 -0.0017 -0.2622
 3221TIP3    H131154   5.066   3.514  15.334 -0.6305  0.6844  0.0446
 3221TIP3    H231155   5.053   3.601  15.212 -0.3254  0.3621 -0.2193
 3222TIP3   OH231156   2.506   1.380   2.421  0.4473 -0.1625  0.1151
 3222TIP3    H131157   2.502   1.284   2.431  2.1159 -0.4754 -1.6551
 3222TIP3    H231158   2.431   1.401   2.366  0.8949 -0.6566 -0.6944
 3223TIP3   OH231159   5.906   5.030   0.709  0.0866 -0.5371  0.3942
 3223TIP3    H131160   5.959   5.033   0.789  0.9596  0.2191 -0.2002
 3223TIP3    H231161   5.925   5.112   0.664 -2.8046  0.5154  0.9024
 3224TIP3   OH231162   3.344   6.602  12.806 -0.6028  0.3545  0.2664
 3224TIP3    H131163   3.268   6.612  12.864 -0.7994 -0.0781  0.0900
 3224TIP3    H231164   3.306   6.583  12.720 -0.3125  0.9565  0.0014
 3225TIP3   OH231165   6.258   6.014   0.252  0.1816  0.8449 -0.5361
 3225TIP3    H131166   6.201   6.049   0.320  1.0112 -1.0655  1.2458
 3225TIP3    H231167   6.322   6.083   0.236  1.7689  0.3198  2.8387
 3226TIP3   OH231168   5.512   6.531   2.672  0.2893  1.2570  0.2833
 3226TIP3    H131169   5.462   6.472   2.616  1.7494  0.0206  0.2303
 3226TIP3    H231170   5.447   6.593   2.705 -0.7746  1.5728 -2.1507
 3227TIP3   OH231171   6.310   2.882   4.545  0.2579 -0.5787  0.2505
 3227TIP3    H131172   6.286   2.958   4.492  0.5697 -1.0064 -0.5242
 3227TIP3    H231173   6.234   2.825   4.541 -1.1144  0.8306  3.1053
 3228TIP3   OH231174   1.907   0.992  16.386  0.6099 -0.0702  0.3382
 3228TIP3    H131175   1.886   0.909  16.343  0.4589 -0.4814  1.1861
 3228TIP3    H231176   2.002   1.001  16.374  0.5131  0.0270 -0.4221
 3229TIP3   OH231177   2.527   2.130  13.285 -0.2227 -0.3093 -0.0140
 3229TIP3    H131178   2.560   2.200  13.229 -0.8424  0.6416  0.7608
 3229TIP3    H231179   2.432   2.133  13.274 -0.3659 -0.0475  1.1047
 3230TIP3   OH231180   5.386   1.523  12.654 -0.0975  0.2538  0.2210
 3230TIP3    H131181   5.456   1.466  12.622 -0.3307  0.0328  0.0976
 3230TIP3    H231182   5.356   1.481  12.735  0.5923  0.8914  0.8189
 3231TIP3   OH231183   6.751   1.046   0.785 -0.0777 -0.0201 -0.4624
 3231TIP3    H131184   6.742   1.141   0.794 -0.8452 -0.0878 -0.4051
 3231TIP3    H231185   6.680   1.010   0.840 -0.2677 -0.6061 -1.0724
 3232TIP3   OH231186   6.174   1.981   1.676  0.0286  0.3733 -0.1061
 3232TIP3    H131187   6.188   2.049   1.611 -2.8051  0.4637 -0.7408
 3232TIP3    H231188   6.207   1.901   1.635  1.1277  0.9367 -0.3404
 3233TIP3   OH231189   0.013   1.187  10.436 -0.0157 -1.0024  0.2232
 3233TIP3    H131190   0.029   1.254  10.503 -0.0390 -0.0229 -0.7063
 3233TIP3    H231191  -0.078   1.162  10.448 -0.0797 -0.6816  0.4223
 3234TIP3   OH231192   5.219   4.191  13.767  0.0580  0.0649 -0.1292
 3234TIP3    H131193   5.182   4.267  13.723  0.8870 -0.1887 -1.3199
 3234TIP3    H231194   5.271   4.147  13.700  0.9593 -0.6285  0.9729
 3235TIP3   OH231195   4.458   3.478  14.798 -0.1653 -0.2116 -0.0229
 3235TIP3    H131196   4.545   3.511  14.820 -1.0348  1.9673  0.3526
 3235TIP3    H231197   4.399   3.524  14.857 -1.6140 -1.5282 -0.3782
 3236TIP3   OH231198   1.874   3.990   3.896 -0.1943 -0.6367 -0.3334
 3236TIP3    H131199   1.845   4.019   3.810  0.5796 -1.1977 -0.8027
 3236TIP3    H231200   1.963   3.957   3.881 -0.0464 -0.7347  0.6822
 3237TIP3   OH231201   4.467   1.968  16.498  0.4470 -0.2339  0.4025
 3237TIP3    H131202   4.431   1.944  16.583  0.7325  1.7259  1.1305
 3237TIP3    H231203   4.390   1.989  16.445  0.3031 -0.8442  0.3604
 3238TIP3   OH231204   5.729   0.394  15.010 -0.0363  0.1948 -0.1947
 3238TIP3    H131205   5.643   0.351  15.016 -0.1708  0.4548 -0.2337
 3238TIP3    H231206   5.774   0.368  15.090  0.6438 -1.6215 -1.1123
 3239TIP3   OH231207   6.042   4.697   2.013  0.1794 -0.5261 -0.1873
 3239TIP3    H131208   5.959   4.674   1.971  0.0695 -1.2678  0.4005
 3239TIP3    H231209   6.017   4.724   2.102  0.5527 -0.6279 -0.0489
 3240TIP3   OH231210   0.438   5.412   1.810  0.2549  0.4188  0.4215
 3240TIP3    H131211   0.344   5.421   1.790 -0.0226 -0.4396  1.2737
 3240TIP3    H231212   0.475   5.372   1.731 -0.3012 -0.2580  0.4925
 3241TIP3   OH231213   6.169   1.869  14.776  0.3622 -0.2912  0.2758
 3241TIP3    H131214   6.261   1.844  14.766 -0.0835 -1.5189 -1.2125
 3241TIP3    H231215   6.129   1.794  14.821  0.0258  0.0836  0.6034
 3242TIP3   OH231216   5.895   6.163   0.223 -0.3423 -0.1404  0.6538
 3242TIP3    H131217   5.964   6.141   0.286 -0.0511  1.1648  0.8114
 3242TIP3    H231218   5.942   6.199   0.147 -0.8101  0.2895  0.5606
 3243TIP3   OH231219   0.633   2.479   1.508  0.1610  0.0182  0.1478
 3243TIP3    H131220   0.673   2.454   1.592  3.0824  0.9571 -0.8400
 3243TIP3    H231221   0.707   2.487   1.448 -1.7736  0.1086 -2.3671
 3244TIP3   OH231222   0.266   3.361  13.956  0.6005  0.0854  0.3150
 3244TIP3    H131223   0.284   3.437  13.900  0.6824  1.2580  1.8886
 3244TIP3    H231224   0.171   3.354  13.958  0.6043 -0.1945 -0.2554
 3245TIP3   OH231225   3.294   6.189   5.240 -0.1127  0.0737 -0.1005
 3245TIP3    H131226   3.371   6.240   5.266 -1.0812  0.9945  1.0497
 3245TIP3    H231227   3.308   6.103   5.278 -0.5092  0.7824  1.7167
 3246TIP3   OH231228   4.358   5.973  15.170 -0.2992 -0.0103 -0.1645
 3246TIP3    H131229   4.340   5.888  15.129 -0.4016  0.3431 -0.8583
 3246TIP3    H231230   4.311   6.036  15.116  0.4863  0.5858 -0.1622
 3247TIP3   OH231231   5.284   1.502  13.993 -0.7955  0.0836 -0.3402
 3247TIP3    H131232   5.372   1.474  14.019 -0.0496  0.6880 -2.0734
 3247TIP3    H231233   5.274   1.471  13.903 -2.7953 -0.8651  0.1341
 3248TIP3   OH231234   5.712   2.935   1.973 -0.1179  0.8886  0.1924
 3248TIP3    H131235   5.640   2.874   1.957  0.9060 -0.6393  1.0827
 3248TIP3    H231236   5.765   2.931   1.893  0.7819 -0.6739  0.8057
 3249TIP3   OH231237   4.689   4.126  14.697 -0.0257 -0.2323  0.0752
 3249TIP3    H131238   4.707   4.101  14.788  0.0385 -1.7493 -0.3277
 3249TIP3    H231239   4.594   4.139  14.695 -0.1596 -1.1136  0.1681
 3250TIP3   OH231240   0.940   1.636   3.034  0.2697  0.0601 -0.0037
 3250TIP3    H131241   0.890   1.715   3.014  0.1678  1.2432  3.9586
 3250TIP3    H231242   0.875   1.565   3.030 -0.9327  1.0082  1.3334
 3251TIP3   OH231243   4.802   0.830   6.094  0.3763 -0.4476 -0.5147
 3251TIP3    H131244   4.780   0.873   6.176  1.3559  1.7361 -1.2900
 3251TIP3    H231245   4.721   0.788   6.065 -0.1562 -0.6417  1.1917
 3252TIP3   OH231246   5.691   0.791  13.302 -0.2352 -0.6918 -0.4607
 3252TIP3    H131247   5.613   0.742  13.279 -0.7387 -0.8891  1.4724
 3252TIP3    H231248   5.749   0.727  13.343 -0.5789  0.0822  1.3769
 3253TIP3   OH231249   6.004   5.981  16.569 -0.1798  0.9642  0.3655
 3253TIP3    H131250   6.023   5.896  16.607 -0.5696  0.4130 -0.6254
 3253TIP3    H231251   6.088   6.013  16.537 -0.2378  0.3234 -0.4655
 3254TIP3   OH231252   1.685   1.171   4.981  0.6299  0.5791 -0.6129
 3254TIP3    H131253   1.639   1.091   4.956  0.0706  0.1784  1.4941
 3254TIP3    H231254   1.616   1.230   5.010  1.0001  2.0301 -2.4864
 3255TIP3   OH231255   2.118   4.112   1.094 -0.2732  0.2795 -1.0205
 3255TIP3    H131256   2.069   4.181   1.049  0.0298  0.2314 -1.4254
 3255TIP3    H231257   2.073   4.103   1.179 -0.4933  0.7692 -1.0773
 3256TIP3   OH231258   4.363   3.003  11.017 -0.4988 -0.1153 -0.6645
 3256TIP3    H131259   4.333   2.944  10.948 -1.4961  0.6693 -0.9189
 3256TIP3    H231260   4.431   2.954  11.063 -0.5539 -1.0422 -1.5485
 3257TIP3   OH231261   6.636   3.796  11.847  0.3267 -0.4961 -0.2717
 3257TIP3    H131262   6.682   3.812  11.764 -0.6051  2.4758 -0.3407
 3257TIP3    H231263   6.681   3.853  11.910  0.2832 -1.8368  1.0233
 3258TIP3   OH231264   0.799   1.364  11.420 -0.0241  0.0645  0.0420
 3258TIP3    H131265   0.734   1.317  11.367 -0.4829  0.3254  0.3655
 3258TIP3    H231266   0.873   1.304  11.426 -0.3218 -0.3269 -0.1516
 3259TIP3   OH231267   2.990   2.268  12.099 -0.7161 -0.4917 -0.6234
 3259TIP3    H131268   2.938   2.348  12.092  0.5769  0.3476 -1.0332
 3259TIP3    H231269   3.071   2.295  12.142 -1.5926 -2.2912  2.4969
 3260TIP3   OH231270   3.154   0.438   4.784 -0.3287 -0.1874  0.0410
 3260TIP3    H131271   3.177   0.349   4.758  2.3149  0.2279  0.7374
 3260TIP3    H231272   3.152   0.435   4.880  0.4273  0.6300  0.0890
 3261TIP3   OH231273   1.836   5.277  13.040 -0.3049 -0.1459 -0.8209
 3261TIP3    H131274   1.864   5.322  12.961 -0.7679 -0.7196 -1.3198
 3261TIP3    H231275   1.817   5.188  13.012  1.1007 -0.8210  0.2504
 3262TIP3   OH231276   4.599   5.160   3.925  0.4290  0.4399  0.9228
 3262TIP3    H131277   4.578   5.088   3.984 -1.3182  1.5546  1.7570
 3262TIP3    H231278   4.589   5.239   3.979 -4.9620  1.8509 -1.4924
 3263TIP3   OH231279   2.417   6.577  13.390 -0.0049 -0.0199 -0.0643
 3263TIP3    H131280   2.413   6.569  13.485 -0.8587 -1.4445 -0.1872
 3263TIP3    H231281   2.336   6.621  13.366 -0.5664 -1.1000 -0.2269
 3264TIP3   OH231282   6.200   4.415   2.216  0.0795  0.1280 -0.0931
 3264TIP3    H131283   6.148   4.378   2.287  0.9642  0.1225  0.5682
 3264TIP3    H231284   6.255   4.343   2.186  0.9160  0.5630  0.3660
 3265TIP3   OH231285   0.692   1.464   0.424 -0.1041  0.0570 -0.1515
 3265TIP3    H131286   0.774   1.487   0.468  0.6938 -0.8264 -1.1475
 3265TIP3    H231287   0.627   1.522   0.464  0.5658 -0.6776  2.1863
 3266TIP3   OH231288   4.571   1.078  13.894  0.0242  0.7384  0.0335
 3266TIP3    H131289   4.607   1.116  13.814 -0.0640  0.4500 -0.1424
 3266TIP3    H231290   4.594   1.141  13.963  0.2585  0.8957 -0.1883
 3267TIP3   OH231291   5.339   4.647  16.569 -0.2940  0.1948 -0.2252
 3267TIP3    H131292   5.265   4.701  16.598  0.4101 -0.2864  2.7446
 3267TIP3    H231293   5.337   4.571  16.627  1.6902 -0.5365 -1.0435
 3268TIP3   OH231294   3.219   4.661   0.989  0.0666  0.0062  0.1727
 3268TIP3    H131295   3.303   4.658   0.942 -0.4325  1.1858 -0.8624
 3268TIP3    H231296   3.160   4.706   0.929 -1.3225 -0.7941  0.8948
 3269TIP3   OH231297   0.561   3.698   4.327 -0.2788  0.2886  0.5448
 3269TIP3    H131298   0.586   3.678   4.417 -0.2026 -0.2932  0.4055
 3269TIP3    H231299   0.636   3.747   4.292  0.6344 -1.2712  0.1943
 3270TIP3   OH231300   1.956   5.266  16.818 -0.1059 -0.6763 -0.6412
 3270TIP3    H131301   1.889   5.332  16.801 -0.8351 -0.8888  1.1451
 3270TIP3    H231302   1.995   5.248  16.732 -0.7279  1.1591 -1.3569
 3271TIP3   OH231303   0.733   6.754  15.673 -0.4633 -0.1842 -0.1247
 3271TIP3    H131304   0.672   6.684  15.649 -0.3201  0.0534 -1.2529
 3271TIP3    H231305   0.681   6.834  15.667 -0.9331 -0.2380  2.2535
 3272TIP3   OH231306   3.504   0.959   1.757 -0.5565  0.7532 -0.4056
 3272TIP3    H131307   3.501   0.930   1.848  1.8202 -0.6036 -0.6725
 3272TIP3    H231308   3.463   0.888   1.708  1.5318 -0.3317 -0.6782
 3273TIP3   OH231309   3.196   3.991  14.345 -0.5096  0.3179 -0.4585
 3273TIP3    H131310   3.123   4.049  14.322 -1.1047 -0.4163 -0.4632
 3273TIP3    H231311   3.170   3.906  14.310  1.5009  0.5514 -2.8098
 3274TIP3   OH231312   5.079   3.779   1.164 -0.1818  0.1086  0.2645
 3274TIP3    H131313   5.098   3.709   1.227 -1.9728 -0.2994  0.3969
 3274TIP3    H231314   5.141   3.848   1.186 -0.6007 -0.1187  2.3219
 3275TIP3   OH231315   5.251   3.928  12.638 -0.0567  0.3530  0.1707
 3275TIP3    H131316   5.222   3.837  12.630 -0.2797  0.2708  1.6731
 3275TIP3    H231317   5.309   3.941  12.563 -0.4958 -0.8413 -0.3998
 3276TIP3   OH231318   3.843   5.311   4.363 -0.6603  0.4574  0.0696
 3276TIP3    H131319   3.751   5.282   4.362 -0.4887 -0.2178  1.7114
 3276TIP3    H231320   3.879   5.276   4.281 -1.5224 -0.4706  0.0641
 3277TIP3   OH231321   1.369   6.032   1.143  0.0437  0.4834  0.2948
 3277TIP3    H131322   1.371   5.959   1.205 -1.7138  1.7172  1.9235
 3277TIP3    H231323   1.448   6.083   1.165  0.7333 -0.3636 -0.1679
 3278TIP3   OH231324   3.757   6.337  14.382 -0.2506 -0.5281 -0.0570
 3278TIP3    H131325   3.744   6.421  14.337 -0.8200 -0.9766 -0.7410
 3278TIP3    H231326   3.788   6.278  14.314  2.1753 -0.3772  0.8234
 3279TIP3   OH231327   1.097   2.058  14.745 -0.3760  0.1841 -0.1718
 3279TIP3    H131328   1.061   2.125  14.803 -1.6095 -1.5821  1.2358
 3279TIP3    H231329   1.128   2.106  14.669 -2.3864  2.2110  0.1824
 3280TIP3   OH231330   6.319   3.601  16.540 -0.0683 -0.5027  0.3487
 3280TIP3    H131331   6.392   3.662  16.534  1.9074 -2.3805  2.9179
 3280TIP3    H231332   6.270   3.613  16.458  0.7208  3.6860  0.2981
 3281TIP3   OH231333   2.449   3.929   1.813  0.9186 -0.5227  0.4617
 3281TIP3    H131334   2.471   3.845   1.854  0.0142 -1.0537 -0.1127
 3281TIP3    H231335   2.434   3.907   1.721 -0.3546  0.0758  0.5082
 3282TIP3   OH231336   4.550   0.850  16.593 -0.5665  0.2222  0.2319
 3282TIP3    H131337   4.543   0.762  16.631 -1.2247 -0.2935 -1.0251
 3282TIP3    H231338   4.472   0.857  16.538 -1.4371  2.2506  1.5954
 3283TIP3   OH231339   2.289   5.775   5.073  0.0795 -0.2229 -0.0553
 3283TIP3    H131340   2.247   5.839   5.016 -0.3560  0.7091  1.2530
 3283TIP3    H231341   2.332   5.827   5.141  0.4923 -1.2865  0.5338
 3284TIP3   OH231342   5.104   1.825   3.044 -0.6258 -0.1208  0.6459
 3284TIP3    H131343   5.021   1.825   3.091 -1.1173 -0.4599 -0.1937
 3284TIP3    H231344   5.103   1.744   2.993 -1.6450  1.6684 -2.4902
 3285TIP3   OH231345   4.118   4.853   1.310  0.3083  0.2825  0.4271
 3285TIP3    H131346   4.150   4.940   1.332 -0.1762  0.9620 -1.3448
 3285TIP3    H231347   4.074   4.865   1.226 -2.0030 -1.1930  1.3565
 3286TIP3   OH231348   4.034   6.505  17.129 -0.6153 -0.1552 -0.6326
 3286TIP3    H131349   3.979   6.456  17.190 -0.4820  0.2908 -0.1428
 3286TIP3    H231350   4.123   6.473  17.146 -0.5358  0.2091 -0.3543
 3287TIP3   OH231351   3.472   4.633   0.847 -0.5636 -0.1036 -0.3515
 3287TIP3    H131352   3.562   4.642   0.877  0.0827  0.0085 -2.1998
 3287TIP3    H231353   3.477   4.645   0.752 -2.5881  0.3194 -0.4476
 3288TIP3   OH231354   5.927   1.453  11.305  0.5445 -0.0146 -0.0562
 3288TIP3    H131355   5.886   1.539  11.300  0.1298 -0.0438  1.9991
 3288TIP3    H231356   5.972   1.443  11.221 -1.7900  0.9418 -1.5032
 3289TIP3   OH231357   5.958   3.215  12.581  0.1181  1.0039 -0.5548
 3289TIP3    H131358   5.905   3.271  12.638 -2.1600 -0.3997 -1.1897
 3289TIP3    H231359   5.950   3.255  12.494 -0.3775  0.4878 -0.7515
 3290TIP3   OH231360   2.156   2.940  14.585  0.2368  0.0188  0.0015
 3290TIP3    H131361   2.187   2.981  14.504 -0.9316  1.5167  0.2591
 3290TIP3    H231362   2.064   2.921  14.568  0.5196 -1.7444  0.2276
 3291TIP3   OH231363   1.161   2.572   4.861 -0.3514 -0.4212 -0.5299
 3291TIP3    H131364   1.184   2.490   4.906  0.9359  0.1108 -0.1614
 3291TIP3    H231365   1.161   2.549   4.768  2.9490 -0.2868 -0.7033
 3292TIP3   OH231366   0.597   5.170  12.181  0.5181 -0.0143 -0.4367
 3292TIP3    H131367   0.650   5.116  12.123  0.7348  0.3902 -0.6193
 3292TIP3    H231368   0.537   5.108  12.223  0.3953 -0.3217 -1.0506
 3293TIP3   OH231369   2.101   6.580   0.068  0.0548  0.6195 -0.3387
 3293TIP3    H131370   2.098   6.530   0.150  1.7887  0.0682 -0.5615
 3293TIP3    H231371   2.091   6.672   0.096 -0.6888  0.3473  0.3345
 3294TIP3   OH231372   5.175   0.768  13.273  0.3138  0.6820 -0.3565
 3294TIP3    H131373   5.087   0.807  13.275  0.5297  1.1656 -0.3480
 3294TIP3    H231374   5.208   0.778  13.362 -0.1672 -0.7569  0.0042
 3295TIP3   OH231375   3.758   4.194   1.624  0.2141  0.3128  0.1884
 3295TIP3    H131376   3.758   4.273   1.569 -0.9687  0.5995  0.5845
 3295TIP3    H231377   3.837   4.203   1.678 -0.9340  2.2752  1.6729
 3296TIP3   OH231378   3.869   3.286   5.311 -0.5083 -0.7013 -0.5291
 3296TIP3    H131379   3.909   3.299   5.225  1.0150  0.8649  0.3357
 3296TIP3    H231380   3.859   3.191   5.319 -1.1624 -0.8476 -2.6095
 3297TIP3   OH231381   5.939   4.703   3.756  0.2480  0.7932  0.1321
 3297TIP3    H131382   5.974   4.743   3.677 -0.3096 -1.2119 -1.1974
 3297TIP3    H231383   5.886   4.630   3.725  1.2568 -1.0347  2.3917
 3298TIP3   OH231384   3.905   6.387  11.770 -0.1385 -0.6378 -0.2897
 3298TIP3    H131385   3.966   6.368  11.698 -0.8926 -1.0831 -0.8260
 3298TIP3    H231386   3.957   6.377  11.849  0.3573 -1.5233 -0.7202
 3299TIP3   OH231387   2.313   0.350  15.811 -0.5550 -0.3291  0.0958
 3299TIP3    H131388   2.238   0.328  15.866  0.0103 -0.0155  1.0033
 3299TIP3    H231389   2.279   0.416  15.750 -0.5477  1.3482  1.8089
 3300TIP3   OH231390   0.911   5.951   2.026 -0.8252 -0.2513  0.2244
 3300TIP3    H131391   0.944   5.950   1.936  1.9448  0.8740  1.1115
 3300TIP3    H231392   0.948   5.872   2.066 -0.8605 -0.0081  0.7427
 3301TIP3   OH231393   0.796   1.436   1.502 -0.4952 -0.4593  0.2165
 3301TIP3    H131394   0.791   1.341   1.512 -1.9182 -0.2899  1.3297
 3301TIP3    H231395   0.850   1.465   1.576 -0.9519 -0.3110  0.4947
 3302TIP3   OH231396   1.485   4.026   0.012 -1.1824  0.0067  0.3112
 3302TIP3    H131397   1.456   3.950  -0.038 -0.1936 -1.5736  2.0636
 3302TIP3    H231398   1.574   4.006   0.039 -0.9292  1.7489  0.9384
 3303TIP3   OH231399   5.989   1.928  10.588  0.2558 -0.5546 -0.1046
 3303TIP3    H131400   5.954   1.917  10.677  0.7501  0.5217  0.2274
 3303TIP3    H231401   6.015   1.839  10.562  1.1919 -0.7170  1.2801
 3304TIP3   OH231402   6.288   6.015   4.570 -0.2408 -0.2789  0.1384
 3304TIP3    H131403   6.199   6.052   4.577 -0.2319 -0.1125 -0.6312
 3304TIP3    H231404   6.274   5.920   4.574 -0.4832 -0.2642 -0.3225
 3305TIP3   OH231405   4.072   5.548  13.437 -0.0264 -0.2957  0.2035
 3305TIP3    H131406   3.983   5.558  13.402 -0.5942  2.6051  2.1396
 3305TIP3    H231407   4.129   5.588  13.371 -0.4459 -0.0624 -0.0177
 3306TIP3   OH231408   1.146   0.241   2.096 -0.4167 -0.5045  0.2696
 3306TIP3    H131409   1.134   0.333   2.117 -0.3778 -0.5635  0.5499
 3306TIP3    H231410   1.114   0.194   2.173 -0.0111 -0.7132  0.3093
 3307TIP3   OH231411   2.205   0.561   4.477  0.1014  0.3153 -0.4652
 3307TIP3    H131412   2.172   0.536   4.563  0.9474 -0.5559 -0.3752
 3307TIP3    H231413   2.144   0.629   4.447 -0.6445  0.0970  0.4860
 3308TIP3   OH231414   2.739   5.115  13.009  0.0394 -0.0786 -0.2622
 3308TIP3    H131415   2.676   5.178  13.045  0.1790  0.0868 -0.3077
 3308TIP3    H231416   2.771   5.156  12.929  0.0445 -0.2607 -0.3533
 3309TIP3   OH231417   6.564   2.242   4.324  0.3230  0.0596 -0.4627
 3309TIP3    H131418   6.525   2.235   4.236  2.4520  1.2100 -1.5705
 3309TIP3    H231419   6.587   2.152   4.347  2.3066  0.0134 -2.3740
 3310TIP3   OH231420   3.427   2.048   6.368  0.6315 -0.4462 -0.5459
 3310TIP3    H131421   3.334   2.039   6.352  0.1736  1.0521  0.9486
 3310TIP3    H231422   3.448   1.981   6.433 -0.2651  1.4141  1.8490
 3311TIP3   OH231423   2.411   4.769   4.988 -0.0726 -0.1677 -0.2568
 3311TIP3    H131424   2.445   4.857   5.005 -0.2432 -0.0514 -0.5267
 3311TIP3    H231425   2.487   4.712   5.001  0.2763  0.1106 -1.0210
 3312TIP3   OH231426   0.540   1.473   6.254  0.3824 -0.3173  0.2594
 3312TIP3    H131427   0.570   1.564   6.255 -1.2532  0.2548  0.0173
 3312TIP3    H231428   0.561   1.441   6.166  1.0170 -0.2026  0.3673
 3313TIP3   OH231429   4.501   2.232  16.808  0.6716 -0.1817  0.3600
 3313TIP3    H131430   4.495   2.310  16.864  0.8656  0.1897 -0.1273
 3313TIP3    H231431   4.581   2.245  16.757  0.8482 -0.8336  0.4639
 3314TIP3   OH231432   4.247   0.391  16.068 -0.0471 -0.3725  0.5041
 3314TIP3    H131433   4.241   0.431  15.981  0.0112 -1.1405  0.1384
 3314TIP3    H231434   4.193   0.448  16.124  0.5001  0.5375  0.1352
 3315TIP3   OH231435   0.606   6.817  12.390  0.0438 -0.1777  0.0545
 3315TIP3    H131436   0.672   6.790  12.454  0.8592  1.2034 -0.1525
 3315TIP3    H231437   0.529   6.838  12.442  0.2024 -0.5111  0.4296
 3316TIP3   OH231438   5.590   6.142  12.560  0.1829  0.0614  0.1094
 3316TIP3    H131439   5.527   6.102  12.501 -0.2003  0.9904 -0.1400
 3316TIP3    H231440   5.670   6.091  12.549 -0.0725 -0.1656 -0.7451
 3317TIP3   OH231441   0.798   4.460  17.173 -0.3967 -0.3932 -0.3344
 3317TIP3    H131442   0.741   4.388  17.198 -2.0939  0.3442 -1.8801
 3317TIP3    H231443   0.805   4.453  17.078 -1.8974  2.3249 -0.7479
 3318TIP3   OH231444   3.824   6.685   5.441 -0.2233 -0.5034 -0.3046
 3318TIP3    H131445   3.832   6.745   5.366 -0.2219 -0.9038 -0.6258
 3318TIP3    H231446   3.793   6.741   5.512  0.5988  0.0651 -0.3705
 3319TIP3   OH231447   5.240   1.943  15.002 -0.1230  0.0686  0.0628
 3319TIP3    H131448   5.323   1.984  14.979  0.4057 -0.2976  1.2447
 3319TIP3    H231449   5.200   2.004  15.065 -0.0963 -0.4176  0.5568
 3320TIP3   OH231450   2.863   1.068   6.107 -0.6057 -0.1780 -0.0685
 3320TIP3    H131451   2.832   0.994   6.158 -0.2856  0.2882  0.8287
 3320TIP3    H231452   2.910   1.123   6.170  1.8705 -0.7363 -1.3063
 3321TIP3   OH231453   1.963   2.165   2.085  0.0081 -0.1211  0.4293
 3321TIP3    H131454   1.899   2.200   2.146 -0.0330  0.2967  0.1512
 3321TIP3    H231455   2.004   2.242   2.046  0.6955 -0.3811  0.6220
 3322TIP3   OH231456   4.436   3.417  11.741 -0.1594 -0.2277  0.7564
 3322TIP3    H131457   4.460   3.484  11.677  2.7612  0.5344  2.4751
 3322TIP3    H231458   4.410   3.342  11.687  1.6819  0.5292 -1.3795
 3323TIP3   OH231459   6.331   2.998   3.284 -0.1823  0.2952  0.4288
 3323TIP3    H131460   6.394   3.005   3.356 -0.4188  3.0543  0.4800
 3323TIP3    H231461   6.372   3.046   3.212 -0.5260 -1.3198 -0.9119
 3324TIP3   OH231462   1.545   6.227  15.479  0.2879 -0.3740  0.0509
 3324TIP3    H131463   1.609   6.173  15.525  0.3770 -0.3291 -0.0208
 3324TIP3    H231464   1.597   6.295  15.437  0.1347  0.0469  0.5266
 3325TIP3   OH231465   2.396   0.696  16.809  0.1834  0.3169  0.4428
 3325TIP3    H131466   2.312   0.657  16.788 -0.2402  0.9817  0.8714
 3325TIP3    H231467   2.415   0.666  16.898  1.7514 -2.1126 -0.5919
 3326TIP3   OH231468   1.793   1.804  17.059  0.4333 -0.4108 -0.1575
 3326TIP3    H131469   1.776   1.882  17.007  0.6975 -0.5228 -0.4160
 3326TIP3    H231470   1.871   1.825  17.109  0.6734 -0.6094 -0.4426
 3327TIP3   OH231471   0.441   0.565   0.138 -0.3174  0.2967  0.5891
 3327TIP3    H131472   0.451   0.525   0.051  2.5842  0.6999  0.6317
 3327TIP3    H231473   0.365   0.622   0.129 -0.3021  0.0884 -1.5986
 3328TIP3   OH231474   4.619   3.570   4.478 -0.2969  0.0357 -0.0547
 3328TIP3    H131475   4.652   3.494   4.526  0.5773 -0.4340 -1.3375
 3328TIP3    H231476   4.589   3.534   4.394 -0.4834  1.0149 -0.4271
 3329TIP3   OH231477   3.497   3.175  12.497 -0.6276 -0.3256 -0.6773
 3329TIP3    H131478   3.577   3.216  12.530 -0.0984 -0.8912 -1.2317
 3329TIP3    H231479   3.432   3.245  12.498 -0.0882  0.1804 -0.3547
 3330TIP3   OH231480   4.754   0.090  12.237  0.6137  0.0349  0.4808
 3330TIP3    H131481   4.724   0.100  12.328 -0.4913 -0.8842  0.2389
 3330TIP3    H231482   4.678   0.115  12.184  1.7451  2.1631 -0.2543
 3331TIP3   OH231483   5.581   0.579   0.439 -0.0744 -0.5159  0.1488
 3331TIP3    H131484   5.662   0.578   0.490  2.2442  1.7418 -3.1151
 3331TIP3    H231485   5.550   0.670   0.445 -2.3105 -1.2563  1.0554
 3332TIP3   OH231486   3.971   5.211  16.332  0.0946 -0.0864 -0.1876
 3332TIP3    H131487   3.956   5.305  16.333  2.1044  0.2810  1.0960
 3332TIP3    H231488   3.887   5.173  16.304 -0.5796  2.0760 -1.2948
 3333TIP3   OH231489   2.844   1.124   0.508  0.9014 -1.1651 -0.3305
 3333TIP3    H131490   2.824   1.042   0.552  2.3267 -1.3567 -0.0026
 3333TIP3    H231491   2.902   1.100   0.436  2.1884 -0.3684  0.3849
 3334TIP3   OH231492   4.577   5.319  12.616  0.1610 -1.1003 -0.1049
 3334TIP3    H131493   4.622   5.239  12.589  1.0776 -0.6574  0.0697
 3334TIP3    H231494   4.639   5.363  12.676  0.8629  1.0367 -2.2141
 3335TIP3   OH231495   0.670   3.121  11.543 -0.2554  0.3467 -0.4861
 3335TIP3    H131496   0.642   3.136  11.633 -2.1360  0.2138 -1.0048
 3335TIP3    H231497   0.670   3.208  11.502  0.0385  0.3372 -0.5090
 3336TIP3   OH231498   6.109   6.060  13.143 -0.2364  0.2189 -0.4060
 3336TIP3    H131499   6.103   6.052  13.238  0.3218  1.4420 -0.2443
 3336TIP3    H231500   6.073   5.978  13.109 -0.1671 -0.3551  0.8614
 3337TIP3   OH231501   2.177   2.076   2.287 -0.3001  0.2446 -0.2600
 3337TIP3    H131502   2.094   2.100   2.245 -1.1940  0.3884  1.4963
 3337TIP3    H231503   2.151   2.019   2.360  1.0772  0.9886  0.8440
 3338TIP3   OH231504   2.309   1.687  14.365 -0.0064 -0.2045 -0.8085
 3338TIP3    H131505   2.241   1.678  14.431  0.5379 -0.3377 -0.2620
 3338TIP3    H231506   2.316   1.599  14.326  1.2613 -0.7374  0.5400
 3339TIP3   OH231507   3.985   0.634  15.271  0.4483 -0.0371 -0.2373
 3339TIP3    H131508   3.933   0.708  15.302  0.0684 -1.2991  2.4769
 3339TIP3    H231509   4.069   0.644  15.316  0.6506 -0.8182 -0.4269
 3340TIP3   OH231510   5.509   2.219   0.351  0.0211  0.0010  0.1521
 3340TIP3    H131511   5.527   2.290   0.413  1.5563  0.2271 -0.4988
 3340TIP3    H231512   5.595   2.181   0.333 -0.5826 -0.9802 -0.7661
 3341TIP3   OH231513   1.942   1.478   0.294  0.6384 -0.0155  0.3041
 3341TIP3    H131514   1.919   1.392   0.259 -0.4739  1.2992 -2.6349
 3341TIP3    H231515   2.002   1.515   0.229 -1.8831  2.7921 -0.6905
 3342TIP3   OH231516   0.143   4.806   6.224  1.0884 -0.0214 -0.3867
 3342TIP3    H131517   0.228   4.780   6.186  1.7062 -0.5410  1.2743
 3342TIP3    H231518   0.157   4.895   6.256  0.8323  0.0985 -0.6051
 3343TIP3   OH231519   2.579   1.536  14.444  0.1145 -0.3446  0.1620
 3343TIP3    H131520   2.504   1.521  14.502 -0.3865  0.7438 -0.1901
 3343TIP3    H231521   2.562   1.481  14.368 -0.3448 -0.0695  0.0650
 3344TIP3   OH231522   0.349   3.412  16.454  0.2932  0.0852 -0.3642
 3344TIP3    H131523   0.444   3.399  16.455  0.2305 -0.4446  0.8112
 3344TIP3    H231524   0.314   3.328  16.424  0.1649 -0.1368  0.3768
 3345TIP3   OH231525   5.766   2.315   2.457  0.3048 -0.1535  0.0051
 3345TIP3    H131526   5.700   2.378   2.486  0.0873 -0.0434 -0.7014
 3345TIP3    H231527   5.824   2.365   2.400 -0.6176 -0.8419 -1.6133
 3346TIP3   OH231528   1.161   4.793   1.424  0.4034 -0.7277 -0.1606
 3346TIP3    H131529   1.168   4.778   1.330 -0.6995  0.7711 -0.5094
 3346TIP3    H231530   1.231   4.738   1.462 -0.4324 -2.9429 -1.6349
 3347TIP3   OH231531   4.898   1.947  12.815  0.1145  0.1445 -0.0874
 3347TIP3    H131532   4.812   1.982  12.838 -0.3785 -0.8990 -0.2822
 3347TIP3    H231533   4.892   1.926  12.722 -0.2130 -1.9948  0.3408
 3348TIP3   OH231534   2.124   6.180   5.647  0.3425  0.2099 -0.1314
 3348TIP3    H131535   2.044   6.177   5.595  1.1062  0.9832 -1.3816
 3348TIP3    H231536   2.094   6.205   5.735 -1.0922 -2.1966  0.1649
 3349TIP3   OH231537   3.934   2.133   3.753 -0.0134 -0.3591 -0.2838
 3349TIP3    H131538   3.981   2.191   3.813 -1.0544  2.5709 -2.0539
 3349TIP3    H231539   4.002   2.079   3.714  0.9879 -0.6091  1.6739
 3350TIP3   OH231540   6.613   0.123  11.596  0.0182  0.4597 -0.4569
 3350TIP3    H131541   6.564   0.041  11.591  0.3135  0.3328 -1.5087
 3350TIP3    H231542   6.704   0.097  11.582  0.3238  0.7716  0.8486
 3351TIP3   OH231543   0.052   4.528  14.245 -0.4859 -0.5168  0.5905
 3351TIP3    H131544   0.019   4.485  14.324 -0.9810  1.4176  1.4701
 3351TIP3    H231545   0.017   4.616  14.248  3.0523  1.0822  0.5556
 3352TIP3   OH231546   4.610   6.447   0.649  0.4795 -0.3737  0.1085
 3352TIP3    H131547   4.537   6.500   0.681  0.3486 -0.7107  0.3797
 3352TIP3    H231548   4.634   6.392   0.724  0.3589 -0.9690 -0.2766
 3353TIP3   OH231549   3.423   5.229   0.635 -0.5125 -0.3919 -0.1300
 3353TIP3    H131550   3.455   5.164   0.697 -0.9653 -1.7804 -1.3025
 3353TIP3    H231551   3.329   5.216   0.632 -0.5542 -0.0112 -0.7325
 3354TIP3   OH231552   4.045   4.016   5.427  0.8624  0.3835  0.0830
 3354TIP3    H131553   4.016   3.938   5.380  1.7704  0.4660 -0.6386
 3354TIP3    H231554   4.080   3.982   5.510 -2.5705  0.3900  1.7099
 3355TIP3   OH231555   3.853   2.875  15.843  0.1209 -0.4182 -0.1517
 3355TIP3    H131556   3.814   2.789  15.859  1.0078 -1.0700 -1.3726
 3355TIP3    H231557   3.940   2.857  15.809  0.1442  0.9567 -0.9203
 3356TIP3   OH231558   3.350   1.362   5.584  0.0341  0.0316  0.1235
 3356TIP3    H131559   3.296   1.430   5.624  0.8151 -0.0760  1.4319
 3356TIP3    H231560   3.429   1.360   5.637  0.7443 -0.7529 -0.9193
 3357TIP3   OH231561   5.368   6.742  16.529 -0.1031 -0.0109 -0.0130
 3357TIP3    H131562   5.289   6.736  16.583  0.3142 -0.5707  0.5602
 3357TIP3    H231563   5.430   6.791  16.584  0.4703 -0.9606  0.2110
 3358TIP3   OH231564   3.082   3.154  12.572 -0.4275 -0.0401 -0.8012
 3358TIP3    H131565   3.117   3.146  12.661 -2.8848 -1.6132  0.1176
 3358TIP3    H231566   3.053   3.245  12.566  2.1090  0.8434 -1.0272
 3359TIP3   OH231567   0.904   5.235  13.066 -0.3950 -0.3005 -0.4593
 3359TIP3    H131568   0.976   5.248  13.127  0.3774 -2.4378 -0.8214
 3359TIP3    H231569   0.839   5.187  13.116  0.2296 -2.0413 -1.2314
 3360TIP3   OH231570   6.696   2.225  14.842 -0.2405 -0.1040 -0.4259
 3360TIP3    H131571   6.680   2.131  14.832 -1.0682 -0.1076  0.7714
 3360TIP3    H231572   6.777   2.240  14.793 -0.3078 -1.3610 -0.9700
 3361TIP3   OH231573   1.297   6.000   4.972 -0.0135  0.0176  0.2386
 3361TIP3    H131574   1.383   6.043   4.966  0.4975 -0.7496  1.5825
 3361TIP3    H231575   1.299   5.934   4.903  0.5363 -0.0783  0.3381
 3362TIP3   OH231576   5.983   4.234  16.039 -0.1195  0.5223  0.1913
 3362TIP3    H131577   5.944   4.195  15.961  0.9500 -1.7419  0.7086
 3362TIP3    H231578   5.961   4.173  16.110 -0.5300  2.1983  1.5820
 3363TIP3   OH231579   4.119   5.695  16.214 -0.3677  0.3513  0.0263
 3363TIP3    H131580   4.210   5.721  16.205 -0.3317  0.3357  0.3160
 3363TIP3    H231581   4.116   5.606  16.179 -0.0333 -0.0777  1.0448
 3364TIP3   OH231582   6.756   0.176  17.240 -0.1050  0.0790  0.5268
 3364TIP3    H131583   6.815   0.234  17.289  0.0892 -1.3940  2.1350
 3364TIP3    H231584   6.718   0.232  17.172  0.2115  2.0206  1.8737
 3365TIP3   OH231585   3.049   0.028   6.861  0.2436  0.0082 -0.2956
 3365TIP3    H131586   3.134  -0.014   6.847  0.9827  1.0464  0.9069
 3365TIP3    H231587   2.988  -0.023   6.807  1.7929 -0.0801 -2.0352
 3366TIP3   OH231588   4.326   2.878   1.241 -0.2485  0.4903  0.3409
 3366TIP3    H131589   4.348   2.818   1.312  0.1737  1.5564  1.1352
 3366TIP3    H231590   4.393   2.862   1.175  0.4707  0.7849  0.9843
 3367TIP3   OH231591   4.512   4.128   5.593  0.6054 -0.3043  0.0712
 3367TIP3    H131592   4.537   4.093   5.679 -0.4747 -0.4027  0.3569
 3367TIP3    H231593   4.555   4.070   5.530  0.0045 -1.2970  0.5465
 3368TIP3   OH231594   4.060   5.906   0.003 -0.5371  0.3405  0.0561
 3368TIP3    H131595   4.002   5.876   0.072  1.6747 -0.1541  1.8303
 3368TIP3    H231596   4.090   5.992   0.032  1.7058 -0.5653  0.6612
 3369TIP3   OH231597   3.840   2.377   4.656 -0.1590 -0.5379 -0.3817
 3369TIP3    H131598   3.748   2.381   4.683 -0.1977  0.5140 -0.6119
 3369TIP3    H231599   3.856   2.284   4.639 -1.4760 -0.6120 -1.3752
 3370TIP3   OH231600   4.005   3.454  13.000 -0.0950  0.2317  0.1762
 3370TIP3    H131601   3.988   3.383  13.062 -0.4033 -0.0638 -0.2378
 3370TIP3    H231602   4.085   3.495  13.032 -1.0791  1.0830  1.6616
 3371TIP3   OH231603   3.885   4.738  10.780 -1.0969  0.0078 -0.9802
 3371TIP3    H131604   3.963   4.788  10.756  0.8560 -2.3550 -0.0296
 3371TIP3    H231605   3.812   4.797  10.762  1.0037  3.6081  1.0707
 3372TIP3   OH231606   5.548   6.229   2.856  0.2994  0.2914  0.7597
 3372TIP3    H131607   5.509   6.152   2.815  1.7743 -1.2174  2.0080
 3372TIP3    H231608   5.494   6.302   2.827 -1.8402 -1.3354  0.4021
 3373TIP3   OH231609   3.212   1.752  16.733  0.1238 -0.7829  0.3399
 3373TIP3    H131610   3.209   1.663  16.698 -0.1436 -0.0855 -1.4668
 3373TIP3    H231611   3.268   1.800  16.672 -0.2190  0.4453  0.9673
 3374TIP3   OH231612   0.345   4.084   4.983 -0.1642 -0.3132  0.3762
 3374TIP3    H131613   0.316   4.139   5.056  0.1068  1.0876 -0.5464
 3374TIP3    H231614   0.281   4.013   4.980  0.3098 -0.9155  2.5272
 3375TIP3   OH231615   2.367   3.416  17.077  0.1251  0.0172 -0.3718
 3375TIP3    H131616   2.383   3.341  17.020  1.5156  0.1720 -0.2211
 3375TIP3    H231617   2.339   3.377  17.160  1.2447 -0.3892 -0.1602
 3376TIP3   OH231618   2.796   5.824  16.249 -0.1454 -0.7309  0.7822
 3376TIP3    H131619   2.770   5.821  16.157  0.0638  2.4784  0.4997
 3376TIP3    H231620   2.886   5.856  16.248 -0.7540  1.2414  2.0590
 3377TIP3   OH231621   1.523   5.032  16.980 -0.2261  0.3539 -0.1858
 3377TIP3    H131622   1.547   5.122  16.999 -0.8598  0.3546  0.6811
 3377TIP3    H231623   1.593   4.980  17.019 -0.5606  0.4311  0.5423
 3378TIP3   OH231624   2.968   6.562  17.173  0.0773 -0.1301  0.3266
 3378TIP3    H131625   2.998   6.616  17.100 -0.1813  1.0870  1.0756
 3378TIP3    H231626   3.007   6.476  17.158  2.2631  0.8270  0.2051
 3379TIP3   OH231627   2.111   5.304  12.679 -0.2563 -0.5739 -0.2034
 3379TIP3    H131628   2.122   5.285  12.772  0.0338  0.1852 -0.0831
 3379TIP3    H231629   2.064   5.387  12.676  0.3917 -0.2225 -0.7390
 3380TIP3   OH231630   3.411   1.189  14.049 -0.0287  0.0684  0.2783
 3380TIP3    H131631   3.478   1.185  13.980 -2.5016 -0.5164 -2.2676
 3380TIP3    H231632   3.353   1.259  14.021 -0.6826  0.3754  2.2713
 3381TIP3   OH231633   3.422   6.437   1.317  0.0547  0.1392  0.0016
 3381TIP3    H131634   3.376   6.366   1.271  0.0867  0.0823  0.0580
 3381TIP3    H231635   3.466   6.394   1.390 -0.6446  0.3426  0.5514
 3382TIP3   OH231636   2.115   0.003   2.421  0.0658  0.3164  0.1182
 3382TIP3    H131637   2.150   0.008   2.510  3.2247  3.6873 -1.0356
 3382TIP3    H231638   2.182  -0.046   2.372 -0.6312  0.2174 -0.7596
 3383TIP3   OH231639   4.077   6.771   6.062  0.6843  0.1987  0.1967
 3383TIP3    H131640   4.159   6.791   6.018  2.2191 -2.0547  1.7901
 3383TIP3    H231641   4.097   6.778   6.155 -0.8578 -0.6255  0.6349
 3384TIP3   OH231642   2.195   5.957  14.739 -0.0867 -0.0510  0.2457
 3384TIP3    H131643   2.152   5.940  14.656  0.8767 -1.0018 -0.0736
 3384TIP3    H231644   2.285   5.980  14.716  0.4219 -1.1464  1.0443
 3385TIP3   OH231645   2.913   2.622  11.358 -0.0369 -0.2431  0.0665
 3385TIP3    H131646   2.827   2.605  11.319 -1.2171  2.4679  1.1740
 3385TIP3    H231647   2.942   2.704  11.317  0.7169  0.3262  1.6349
 3386TIP3   OH231648   3.654   5.548  17.258 -0.0880  0.8520 -0.8152
 3386TIP3    H131649   3.728   5.601  17.227  0.5924  0.6154  0.3238
 3386TIP3    H231650   3.690   5.460  17.266 -0.4286  0.7723 -0.0698
 3387TIP3   OH231651   5.982   0.490  11.719  0.7589 -0.1064  0.7063
 3387TIP3    H131652   6.066   0.479  11.674 -0.1483 -0.9546 -0.8856
 3387TIP3    H231653   5.941   0.404  11.713 -0.8370  0.6573  0.0933
 3388TIP3   OH231654   0.049   6.064   3.505  0.1934 -0.0572 -0.7219
 3388TIP3    H131655   0.105   5.992   3.475  2.2382  1.2452 -0.1949
 3388TIP3    H231656   0.013   6.034   3.588  0.7321 -0.6292 -0.6895
 3389TIP3   OH231657   5.053   4.599   5.546  1.1889  0.0679 -0.1652
 3389TIP3    H131658   5.037   4.516   5.590 -1.6822  1.3281  1.4814
 3389TIP3    H231659   5.021   4.586   5.457  0.7888 -0.5921  0.0687
 3390TIP3   OH231660   4.736   1.808   0.501  0.0522  0.4032  0.2152
 3390TIP3    H131661   4.797   1.771   0.565  0.9461  1.5163  0.0473
 3390TIP3    H231662   4.756   1.901   0.501 -1.1624  0.6755 -0.3999
 3391TIP3   OH231663   6.475   0.070   0.331  0.2341  0.3547 -0.8333
 3391TIP3    H131664   6.403   0.131   0.350  0.9891  0.9042  0.3970
 3391TIP3    H231665   6.497   0.086   0.240  0.6436  2.1961 -0.4459
 3392TIP3   OH231666   1.642   1.820   0.632 -0.2805  0.2436  0.1403
 3392TIP3    H131667   1.710   1.755   0.650  0.2885  0.6949 -0.3237
 3392TIP3    H231668   1.669   1.898   0.680 -1.3008 -0.0410  1.2201
 3393TIP3   OH231669   3.735   2.540  12.502 -0.0902 -0.0596  0.6255
 3393TIP3    H131670   3.662   2.479  12.503 -0.1465  0.0078  0.5761
 3393TIP3    H231671   3.760   2.547  12.410 -0.9936  1.0820  0.4447
 3394TIP3   OH231672   1.767   5.047   2.209  0.4748  0.0137  0.0255
 3394TIP3    H131673   1.839   5.094   2.168  0.5424  0.8136  1.0295
 3394TIP3    H231674   1.796   5.032   2.299  0.1361 -1.2947 -0.0634
 3395TIP3   OH231675   5.922   4.449  10.623  0.0557 -0.6698 -0.1974
 3395TIP3    H131676   5.968   4.365  10.619  0.8285 -0.2006 -1.8554
 3395TIP3    H231677   5.874   4.445  10.705 -0.3570 -2.9771 -0.4588
 3396TIP3   OH231678   4.442   3.825   5.897 -0.2336 -0.0567  1.3501
 3396TIP3    H131679   4.416   3.775   5.974  0.1681 -1.9840  0.3181
 3396TIP3    H231680   4.375   3.894   5.889 -1.0397 -0.6533  2.6341
 3397TIP3   OH231681   2.848   4.506  16.269 -0.4067  0.2880 -0.1324
 3397TIP3    H131682   2.894   4.438  16.219  1.1890  1.2653 -0.0458
 3397TIP3    H231683   2.761   4.468  16.286 -0.7382 -0.4099 -2.8849
 3398TIP3   OH231684   4.696   6.592   6.079 -0.2985  0.1161 -0.3241
 3398TIP3    H131685   4.788   6.582   6.104 -0.4080 -1.9497 -0.5569
 3398TIP3    H231686   4.671   6.678   6.112  1.5026  0.4019  0.4030
 3399TIP3   OH231687   5.332   6.397   3.808 -0.3196  0.4996  1.0904
 3399TIP3    H131688   5.399   6.359   3.864  1.9106  0.2515 -1.5246
 3399TIP3    H231689   5.381   6.448   3.743 -2.6262  0.2962 -0.9576
 3400TIP3   OH231690   3.392   0.672  12.470 -0.0949  0.6228 -0.0784
 3400TIP3    H131691   3.414   0.754  12.427  1.1557  0.0207 -0.6436
 3400TIP3    H231692   3.385   0.695  12.563 -2.6036  1.8883 -0.5068
 3401TIP3   OH231693   1.605   0.881   4.095 -0.6677  0.0493 -0.0475
 3401TIP3    H131694   1.526   0.935   4.104  0.1302  1.0622  1.1645
 3401TIP3    H231695   1.642   0.907   4.011 -0.3534  1.3486  0.4675
 3402TIP3   OH231696   1.411   1.272  10.406 -0.1991  0.6382 -0.1537
 3402TIP3    H131697   1.316   1.265  10.394 -0.0549  0.1911 -1.1881
 3402TIP3    H231698   1.438   1.183  10.428 -0.1112  0.9314  0.9784
 3403TIP3   OH231699   0.715   2.525   5.808 -0.5058 -0.4097 -0.4678
 3403TIP3    H131700   0.780   2.587   5.773  0.4828 -0.9196  0.3948
 3403TIP3    H231701   0.652   2.580   5.854 -0.0140  0.0209 -0.2907
 3404TIP3   OH231702   6.344   2.540  15.606  0.2823  0.2357 -0.0672
 3404TIP3    H131703   6.420   2.520  15.661  0.2131 -1.1439 -0.4201
 3404TIP3    H231704   6.381   2.577  15.526  0.4712  1.0118  0.3750
 3405TIP3   OH231705   1.347   2.097   3.000 -0.2584  0.0004 -0.7298
 3405TIP3    H131706   1.303   2.013   2.982 -1.3497  0.8276 -2.1184
 3405TIP3    H231707   1.436   2.084   2.970 -1.0406  0.0700 -3.2880
 3406TIP3   OH231708   2.473   1.012   1.120  0.2861  0.0492 -0.0513
 3406TIP3    H131709   2.493   1.053   1.204 -1.1574  0.1135  0.2797
 3406TIP3    H231710   2.506   0.923   1.129  1.1792  0.3886  0.1508
 3407TIP3   OH231711   0.709   5.404   1.907  0.6273 -0.2548 -0.3306
 3407TIP3    H131712   0.736   5.421   1.817  0.6320 -0.7704 -0.4275
 3407TIP3    H231713   0.613   5.409   1.904  0.6112 -0.6292 -0.4371
 3408TIP3   OH231714   2.180   5.636  12.450 -0.6834 -0.1157 -0.0383
 3408TIP3    H131715   2.153   5.725  12.427  1.7043  0.9450  0.8372
 3408TIP3    H231716   2.129   5.579  12.392 -0.3698  1.9627 -2.5433
 3409TIP3   OH231717   0.525   2.980  12.273  0.5947 -0.5640 -0.2353
 3409TIP3    H131718   0.470   2.968  12.196 -1.7695 -2.0314  1.5098
 3409TIP3    H231719   0.523   2.894  12.317  2.9846 -0.1764  0.8003
 3410TIP3   OH231720   2.928   3.309   3.775 -0.7207 -0.4648  0.1054
 3410TIP3    H131721   2.874   3.257   3.716  0.3001 -0.0247 -1.2744
 3410TIP3    H231722   2.890   3.397   3.770  0.3966 -0.0272 -1.2964
 3411TIP3   OH231723   1.018   2.802  14.778 -0.1138  0.1549 -0.0368
 3411TIP3    H131724   1.036   2.869  14.712  0.6733 -0.1879 -0.1843
 3411TIP3    H231725   0.980   2.730  14.728 -0.4895  0.2909  0.0471
 3412TIP3   OH231726   0.389   2.633  13.738 -0.0077  0.0466 -0.0000
 3412TIP3    H131727   0.463   2.619  13.680 -1.0923 -0.8841 -1.2242
 3412TIP3    H231728   0.327   2.683  13.685 -1.0649 -0.9058  0.3019
 3413TIP3   OH231729   1.150   0.762  16.445  0.2943  0.1141 -0.1584
 3413TIP3    H131730   1.090   0.689  16.432  0.7046 -0.5040  1.2881
 3413TIP3    H231731   1.114   0.809  16.521  1.6727 -0.3438  0.8102
 3414TIP3   OH231732   6.231   0.200  16.587  0.1776  0.2554  0.6875
 3414TIP3    H131733   6.226   0.162  16.675 -0.3551 -1.3799 -0.0188
 3414TIP3    H231734   6.215   0.294  16.601  0.3820  0.0722  2.3559
 3415TIP3   OH231735   3.622   1.112  13.643  0.6576  0.0177 -0.1307
 3415TIP3    H131736   3.668   1.103  13.560 -0.6696 -1.7234 -0.7455
 3415TIP3    H231737   3.626   1.205  13.663 -0.1697  0.7365 -2.8726
 3416TIP3   OH231738   3.793   6.202  16.551 -0.0021  0.5052  0.5243
 3416TIP3    H131739   3.729   6.153  16.603  0.9318  1.1694  2.4002
 3416TIP3    H231740   3.787   6.292  16.583  1.0784  0.8029 -0.0438
 3417TIP3   OH231741   0.563   1.582   1.430 -0.0261 -0.1213  0.2728
 3417TIP3    H131742   0.478   1.537   1.426 -1.5009  2.0459  3.3378
 3417TIP3    H231743   0.625   1.515   1.456 -1.4182 -1.1474  1.0839
 3418TIP3   OH231744   4.935   1.972   4.852 -0.0030  0.0796  0.4684
 3418TIP3    H131745   4.956   1.924   4.932  0.6031 -0.9341 -0.2825
 3418TIP3    H231746   4.941   1.907   4.782 -0.3390  0.9890 -0.4360
 3419TIP3   OH231747   3.258   3.134   6.068  0.2447 -0.0989 -0.0066
 3419TIP3    H131748   3.322   3.153   5.999 -0.8183  1.4196 -0.6249
 3419TIP3    H231749   3.295   3.175   6.147  0.8766 -0.7785  0.0582
 3420TIP3   OH231750   2.363   1.311   0.288 -0.0574 -0.2479  0.6199
 3420TIP3    H131751   2.446   1.289   0.329  1.3181  1.2731 -1.1540
 3420TIP3    H231752   2.363   1.407   0.283 -0.9733 -0.2871 -1.2094
 3421TIP3   OH231753   0.048   1.601  13.669 -0.8455  0.5658 -0.2273
 3421TIP3    H131754   0.123   1.606  13.728  0.6650 -3.7404 -1.3931
 3421TIP3    H231755  -0.007   1.531  13.705 -2.5922  1.3609 -1.2051
 3422TIP3   OH231756   4.020   1.357  16.172  0.1804 -0.2008 -0.1756
 3422TIP3    H131757   4.002   1.318  16.087 -1.8499 -0.0345  0.1236
 3422TIP3    H231758   3.948   1.328  16.228  0.8194  0.6607  1.1552
 3423TIP3   OH231759   6.292   5.007   4.111 -0.3178  0.5457 -0.1892
 3423TIP3    H131760   6.254   4.943   4.052 -0.7555  1.0567 -0.4729
 3423TIP3    H231761   6.267   4.977   4.198  1.0103 -0.6546 -0.1800
 3424TIP3   OH231762   1.332   2.795   5.329  0.1789 -0.1815  0.1729
 3424TIP3    H131763   1.378   2.713   5.310  1.3418  0.3425  0.5916
 3424TIP3    H231764   1.372   2.859   5.270 -0.0740  0.2751  0.4888
 3425TIP3   OH231765   1.357   4.490  12.988 -0.0803  0.5338  0.1727
 3425TIP3    H131766   1.371   4.440  13.069  0.5964  1.1790  0.4731
 3425TIP3    H231767   1.431   4.467  12.932 -1.1227 -0.7611 -0.7356
 3426TIP3   OH231768   5.579   3.195   5.218  0.2325  0.3213 -0.5452
 3426TIP3    H131769   5.655   3.232   5.173  1.6773 -1.2848  0.4477
 3426TIP3    H231770   5.577   3.239   5.303  1.8545 -1.6432  0.5711
 3427TIP3   OH231771   2.470   4.242   0.049  0.2698  0.2393 -0.5250
 3427TIP3    H131772   2.453   4.286   0.132  0.8607  0.4822 -0.5241
 3427TIP3    H231773   2.471   4.149   0.071 -1.7394  0.1391 -0.6633
 3428TIP3   OH231774   0.631   0.689  16.624  0.8020  0.0722  0.0922
 3428TIP3    H131775   0.562   0.646  16.574 -0.5649  0.1916  1.7974
 3428TIP3    H231776   0.607   0.782  16.625  0.6912  0.0493  1.0934
 3429TIP3   OH231777   5.912   3.345   4.551 -0.0904  0.3858  0.4787
 3429TIP3    H131778   5.984   3.404   4.530 -0.2009  0.4582  0.3099
 3429TIP3    H231779   5.835   3.401   4.559  0.0102  0.4101  1.4228
 3430TIP3   OH231780   5.535   5.646   4.685  0.0479 -0.5782 -0.0772
 3430TIP3    H131781   5.609   5.685   4.731 -0.1134  0.3301 -0.5508
 3430TIP3    H231782   5.559   5.555   4.672  2.0467  0.1523 -2.0819
 3431TIP3   OH231783   2.076   5.379   3.382  0.0493  0.1045  0.5598
 3431TIP3    H131784   2.005   5.419   3.433  0.4414 -0.1783  1.3410
 3431TIP3    H231785   2.119   5.453   3.339 -0.1011  0.3814  0.8754
 3432TIP3   OH231786   4.365   1.909  14.160  0.1473  0.2100 -0.0940
 3432TIP3    H131787   4.339   1.824  14.123  0.3536 -1.2356  2.7865
 3432TIP3    H231788   4.453   1.924  14.127  0.2669 -0.9224 -0.3254
 3433TIP3   OH231789   4.568   1.514   3.746 -0.1017  0.3479 -0.6980
 3433TIP3    H131790   4.650   1.508   3.794  0.3544  0.4527 -1.4455
 3433TIP3    H231791   4.563   1.433   3.696 -1.1252 -0.2672  0.3749
 3434TIP3   OH231792   2.997   0.212   0.582  0.2280  0.7730 -0.4063
 3434TIP3    H131793   2.987   0.117   0.588 -0.5370  0.9403  1.6880
 3434TIP3    H231794   3.011   0.241   0.672 -0.5874  2.7552 -0.8613
 3435TIP3   OH231795   2.806   3.812  12.300  0.4298 -0.2492 -0.3352
 3435TIP3    H131796   2.832   3.783  12.212  1.2325 -0.5518 -0.0046
 3435TIP3    H231797   2.888   3.825  12.346  0.0310  0.6840  0.1363
 3436TIP3   OH231798   0.607   1.060   3.161 -0.6046  0.3020 -0.0271
 3436TIP3    H131799   0.656   1.116   3.220  0.4524 -1.3584  0.7387
 3436TIP3    H231800   0.639   1.083   3.074  1.6777 -0.7607  0.4516
 3437TIP3   OH231801   5.463   3.506   1.197 -0.0914 -0.1647 -0.1865
 3437TIP3    H131802   5.549   3.528   1.161 -0.3503  1.1808 -0.0312
 3437TIP3    H231803   5.403   3.514   1.123 -0.1530 -0.7237 -0.2053
 3438TIP3   OH231804   5.772   4.424  11.369  0.5738 -0.1745 -0.1922
 3438TIP3    H131805   5.818   4.421  11.453 -0.0677  1.4315  0.2445
 3438TIP3    H231806   5.813   4.354  11.317  1.6692 -0.5298  1.0913
 3439TIP3   OH231807   2.696   3.105   4.491  0.4418 -0.4375 -0.0552
 3439TIP3    H131808   2.693   3.198   4.513 -0.4730 -0.6399  0.7597
 3439TIP3    H231809   2.756   3.100   4.417  1.3581  0.6502  0.5775
 3440TIP3   OH231810   1.007   0.749   2.817 -0.1483  0.1042  0.8784
 3440TIP3    H131811   1.074   0.791   2.871 -1.2589  0.3229  2.1413
 3440TIP3    H231812   1.007   0.658   2.846 -0.4361  0.1179  0.9221
 3441TIP3   OH231813   6.410   2.784  16.486 -0.4717 -0.2061  0.0214
 3441TIP3    H131814   6.389   2.737  16.405  1.7186 -0.0227 -0.6984
 3441TIP3    H231815   6.504   2.801  16.481 -0.8974  3.0471  0.8857
 3442TIP3   OH231816   6.823   2.801   3.594 -0.0816  0.5555 -0.2768
 3442TIP3    H131817   6.814   2.807   3.499 -0.4550 -1.1098 -0.3717
 3442TIP3    H231818   6.796   2.887   3.626  1.1546  1.5307 -1.7288
 3443TIP3   OH231819   5.500   4.665   5.964  0.4238  0.6349 -0.4604
 3443TIP3    H131820   5.413   4.693   5.991  0.4682  0.7422 -0.4284
 3443TIP3    H231821   5.557   4.689   6.037  0.5067  0.7153 -0.5525
 3444TIP3   OH231822   6.619   4.691   5.224 -0.4612 -0.5274  0.4068
 3444TIP3    H131823   6.525   4.706   5.221 -0.6344 -1.5096  0.5289
 3444TIP3    H231824   6.652   4.756   5.285 -0.5120  2.3051 -2.2966
 3445TIP3   OH231825   6.305   6.452   2.532 -0.3809 -0.2803 -0.1848
 3445TIP3    H131826   6.397   6.471   2.549 -1.0340  1.5786  1.7536
 3445TIP3    H231827   6.279   6.394   2.603 -0.2589 -2.6421 -1.9449
 3446TIP3   OH231828   5.934   1.584   5.846  0.7378  0.3206 -0.1665
 3446TIP3    H131829   5.961   1.529   5.772 -1.3874  0.5302 -1.1911
 3446TIP3    H231830   5.878   1.526   5.899 -0.0829  0.9698 -0.3000
 3447TIP3   OH231831   4.108   2.306  16.416 -0.0211  0.5200 -0.3377
 3447TIP3    H131832   4.056   2.386  16.408  2.6048  2.4194 -0.1007
 3447TIP3    H231833   4.127   2.298  16.509  1.1624  0.6657 -0.5464
 3448TIP3   OH231834   4.390   0.716   5.619  0.0414  0.2378 -0.4582
 3448TIP3    H131835   4.442   0.785   5.577  0.3235 -0.2513 -0.9320
 3448TIP3    H231836   4.415   0.636   5.572 -0.1107 -0.2219  0.2409
 3449TIP3   OH231837   1.500   4.265   2.840 -0.2153 -0.1342  0.1541
 3449TIP3    H131838   1.527   4.344   2.793  0.2621 -0.5114 -0.2186
 3449TIP3    H231839   1.500   4.196   2.774  0.1143 -0.6014  0.6261
 3450TIP3   OH231840   2.895   4.030  13.233  0.5983 -0.1828  0.3249
 3450TIP3    H131841   2.923   4.118  13.210  0.2720 -0.5918 -1.8251
 3450TIP3    H231842   2.951   4.006  13.307  0.9290  1.6648  0.7221
 3451TIP3   OH231843   3.553   0.597  15.927  0.4538  0.3380  0.3428
 3451TIP3    H131844   3.521   0.687  15.931 -0.8029  0.3180 -3.9112
 3451TIP3    H231845   3.481   0.545  15.963 -0.4500  0.8577 -0.6488
 3452TIP3   OH231846   0.651   1.677  13.104  0.1401  0.4759  0.3264
 3452TIP3    H131847   0.591   1.725  13.048  2.1303  1.3157 -1.2277
 3452TIP3    H231848   0.696   1.744  13.155 -0.4087 -0.1522  1.6668
 3453TIP3   OH231849   2.922   5.034  11.087  0.0186  0.5703  0.3332
 3453TIP3    H131850   2.953   4.944  11.093  0.0346  0.6392  1.5746
 3453TIP3    H231851   2.841   5.028  11.036 -0.5210 -0.3024  1.2481
 3454TIP3   OH231852   0.668   2.136  16.645  0.1262  0.0166 -0.0824
 3454TIP3    H131853   0.675   2.043  16.665 -0.4530  0.2178  1.1886
 3454TIP3    H231854   0.656   2.140  16.550  1.1310 -1.1369 -0.2793
 3455TIP3   OH231855   6.332   2.216  13.218  0.1770  0.4593  0.0169
 3455TIP3    H131856   6.408   2.162  13.243  0.3497  1.3575  1.5732
 3455TIP3    H231857   6.360   2.306  13.237 -0.8300  0.9161 -0.6196
 3456TIP3   OH231858   1.475   5.531  11.651  0.0638  0.2135  0.0328
 3456TIP3    H131859   1.536   5.458  11.640  0.4628  0.4058  0.8669
 3456TIP3    H231860   1.394   5.490  11.681  0.6710  0.1916  1.7794
 3457TIP3   OH231861   2.581   4.611   2.671 -0.9394 -0.3811  0.3343
 3457TIP3    H131862   2.545   4.606   2.759 -1.5064 -1.3826  0.0670
 3457TIP3    H231863   2.504   4.610   2.614 -0.6284  1.3891 -0.1538
 3458TIP3   OH231864   4.315   6.279   2.124 -0.0242  0.6489  0.2311
 3458TIP3    H131865   4.317   6.336   2.200  0.8862  0.3075  0.4770
 3458TIP3    H231866   4.245   6.216   2.143  0.7200  0.0705  1.1695
 3459TIP3   OH231867   5.918   2.897   5.192 -0.3183 -0.3756 -0.0956
 3459TIP3    H131868   5.915   2.931   5.281  1.8477  0.9083 -0.4326
 3459TIP3    H231869   6.001   2.850   5.187  0.5623  1.1999 -1.9091
 3460TIP3   OH231870   4.588   4.999   0.318 -0.0084  0.1775 -0.0160
 3460TIP3    H131871   4.573   5.048   0.399  0.6781 -0.2451  0.3782
 3460TIP3    H231872   4.664   4.944   0.337  0.0532 -0.0576 -0.8913
 3461TIP3   OH231873   5.750   4.971  13.729  0.1462  0.0289 -0.3430
 3461TIP3    H131874   5.800   5.027  13.670 -0.4688  0.8136 -0.1290
 3461TIP3    H231875   5.780   4.882  13.708  3.0243  0.5425  1.0501
 3462TIP3   OH231876   3.861   3.486  15.366 -0.1658 -0.2474 -0.0801
 3462TIP3    H131877   3.899   3.409  15.407 -0.0360 -0.9796 -1.5274
 3462TIP3    H231878   3.849   3.548  15.438  0.4213 -1.3294  0.9800
 3463TIP3   OH231879   1.870   6.632  15.227  0.2804 -0.2892 -0.2623
 3463TIP3    H131880   1.799   6.682  15.186  0.0379 -0.1528  0.3177
 3463TIP3    H231881   1.913   6.695  15.285  0.4077 -0.5711 -0.0460
 3464TIP3   OH231882   6.684   1.020  14.844  0.1913  0.0722 -0.1928
 3464TIP3    H131883   6.596   1.051  14.864 -0.3968 -0.5675 -1.6351
 3464TIP3    H231884   6.675   0.925  14.836  1.0502 -0.0193 -0.2103
 3465TIP3   OH231885   0.347   5.181  14.248 -0.1001 -0.1316  0.0956
 3465TIP3    H131886   0.299   5.134  14.179 -2.4837  0.3300  1.3353
 3465TIP3    H231887   0.330   5.131  14.328 -1.0705  1.6552  1.0866
 3466TIP3   OH231888   4.673   5.230  17.039  0.0448  0.4495 -0.4066
 3466TIP3    H131889   4.666   5.134  17.042  1.8443  0.3232  0.5217
 3466TIP3    H231890   4.582   5.260  17.041 -0.5683 -1.2301 -1.0708
 3467TIP3   OH231891   5.754   5.663   5.964  0.2503 -0.9763  0.6060
 3467TIP3    H131892   5.810   5.684   6.038 -0.5615  2.4527  0.4025
 3467TIP3    H231893   5.665   5.683   5.994 -0.3356 -1.5714 -0.6390
 3468TIP3   OH231894   0.934   2.953   2.125  0.0286  0.3193 -0.1337
 3468TIP3    H131895   0.844   2.984   2.134  0.6451  2.1714  0.0822
 3468TIP3    H231896   0.943   2.930   2.032 -0.5282  0.5780 -0.2520
 3469TIP3   OH231897   1.915   5.431  14.439 -0.0978 -0.1128  0.1044
 3469TIP3    H131898   1.829   5.409  14.403  1.3844 -0.7781 -3.4426
 3469TIP3    H231899   1.905   5.521  14.471 -2.3632 -0.5973  0.9607
 3470TIP3   OH231900   3.585   5.762  11.869  0.0915  0.1471  0.1665
 3470TIP3    H131901   3.606   5.669  11.875  1.0957  0.2461 -1.2681
 3470TIP3    H231902   3.670   5.806  11.877 -0.3640  0.9509  0.7665
 3471TIP3   OH231903   1.351   4.239   0.136  0.0525  0.2415  0.3159
 3471TIP3    H131904   1.276   4.183   0.156  0.0339 -0.1128 -0.7024
 3471TIP3    H231905   1.407   4.185   0.081  2.1031 -0.2427  2.6856
 3472TIP3   OH231906   5.731   0.675  15.036  0.3821 -0.0948 -0.0729
 3472TIP3    H131907   5.718   0.719  14.952 -0.9901 -0.6925 -0.2085
 3472TIP3    H231908   5.721   0.582  15.015 -1.1238 -0.1897  0.9141
 3473TIP3   OH231909   0.482   0.744  15.232  0.5491  0.7929  0.1292
 3473TIP3    H131910   0.387   0.752  15.229  0.1017 -2.9542  0.2988
 3473TIP3    H231911   0.508   0.718  15.144  1.2435  0.3326  0.4579
 3474TIP3   OH231912   3.433   0.720   3.167  0.3420 -0.4934  0.5944
 3474TIP3    H131913   3.406   0.754   3.082  1.9738  0.4136  0.4061
 3474TIP3    H231914   3.366   0.754   3.228 -1.2659 -1.7849 -0.3819
 3475TIP3   OH231915   5.467   6.401   3.119  0.3885 -0.2666 -0.2089
 3475TIP3    H131916   5.505   6.412   3.206 -1.3396 -0.0548  0.5542
 3475TIP3    H231917   5.537   6.425   3.059  1.6390 -0.4712  1.1078
 3476TIP3   OH231918   2.663   6.227  10.319  0.3112  0.0409  0.1970
 3476TIP3    H131919   2.733   6.198  10.261  0.5739  2.1534 -0.6514
 3476TIP3    H231920   2.583   6.207  10.271  0.4886  0.6707 -0.3908
 3477TIP3   OH231921   3.818   1.829   4.498  0.0772 -0.3980 -0.1644
 3477TIP3    H131922   3.826   1.733   4.495 -1.6642 -0.5577 -0.7494
 3477TIP3    H231923   3.843   1.852   4.587  1.2256 -1.3061 -0.2222
 3478TIP3   OH231924   4.880   5.748   2.820  0.1499 -0.1338  0.8569
 3478TIP3    H131925   4.818   5.705   2.878 -0.7111 -0.7777 -0.4755
 3478TIP3    H231926   4.957   5.691   2.821  1.3238  1.3418  3.5267
 3479TIP3   OH231927   5.044   4.265  12.074 -0.8493  0.3563 -0.0992
 3479TIP3    H131928   4.986   4.219  12.014 -0.3154 -0.1233 -0.2572
 3479TIP3    H231929   5.036   4.217  12.157 -0.4750  0.1173 -0.1983
 3480TIP3   OH231930   4.440   1.170   1.845  0.2776  0.0012 -0.2064
 3480TIP3    H131931   4.485   1.194   1.926  0.2240 -0.1739 -0.1260
 3480TIP3    H231932   4.360   1.127   1.874  1.5382 -2.6092 -0.3157
 3481TIP3   OH231933   0.221   0.935  12.876 -0.4203 -0.1988 -0.2366
 3481TIP3    H131934   0.310   0.961  12.850 -0.0473  1.1793  2.1410
 3481TIP3    H231935   0.234   0.858  12.931 -0.6441  0.2592  0.4628
 3482TIP3   OH231936   2.759   3.036  11.492 -0.2023  0.2721  0.2045
 3482TIP3    H131937   2.798   2.962  11.445  0.3947  0.3524  0.5557
 3482TIP3    H231938   2.667   3.012  11.503 -0.2028 -0.0422 -0.4206
 3483TIP3   OH231939   5.922   3.982   2.435 -0.1157  0.0526 -0.2640
 3483TIP3    H131940   5.829   3.972   2.419 -0.2736  2.5558 -1.4578
 3483TIP3    H231941   5.964   3.919   2.375 -0.9873 -1.5933  0.7929
 3484TIP3   OH231942   6.461   6.614   5.688  0.1352 -0.7590 -0.7617
 3484TIP3    H131943   6.539   6.606   5.742 -0.7278  1.1161  0.9252
 3484TIP3    H231944   6.492   6.655   5.607  0.9805 -0.5177 -0.3315
 3485TIP3   OH231945   3.375   3.767   1.162 -0.3920 -0.0295 -0.1730
 3485TIP3    H131946   3.331   3.740   1.081 -0.3659  0.5022 -0.3716
 3485TIP3    H231947   3.455   3.810   1.132  0.7665 -1.8321  0.2083
 3486TIP3   OH231948   2.816   2.482   2.415  0.3317 -0.0271 -0.4696
 3486TIP3    H131949   2.788   2.447   2.500 -0.7527 -1.2843 -1.3092
 3486TIP3    H231950   2.909   2.500   2.426  0.8320 -2.6257  0.2341
 3487TIP3   OH231951   2.323   3.557   3.965 -0.1566  0.1773 -0.1872
 3487TIP3    H131952   2.238   3.532   3.928  0.1132  0.6962 -1.1877
 3487TIP3    H231953   2.368   3.474   3.980 -1.0988 -0.1508  1.0576
 3488TIP3   OH231954   4.902   2.827   6.166  0.0608 -0.0933 -0.2119
 3488TIP3    H131955   4.900   2.838   6.262 -1.5911 -3.3628  0.2842
 3488TIP3    H231956   4.820   2.868   6.136  0.3473  0.5106 -0.1830
 3489TIP3   OH231957   5.403   2.074   0.148  0.0846  0.0300 -1.0916
 3489TIP3    H131958   5.312   2.100   0.156  0.8990  3.1426 -0.5197
 3489TIP3    H231959   5.444   2.108   0.228  2.1133  0.8057 -2.3760
 3490TIP3   OH231960   3.483   1.963  14.258 -0.4679 -0.7103 -0.4892
 3490TIP3    H131961   3.430   1.943  14.181 -0.4457  0.5759 -0.8594
 3490TIP3    H231962   3.561   2.006  14.223 -1.5560  2.1822  0.3438
 3491TIP3   OH231963   6.605   4.020  10.835 -0.4089 -0.0164 -0.1113
 3491TIP3    H131964   6.644   3.965  10.767 -0.7219  0.4106 -0.6476
 3491TIP3    H231965   6.511   4.002  10.829 -0.8180  2.2010 -1.8356
 3492TIP3   OH231966   5.074   3.134   2.623  0.6428 -0.1825  0.6644
 3492TIP3    H131967   5.080   3.047   2.585  0.7496  0.9889 -2.3545
 3492TIP3    H231968   4.981   3.148   2.636  0.3522  0.1130 -1.3404
 3493TIP3   OH231969   3.143   2.847  13.207 -0.0315 -0.0034  0.1544
 3493TIP3    H131970   3.109   2.778  13.264 -1.5633 -0.3720 -1.1240
 3493TIP3    H231971   3.157   2.921  13.265 -1.4516 -0.3970  1.0674
 3494TIP3   OH231972   4.596   3.811   4.638  0.2140  0.2355 -0.2502
 3494TIP3    H131973   4.636   3.724   4.634 -1.0222 -0.3158 -2.0514
 3494TIP3    H231974   4.667   3.871   4.616  0.5920 -0.5222 -1.1872
 3495TIP3   OH231975   3.092   0.144  16.944  0.7969  0.1496  0.1219
 3495TIP3    H131976   3.021   0.142  17.008  0.2693 -4.5226 -0.2232
 3495TIP3    H231977   3.051   0.177  16.864  0.1239  1.2133  0.8698
 3496TIP3   OH231978   6.283   2.550  14.960  0.5687  0.2661  0.1921
 3496TIP3    H131979   6.253   2.558  15.051 -0.9273 -0.2809 -0.2260
 3496TIP3    H231980   6.203   2.536  14.910  1.5296 -1.1335 -1.0127
 3497TIP3   OH231981   5.687   4.346  14.497  0.1803  0.0344  0.2307
 3497TIP3    H131982   5.642   4.408  14.440 -0.4751 -0.5445  0.1021
 3497TIP3    H231983   5.777   4.345  14.466  0.2372  1.0315  0.3335
 3498TIP3   OH231984   6.168   4.411  12.296  0.2787  0.5469  0.2323
 3498TIP3    H131985   6.220   4.352  12.242 -0.8112  0.8761 -1.2267
 3498TIP3    H231986   6.225   4.488  12.309 -0.2439  1.5164 -2.5077
 3499TIP3   OH231987   3.812   1.100   0.079 -0.8679  0.5774 -0.2608
 3499TIP3    H131988   3.794   1.191   0.054 -0.9653  0.5114 -0.4349
 3499TIP3    H231989   3.788   1.049   0.001 -0.4893  0.4340 -0.2839
 3500TIP3   OH231990   3.329   6.766   6.273 -0.0360 -0.6608  0.0232
 3500TIP3    H131991   3.329   6.735   6.364  1.1587  2.1478  1.0986
 3500TIP3    H231992   3.238   6.792   6.257  0.0885  0.5806  1.1385
 3501TIP3   OH231993   5.036   4.467   5.322  0.3912  0.2936 -0.0902
 3501TIP3    H131994   5.071   4.378   5.325  0.8070  0.4939  1.2795
 3501TIP3    H231995   5.106   4.519   5.283  0.2198  0.0719 -0.7139
 3502TIP3   OH231996   1.578   1.003   0.090  0.3535 -0.2083 -0.1411
 3502TIP3    H131997   1.641   0.993   0.161 -0.3400 -2.3945  0.2370
 3502TIP3    H231998   1.631   1.026   0.013  1.6486 -1.9798  0.1593
 3503TIP3   OH231999   5.661   1.335  13.345  0.1321  0.4005  0.1584
 3503TIP3    H132000   5.718   1.330  13.268 -0.5296  0.6149 -0.3534
 3503TIP3    H232001   5.607   1.256  13.340 -0.2280  0.6449  0.1478
 3504TIP3   OH232002   0.370   1.205  10.426 -0.5615 -0.0908  0.4546
 3504TIP3    H132003   0.309   1.150  10.378 -1.0621  1.1159 -0.3521
 3504TIP3    H232004   0.319   1.283  10.448  0.2739  0.2938  1.0870
 3505TIP3   OH232005   1.915   3.408   3.294 -0.2038 -0.0931 -0.4856
 3505TIP3    H132006   1.848   3.476   3.303  1.0436  1.2027 -0.6480
 3505TIP3    H232007   1.948   3.395   3.382  0.7583  0.8063 -0.6920
 3506TIP3   OH232008   5.149   5.027   3.061 -0.6211 -0.2280 -0.1909
 3506TIP3    H132009   5.195   5.098   3.017  0.3483 -0.2270  0.7476
 3506TIP3    H232010   5.056   5.046   3.050 -0.4146 -0.1291 -2.0100
 3507TIP3   OH232011   6.140   0.211   1.671  0.6118  0.2281 -0.5412
 3507TIP3    H132012   6.220   0.173   1.634  0.8351  1.2372 -1.1274
 3507TIP3    H232013   6.168   0.297   1.705  0.2827 -0.3824  1.4143
 3508TIP3   OH232014   0.936   0.481  15.446 -0.8768 -0.3003 -0.1374
 3508TIP3    H132015   0.880   0.481  15.524 -0.4856  0.3291  0.1492
 3508TIP3    H232016   0.901   0.552  15.392 -0.1256  0.3651  0.2232
 3509TIP3   OH232017   4.589   5.114   4.541  1.0729 -0.1358  0.8011
 3509TIP3    H132018   4.501   5.075   4.542  0.4966  0.8814 -1.9357
 3509TIP3    H232019   4.644   5.049   4.586 -0.7960 -1.4483  1.3374
 3510TIP3   OH232020   4.576   2.945  11.447  0.4403 -0.2924  0.0298
 3510TIP3    H132021   4.591   2.960  11.354  0.5181 -1.7542 -0.2182
 3510TIP3    H232022   4.595   3.029  11.488  2.4016 -0.1316 -1.0487
 3511TIP3   OH232023   2.247   0.842  11.888 -0.4193 -0.0175 -0.0283
 3511TIP3    H132024   2.295   0.826  11.807  0.7691  1.1710  0.3979
 3511TIP3    H232025   2.314   0.872  11.950 -1.4004 -0.2887  1.2137
 3512TIP3   OH232026   3.662   6.079  14.678 -0.4175  0.5958  0.4298
 3512TIP3    H132027   3.732   6.014  14.678 -0.5427  0.4603  0.8963
 3512TIP3    H232028   3.695   6.150  14.732  0.2907  1.5589 -1.1856
 3513TIP3   OH232029   2.278   1.322  11.254  0.9086  0.8604  0.2599
 3513TIP3    H132030   2.353   1.277  11.293  0.4967  1.6237  2.0349
 3513TIP3    H232031   2.277   1.292  11.163  1.9847 -0.9298  0.7843
 3514TIP3   OH232032   4.561   1.779  16.817 -0.3405  0.1086  0.0560
 3514TIP3    H132033   4.654   1.778  16.797 -0.8096 -1.3509 -2.4586
 3514TIP3    H232034   4.542   1.690  16.849 -0.9789  0.2018 -0.0370
 3515TIP3   OH232035   4.379   2.272   0.352 -0.1346 -0.0586 -0.1902
 3515TIP3    H132036   4.470   2.299   0.364 -0.0035  0.8302 -2.6541
 3515TIP3    H232037   4.334   2.308   0.428  1.5734 -0.6788  1.1841
 3516TIP3   OH232038   2.621   3.911  16.221  0.2076  0.3886 -0.8367
 3516TIP3    H132039   2.661   3.963  16.151  1.8901 -0.6666 -0.7304
 3516TIP3    H232040   2.596   3.829  16.179 -1.4563  0.8465 -0.7853
 3517TIP3   OH232041   1.209   4.053   1.352 -0.7930  0.0500  0.7984
 3517TIP3    H132042   1.296   4.088   1.335 -0.9210  0.5058  1.0621
 3517TIP3    H232043   1.223   3.982   1.415 -0.4899 -0.6307 -0.0230
 3518TIP3   OH232044   4.425   4.620  16.519  0.0107  0.6013  0.6166
 3518TIP3    H132045   4.489   4.678  16.479  0.9219  0.3031  1.5960
 3518TIP3    H232046   4.471   4.580  16.593 -0.2711 -1.9886 -0.4683
 3519TIP3   OH232047   6.360   3.390   4.241 -0.3659  0.3269  0.0514
 3519TIP3    H132048   6.266   3.408   4.241 -0.3711  0.3726  1.2466
 3519TIP3    H232049   6.401   3.476   4.249 -0.2373  0.2625  0.0847
 3520TIP3   OH232050   3.234   2.095  16.849  0.0746  0.0511  0.5302
 3520TIP3    H132051   3.208   2.010  16.884  0.7594 -0.0140  0.9050
 3520TIP3    H232052   3.281   2.137  16.921 -0.3502  0.7897  0.3800
 3521TIP3   OH232053   4.231   3.050   2.274 -0.2540 -0.3254 -0.4015
 3521TIP3    H132054   4.318   3.081   2.252 -0.8857  0.7604 -1.4473
 3521TIP3    H232055   4.207   2.992   2.202 -0.5021 -0.4137 -0.2486
 3522TIP3   OH232056   1.000   1.702   0.799  0.5309 -0.6376 -0.8009
 3522TIP3    H132057   0.949   1.782   0.786 -0.4368 -1.2330 -0.7923
 3522TIP3    H232058   0.950   1.652   0.864  1.3059 -1.0924 -0.5457
 3523TIP3   OH232059   2.305   2.103  16.574  0.3583  0.0766  0.6124
 3523TIP3    H132060   2.238   2.047  16.612  0.8393 -0.6070  0.4627
 3523TIP3    H232061   2.309   2.179  16.632 -1.3415  0.6674 -0.0017
 3524TIP3   OH232062   3.457   1.389   1.088  0.0094 -0.1431 -0.4458
 3524TIP3    H132063   3.531   1.389   1.149  0.2706  0.5255 -0.7453
 3524TIP3    H232064   3.483   1.450   1.019 -0.9776  0.4139 -0.3537
 3525TIP3   OH232065   0.965   6.409   4.994 -0.0881  0.0690  0.0970
 3525TIP3    H132066   0.878   6.377   5.017 -0.3851  1.1666  0.5723
 3525TIP3    H232067   1.025   6.344   5.031 -0.7081 -1.4443 -1.4453
 3526TIP3   OH232068   4.422   2.149   4.802 -0.2376  1.1494 -0.4037
 3526TIP3    H132069   4.458   2.186   4.882 -0.7281 -0.0363  0.4024
 3526TIP3    H232070   4.346   2.098   4.832  0.4186 -0.5021 -1.4354
 3527TIP3   OH232071   6.770   4.884   5.437 -0.2061  0.4597 -0.3510
 3527TIP3    H132072   6.757   4.893   5.531 -0.0907  2.6751 -0.5056
 3527TIP3    H232073   6.863   4.864   5.427 -0.2617  0.0116  0.0078
 3528TIP3   OH232074   5.849   3.882   2.851 -0.0386 -0.6657  0.4675
 3528TIP3    H132075   5.761   3.892   2.888  0.2420 -0.1835  1.0211
 3528TIP3    H232076   5.869   3.790   2.863  0.1869 -0.4570  1.8696
 3529TIP3   OH232077   5.578   0.859  13.568 -0.7854 -0.0844 -0.3546
 3529TIP3    H132078   5.523   0.933  13.543 -1.3651 -0.1226  0.7570
 3529TIP3    H232079   5.636   0.846  13.493 -0.6009  1.5586 -0.5210
 3530TIP3   OH232080   1.891   1.227   0.191 -0.5171 -0.3923  0.3607
 3530TIP3    H132081   1.981   1.218   0.221 -0.8883 -1.3534  1.2648
 3530TIP3    H232082   1.852   1.140   0.205 -1.2495 -0.3491 -1.1746
 3531TIP3   OH232083   3.499   3.473  14.716 -0.5900 -0.3610  0.0624
 3531TIP3    H132084   3.512   3.567  14.731 -0.7371 -0.1861 -0.8271
 3531TIP3    H232085   3.578   3.432  14.751 -0.5431  0.0871  0.4946
 3532TIP3   OH232086   2.584   4.327   0.740  0.8842  0.3110  0.0201
 3532TIP3    H132087   2.560   4.297   0.828 -0.3948  1.4675  0.0812
 3532TIP3    H232088   2.604   4.246   0.693  0.1519 -0.4366  0.9509
 3533TIP3   OH232089   4.478   1.367   1.407 -0.4056 -0.0609 -0.1305
 3533TIP3    H132090   4.411   1.305   1.378 -1.6034  1.4037 -0.6341
 3533TIP3    H232091   4.553   1.350   1.350 -1.0685 -0.3938 -0.9200
 3534TIP3   OH232092   6.597   4.133  13.867 -0.2720 -0.4592 -1.1094
 3534TIP3    H132093   6.618   4.226  13.875 -0.3923 -0.4897 -0.4070
 3534TIP3    H232094   6.505   4.131  13.841 -0.7944 -0.3954  0.6295
 3535TIP3   OH232095   2.726   0.661  12.673  0.1086  0.0612 -0.0276
 3535TIP3    H132096   2.720   0.567  12.693  0.7927 -0.0981 -0.5480
 3535TIP3    H232097   2.756   0.701  12.754  0.2158 -0.2258  0.0741
 3536TIP3   OH232098   1.186   3.226  11.384 -0.0308  0.7367 -0.2034
 3536TIP3    H132099   1.254   3.219  11.317  0.7813  0.4410  0.6175
 3536TIP3    H232100   1.111   3.180  11.348  1.5127 -2.5628  0.4387
 3537TIP3   OH232101   6.136   2.818   4.929  0.4191  0.2198  0.2332
 3537TIP3    H132102   6.179   2.833   5.013  0.3377 -2.2317  0.8056
 3537TIP3    H232103   6.199   2.768   4.878  0.1902  1.0663 -0.9252
 3538TIP3   OH232104   0.274   1.091   0.271 -0.1202 -0.3927  0.3503
 3538TIP3    H132105   0.339   1.156   0.296 -1.3825  1.6876 -1.4514
 3538TIP3    H232106   0.192   1.123   0.310 -0.8355 -0.6506 -0.8716
 3539TIP3   OH232107   4.943   2.537  14.394 -0.4063  0.0236  0.4408
 3539TIP3    H132108   5.036   2.556  14.379 -1.0166  1.8402 -1.6264
 3539TIP3    H232109   4.928   2.562  14.485  1.0638 -0.0370  0.7241
 3540TIP3   OH232110   0.113   2.843   4.054 -0.2914  0.6947  0.1805
 3540TIP3    H132111   0.209   2.842   4.061  0.0229 -0.8564 -2.7257
 3540TIP3    H232112   0.082   2.851   4.144  2.5464  2.0763  1.1449
 3541TIP3   OH232113   2.454   0.938  16.175  0.3429 -0.1398  0.2065
 3541TIP3    H132114   2.472   1.016  16.123 -0.8756 -0.2478 -0.3950
 3541TIP3    H232115   2.427   0.871  16.112 -0.5116 -0.4727  0.8896
 3542TIP3   OH232116   5.103   5.632  14.110  0.3037  0.2211  0.5450
 3542TIP3    H132117   5.037   5.681  14.062  0.0870  2.2815  2.7655
 3542TIP3    H232118   5.181   5.686  14.106  0.9864 -0.7436  0.4755
 3543TIP3   OH232119   6.377   2.294   1.760 -0.0443  0.1991  0.7072
 3543TIP3    H132120   6.367   2.241   1.839  0.3541 -0.4459  0.3419
 3543TIP3    H232121   6.470   2.286   1.738 -0.2066  0.1323  0.0130
 3544TIP3   OH232122   1.628   0.313  14.630 -0.2141  0.4828 -0.3130
 3544TIP3    H132123   1.678   0.330  14.550  0.6288  0.6524  0.2332
 3544TIP3    H232124   1.621   0.398  14.673 -1.1254  0.4863 -0.4586
 3545TIP3   OH232125   5.394   1.332   3.497 -0.2950  0.2756 -0.4495
 3545TIP3    H132126   5.401   1.269   3.425  2.5388 -0.9707  0.7353
 3545TIP3    H232127   5.377   1.416   3.454  0.3627 -0.5797 -2.5126
 3546TIP3   OH232128   2.916   4.834  12.657  0.2750  0.2189 -0.0177
 3546TIP3    H132129   2.960   4.915  12.633 -0.3676  0.0460 -1.9742
 3546TIP3    H232130   2.984   4.781  12.699  0.5069  2.0173  2.1057
 3547TIP3   OH232131   0.793   1.988  14.977  0.4553 -0.2913  0.0623
 3547TIP3    H132132   0.761   1.922  15.038  2.2445 -0.9647  0.3275
 3547TIP3    H232133   0.819   2.062  15.032  1.4572 -0.6444  0.0872
 3548TIP3   OH232134   1.669   2.373  10.946  0.3347 -0.0012 -0.0270
 3548TIP3    H132135   1.758   2.355  10.974  0.5483 -0.2520 -0.8207
 3548TIP3    H232136   1.675   2.455  10.896 -0.2252  1.0324  1.5424
 3549TIP3   OH232137   0.906   0.878   4.974  0.1132 -0.4527  0.5391
 3549TIP3    H132138   0.989   0.870   4.927 -0.0646  0.5322  0.0357
 3549TIP3    H232139   0.846   0.918   4.911 -0.8407 -1.4319  0.7947
 3550TIP3   OH232140   0.356   2.259  12.982 -0.1445  0.3457 -0.4458
 3550TIP3    H132141   0.334   2.240  12.891 -0.7542 -0.0160 -0.2252
 3550TIP3    H232142   0.415   2.335  12.977  0.3086 -0.0468 -1.1728
 3551TIP3   OH232143   6.069   6.102   0.416 -0.6228 -0.1971 -0.0503
 3551TIP3    H132144   6.045   6.080   0.506 -0.9145 -0.8581 -0.2838
 3551TIP3    H232145   6.127   6.178   0.424 -2.4695  1.2179  0.5597
 3552TIP3   OH232146   1.118   2.787  11.217  0.2089 -0.1394 -0.0906
 3552TIP3    H132147   1.153   2.876  11.218  0.4871 -0.2483  0.0336
 3552TIP3    H232148   1.157   2.746  11.294 -0.6163 -0.0998  0.3563
 3553TIP3   OH232149   0.022   0.109  11.012 -0.1914 -0.2138 -0.2525
 3553TIP3    H132150   0.088   0.143  11.073 -2.7619  1.2682  1.9455
 3553TIP3    H232151   0.058   0.026  10.981  2.3723  0.1995  1.3537
 3554TIP3   OH232152   1.339   6.184  17.136  0.1947 -0.1301 -0.0061
 3554TIP3    H132153   1.264   6.243  17.129  0.3647  0.3311  1.6598
 3554TIP3    H232154   1.314   6.121  17.204  0.9965 -0.4403  0.0109
 3555TIP3   OH232155   6.355   3.069   4.993 -0.3859 -0.0362 -0.5630
 3555TIP3    H132156   6.441   3.104   5.015 -0.6039  0.4427 -0.4725
 3555TIP3    H232157   6.296   3.143   5.002 -1.4637 -1.1493  3.2135
 3556TIP3   OH232158   4.953   5.984  13.897  0.0492  0.0050  0.1589
 3556TIP3    H132159   4.911   6.070  13.897  0.6077  0.2912  1.5546
 3556TIP3    H232160   4.974   5.968  13.805  1.1195  1.9507  0.0115
 3557TIP3   OH232161   2.764   3.174   3.600  0.4068 -0.3163  0.4138
 3557TIP3    H132162   2.742   3.105   3.663 -3.1074  0.7111  0.4736
 3557TIP3    H232163   2.689   3.179   3.541  1.0365  2.6348 -0.3201
 3558TIP3   OH232164   0.769   2.150  12.440 -0.7606  0.1486  0.0058
 3558TIP3    H132165   0.688   2.194  12.466 -0.7826  0.2831 -0.2931
 3558TIP3    H232166   0.742   2.084  12.376 -0.5005  0.9714 -0.9775
 3559TIP3   OH232167   6.309   4.778   2.451  0.4256  0.1688 -0.0505
 3559TIP3    H132168   6.245   4.828   2.401  0.8563  0.7463 -0.0381
 3559TIP3    H232169   6.272   4.690   2.457  0.3202  0.1148 -1.3024
 3560TIP3   OH232170   1.747   6.150  13.864  0.2234 -0.0843  0.2268
 3560TIP3    H132171   1.732   6.222  13.803 -0.4902 -0.2116  0.2478
 3560TIP3    H232172   1.662   6.133  13.903  0.2247 -1.3976 -0.2792
 3561TIP3   OH232173   1.641   2.741   4.852  0.4487 -0.4549 -0.9668
 3561TIP3    H132174   1.600   2.705   4.931  0.3087 -0.7529 -1.1742
 3561TIP3    H232175   1.687   2.667   4.813  0.1419 -0.4128 -1.4070
 3562TIP3   OH232176   4.737   4.445  14.144 -0.0964 -0.1697 -1.0732
 3562TIP3    H132177   4.642   4.439  14.147 -0.2555  1.6593  2.0164
 3562TIP3    H232178   4.768   4.358  14.167 -1.1285 -0.1243  0.6205
 3563TIP3   OH232179   3.615   3.772   5.127  0.3379 -0.3040  0.2350
 3563TIP3    H132180   3.546   3.838   5.139  0.1976  0.4055 -3.2350
 3563TIP3    H232181   3.696   3.822   5.120  0.2124 -0.3020 -2.5922
 3564TIP3   OH232182   4.327   1.564   3.888  0.3738  0.0713 -0.1268
 3564TIP3    H132183   4.271   1.634   3.855  0.3362  0.0441 -0.1200
 3564TIP3    H232184   4.404   1.609   3.924 -1.1709  0.4102  3.1105
 3565TIP3   OH232185   2.633   3.646   3.560 -0.3506 -0.0068 -0.4703
 3565TIP3    H132186   2.540   3.627   3.573 -0.1377 -1.1807 -0.5693
 3565TIP3    H232187   2.639   3.677   3.470 -0.4472 -1.3983 -0.9729
 3566TIP3   OH232188   5.294   1.752   6.273  0.3593  0.0813  0.2900
 3566TIP3    H132189   5.335   1.783   6.192  2.5767 -0.0831  1.2547
 3566TIP3    H232190   5.346   1.793   6.343 -1.2872 -0.0242  1.6390
 3567TIP3   OH232191   0.598   0.950  16.576  0.1193 -0.2763  0.2912
 3567TIP3    H132192   0.511   0.982  16.552 -1.5064 -3.9616  0.5642
 3567TIP3    H232193   0.610   0.980  16.666 -1.8127 -1.2372  0.9465
 3568TIP3   OH232194   4.902   5.415  16.785 -0.0060 -0.1631 -0.1256
 3568TIP3    H132195   4.939   5.460  16.861  0.9132 -2.8706  1.1230
 3568TIP3    H232196   4.968   5.427  16.716  0.4807 -0.0874  0.3448
 3569TIP3   OH232197   5.595   1.150  17.059 -0.3178 -0.0059 -0.3163
 3569TIP3    H132198   5.679   1.129  17.016 -0.0816  0.6035 -0.1623
 3569TIP3    H232199   5.562   1.226  17.011 -1.3551 -0.9261 -1.1130
 3570TIP3   OH232200   1.405   3.299   5.318  0.1385 -0.2020 -0.7706
 3570TIP3    H132201   1.325   3.345   5.344 -0.3092  0.1552 -2.6514
 3570TIP3    H232202   1.465   3.312   5.391 -1.3746 -0.1195  0.5040
 3571TIP3   OH232203   4.682   2.441   4.533  0.1946 -0.3928  0.0408
 3571TIP3    H132204   4.719   2.469   4.617  1.1754  0.9675 -0.7998
 3571TIP3    H232205   4.654   2.351   4.549  2.2815 -0.9150  1.2677
 3572TIP3   OH232206   1.329   0.207   4.780  0.0425  0.2198  0.0477
 3572TIP3    H132207   1.331   0.143   4.709 -0.2818  0.1489  0.1000
 3572TIP3    H232208   1.237   0.209   4.808  0.2630 -0.1597  0.8251
 3573TIP3   OH232209   5.387   5.948  12.180  0.2877  0.5190  0.1484
 3573TIP3    H132210   5.464   5.908  12.139  0.5162  0.4779  0.6029
 3573TIP3    H232211   5.352   6.007  12.114  0.0564 -0.2905 -0.4761
 3574TIP3   OH232212   5.906   1.665   4.826  0.3907  0.2445 -0.2492
 3574TIP3    H132213   5.840   1.671   4.757 -1.2641  1.4387  1.3442
 3574TIP3    H232214   5.882   1.586   4.875  1.9340 -0.9546 -1.3597
 3575TIP3   OH232215   2.221   4.277   2.303  0.2619  0.1989  0.3849
 3575TIP3    H132216   2.143   4.323   2.272 -0.0785 -0.4360  0.2911
 3575TIP3    H232217   2.192   4.232   2.383  0.8488  0.9404  1.0335
 3576TIP3   OH232218   5.253   6.760   3.660 -0.2250  0.1846 -0.1365
 3576TIP3    H132219   5.215   6.848   3.661 -0.4556  0.0843  0.3268
 3576TIP3    H232220   5.254   6.734   3.752 -0.3787 -0.3961 -0.2985
 3577TIP3   OH232221   3.723   2.199   4.000 -0.2086  0.1612  0.2243
 3577TIP3    H132222   3.662   2.138   4.042 -0.4745  0.6784  0.5921
 3577TIP3    H232223   3.673   2.237   3.928  0.2544 -0.7439 -0.6072
 3578TIP3   OH232224   3.336   4.355   6.433  0.3002 -0.5165  0.4843
 3578TIP3    H132225   3.385   4.273   6.431  2.2158  0.5392  1.4733
 3578TIP3    H232226   3.373   4.407   6.362 -0.4690 -0.2762  0.2521
 3579TIP3   OH232227   6.059   2.020  11.292 -0.0256 -0.2377 -0.2625
 3579TIP3    H132228   6.069   2.070  11.373 -0.9333  0.7525 -0.7239
 3579TIP3    H232229   5.964   2.010  11.282  0.0584 -0.0593 -1.3436
 3580TIP3   OH232230   5.062   4.051  13.978  0.5087 -0.6468 -0.5866
 3580TIP3    H132231   5.019   4.102  14.046  1.2679 -2.3709  1.3063
 3580TIP3    H232232   5.081   4.114  13.909 -0.3650  1.1858  0.7579
 3581TIP3   OH232233   5.545   0.165   3.463 -0.8494 -0.3576 -0.1282
 3581TIP3    H132234   5.465   0.111   3.466 -3.1076  2.6295 -1.4334
 3581TIP3    H232235   5.533   0.228   3.534 -0.3500  1.0064 -1.2315
 3582TIP3   OH232236   6.367   4.667   0.679 -0.6063 -0.0087 -0.1265
 3582TIP3    H132237   6.285   4.685   0.725 -0.7187 -0.7381 -0.0313
 3582TIP3    H232238   6.411   4.601   0.734  0.4452  0.9943  0.2829
 3583TIP3   OH232239   0.633   1.248   1.085  0.0179  0.3071  0.1706
 3583TIP3    H132240   0.723   1.264   1.057  1.4052 -3.6353  1.6292
 3583TIP3    H232241   0.596   1.189   1.019 -0.9224  0.5202  0.4791
 3584TIP3   OH232242   1.782   0.667  16.001 -0.0023  0.1069  0.2220
 3584TIP3    H132243   1.729   0.622  16.066 -1.3639  2.3088  0.7526
 3584TIP3    H232244   1.850   0.604  15.977 -0.9747 -1.6734  1.8731
 3585TIP3   OH232245   4.163   0.115   2.167 -0.6320  0.4987 -0.1608
 3585TIP3    H132246   4.181   0.024   2.189  1.0862  0.4340 -1.6316
 3585TIP3    H232247   4.138   0.155   2.251 -0.9483 -1.1882  0.5930
 3586TIP3   OH232248   0.012   2.124   3.595 -0.0513  0.4550  0.2450
 3586TIP3    H132249   0.005   2.184   3.521  0.3113 -0.0031 -0.1726
 3586TIP3    H232250   0.094   2.148   3.638  0.2789  0.0377 -0.1355
 3587TIP3   OH232251   0.214   1.915  16.295 -0.2218  0.1339  0.2993
 3587TIP3    H132252   0.118   1.907  16.298 -0.0549 -3.6683  2.4889
 3587TIP3    H232253   0.242   1.897  16.384  2.5989 -0.2403 -0.5717
 3588TIP3   OH232254   1.702   0.798   0.855  0.3605  0.5409  0.3751
 3588TIP3    H132255   1.665   0.881   0.884  0.2167  0.5701  0.1122
 3588TIP3    H232256   1.767   0.822   0.789 -1.3915  0.3342 -1.5144
 3589TIP3   OH232257   5.767   6.274  16.852  0.2255 -0.0272 -0.2632
 3589TIP3    H132258   5.817   6.325  16.915 -1.3417 -2.1780  3.0198
 3589TIP3    H232259   5.815   6.191  16.845 -0.9380 -0.7722  0.1912
 3590TIP3   OH232260   3.022   0.247  11.271 -0.5430  0.2924 -0.9925
 3590TIP3    H132261   2.975   0.231  11.189 -0.9304  0.0684 -0.7291
 3590TIP3    H232262   2.966   0.309  11.318  0.8048  2.2698 -1.8906
 3591TIP3   OH232263   1.847   2.874   0.049  0.5127 -0.4713  0.4453
 3591TIP3    H132264   1.891   2.802   0.095  3.2146  0.1461 -0.9435
 3591TIP3    H232265   1.881   2.953   0.090  1.6058  0.0529 -1.3511
 3592TIP3   OH232266   6.397   2.494   1.989 -0.1843 -0.0332  0.3473
 3592TIP3    H132267   6.459   2.422   2.001 -1.3555 -0.9992  0.7147
 3592TIP3    H232268   6.447   2.572   2.014  1.1315 -0.6757 -0.1474
 3593TIP3   OH232269   0.917   5.852   5.921 -0.2908 -0.4776 -0.3499
 3593TIP3    H132270   0.899   5.888   5.834 -2.8949  1.2543  0.7713
 3593TIP3    H232271   0.934   5.759   5.905 -1.1715 -0.3182 -2.6717
 3594TIP3   OH232272   3.056   1.354  15.010 -0.0324 -0.6164 -0.2991
 3594TIP3    H132273   3.118   1.405  14.959  0.2246  0.0876  0.6982
 3594TIP3    H232274   3.048   1.401  15.093  0.3908 -2.3092  0.7426
 3595TIP3   OH232275   6.642   6.401   5.070 -0.4876 -0.1513  0.9457
 3595TIP3    H132276   6.586   6.407   5.147 -1.2316  0.5656  0.3758
 3595TIP3    H232277   6.674   6.491   5.056 -0.8293 -0.1467  0.1012
 3596TIP3   OH232278   0.303   6.065  15.650 -0.0720  0.7958 -0.4637
 3596TIP3    H132279   0.391   6.078  15.614  0.6773 -0.7629  0.6618
 3596TIP3    H232280   0.299   6.124  15.725  0.6431 -0.2218  0.4128
 3597TIP3   OH232281   1.493   6.659  14.094  0.4084 -0.3761  0.3566
 3597TIP3    H132282   1.406   6.697  14.081  1.1467  1.3487  0.2337
 3597TIP3    H232283   1.518   6.687  14.182  0.3435 -1.9578  0.9152
 3598TIP3   OH232284   1.503   5.197   5.153  0.5095  0.4079 -0.2707
 3598TIP3    H132285   1.562   5.261   5.193  0.5284 -0.6530  1.5246
 3598TIP3    H232286   1.477   5.140   5.226  0.0756 -1.3059 -1.6866
 3599TIP3   OH232287   4.883   1.324  15.509 -0.2748  0.6338 -0.5069
 3599TIP3    H132288   4.836   1.342  15.428 -0.2074 -0.8002 -0.8879
 3599TIP3    H232289   4.879   1.407  15.558 -0.7798  1.3528 -1.7236
 3600TIP3   OH232290   0.410   2.347   0.817  0.8791  0.1432  0.8738
 3600TIP3    H132291   0.349   2.276   0.793 -0.4483  0.6572  2.5071
 3600TIP3    H232292   0.497   2.307   0.810  0.2070 -1.4443  1.0794
 3601TIP3   OH232293   1.715   4.835  17.025 -0.3100  0.3257 -0.2612
 3601TIP3    H132294   1.802   4.796  17.014 -0.1259  0.8004 -0.5161
 3601TIP3    H232295   1.700   4.834  17.120  1.4311  3.3041  0.1635
 3602TIP3   OH232296   4.495   2.252   3.430  0.0670 -0.3418 -0.5850
 3602TIP3    H132297   4.563   2.309   3.393  1.6091 -2.4762 -1.2191
 3602TIP3    H232298   4.422   2.258   3.368 -0.0472  1.3109 -0.3485
 3603TIP3   OH232299   3.427   4.329   3.972 -0.5465 -0.0081 -0.6028
 3603TIP3    H132300   3.408   4.236   3.989  0.0084 -0.0781 -0.3226
 3603TIP3    H232301   3.454   4.331   3.880 -2.8731  0.2601 -1.3451
 3604TIP3   OH232302   2.015   1.293   3.780  0.0928 -0.0817  0.3390
 3604TIP3    H132303   2.038   1.362   3.718 -3.6707  1.7528  0.7501
 3604TIP3    H232304   2.038   1.212   3.735  1.6027  1.2879 -1.5265
 3605TIP3   OH232305   2.099   5.010  14.286 -0.6614 -0.1082 -0.1812
 3605TIP3    H132306   2.082   5.090  14.335 -0.6380  0.4433 -1.0413
 3605TIP3    H232307   2.173   5.032  14.229 -0.1584 -0.9822  0.1152
 3606TIP3   OH232308   5.198   1.675   2.071 -0.1734 -0.2220 -0.6761
 3606TIP3    H132309   5.256   1.694   1.996 -1.4565 -0.3399 -1.7349
 3606TIP3    H232310   5.234   1.727   2.142  1.2996 -0.3781 -1.2693
 3607TIP3   OH232311   0.551   1.481  11.137 -0.0860  0.6171  0.1294
 3607TIP3    H132312   0.482   1.460  11.200 -1.4109  1.3574 -1.0437
 3607TIP3    H232313   0.506   1.524  11.065  1.2270 -1.0644 -1.8087
 3608TIP3   OH232314   5.098   3.798  13.433  0.1601  0.0793 -0.2025
 3608TIP3    H132315   5.069   3.714  13.466 -0.2862  0.8129  1.3830
 3608TIP3    H232316   5.059   3.805  13.346 -2.3638 -0.0750  0.8327
 3609TIP3   OH232317   4.523   0.824   5.333 -0.2859 -0.3767  0.3592
 3609TIP3    H132318   4.479   0.743   5.359 -0.9239  0.6257  2.6029
 3609TIP3    H232319   4.503   0.833   5.239 -0.4790 -2.6053  0.1327
 3610TIP3   OH232320   4.903   6.029  12.437 -0.1927 -0.3738  0.4639
 3610TIP3    H132321   4.927   6.103  12.381  0.1818 -0.3797  0.6099
 3610TIP3    H232322   4.943   6.049  12.521  1.8014 -1.7425 -0.0619
 3611TIP3   OH232323   1.693   0.013   1.197 -0.1711  0.1078 -0.1990
 3611TIP3    H132324   1.690   0.007   1.102  0.4050 -2.0897 -0.1204
 3611TIP3    H232325   1.785   0.024   1.218 -0.3149  0.7849  0.1203
 3612TIP3   OH232326   1.102   2.935   3.574 -0.5381 -0.4207  0.2384
 3612TIP3    H132327   1.067   2.852   3.542 -0.0146  0.1439 -1.9681
 3612TIP3    H232328   1.026   2.981   3.609 -0.7820 -1.9215  1.8424
 3613TIP3   OH232329   4.597   0.367   4.441  0.3173 -0.3278  0.0404
 3613TIP3    H132330   4.627   0.449   4.402 -1.6650  1.0821  1.3208
 3613TIP3    H232331   4.515   0.347   4.395  0.4660 -1.2833  0.1649
 3614TIP3   OH232332   3.909   2.369   3.068 -0.2224 -0.5745 -0.1306
 3614TIP3    H132333   3.958   2.401   2.992  0.3129 -0.3713  0.2931
 3614TIP3    H232334   3.832   2.425   3.072 -0.8077 -1.2647 -1.1474
 3615TIP3   OH232335   4.536   1.983   3.445  0.0956 -0.5557  0.1981
 3615TIP3    H132336   4.510   1.926   3.518 -0.2263 -0.0347  0.5002
 3615TIP3    H232337   4.510   2.071   3.474  0.6852 -0.2442 -0.2121
 3616TIP3   OH232338   5.006   6.250   2.448  1.0161  0.0083  0.0472
 3616TIP3    H132339   4.973   6.303   2.521 -0.7125  0.8200 -1.2408
 3616TIP3    H232340   4.959   6.167   2.457 -1.0135  0.9166 -1.3805
 3617TIP3   OH232341   1.273   3.156   0.431  0.0513 -0.5448  0.2996
 3617TIP3    H132342   1.185   3.186   0.453 -0.2959 -0.5107 -1.0946
 3617TIP3    H232343   1.263   3.063   0.410 -0.3579  0.1756 -3.3189
 3618TIP3   OH232344   1.664   6.038  11.226  0.0422 -0.7673 -0.2355
 3618TIP3    H132345   1.759   6.039  11.230  0.0257  0.7773  1.5503
 3618TIP3    H232346   1.643   6.023  11.134  2.0623  1.4844 -1.1813
 3619TIP3   OH232347   4.339   2.782   4.788  0.5893  0.3617  0.5583
 3619TIP3    H132348   4.257   2.826   4.763  0.5036 -0.0215  0.1470
 3619TIP3    H232349   4.315   2.690   4.795  0.9184  0.2905  0.7514
 3620TIP3   OH232350   2.696   3.300  10.926 -0.1256  0.1131  0.1927
 3620TIP3    H132351   2.734   3.370  10.874 -0.2535 -1.1082 -1.6366
 3620TIP3    H232352   2.601   3.314  10.919 -0.3188 -1.6116 -2.4181
 3621TIP3   OH232353   5.847   0.060  16.817 -0.3648 -0.0668 -0.5660
 3621TIP3    H132354   5.807  -0.000  16.880 -1.3494 -0.7569 -1.8008
 3621TIP3    H232355   5.918   0.101  16.865 -0.5689 -1.1742  0.7438
 3622TIP3   OH232356   2.533   5.771  16.774 -0.5773 -0.0121 -0.2156
 3622TIP3    H132357   2.464   5.823  16.732  0.8772  2.7837  0.6612
 3622TIP3    H232358   2.514   5.776  16.867  0.7321  0.7621  0.0380
 3623TIP3   OH232359   1.931   3.750   4.862  0.3840  0.4938 -0.1714
 3623TIP3    H132360   1.985   3.761   4.784 -0.0009 -0.1901 -0.5311
 3623TIP3    H232361   1.995   3.735   4.932  0.6422 -2.9123 -0.9992
 3624TIP3   OH232362   4.996   4.993  13.044 -0.1398  0.0874 -0.7134
 3624TIP3    H132363   5.078   5.035  13.017 -0.2648  0.3100 -0.7440
 3624TIP3    H232364   5.002   4.904  13.009  0.3344 -0.0724 -0.2526
 3625TIP3   OH232365   4.882   1.354  14.153  0.0585 -0.6244  0.2583
 3625TIP3    H132366   4.955   1.416  14.156 -0.3612 -0.0418 -0.6753
 3625TIP3    H232367   4.808   1.407  14.122 -0.5793 -1.3574  0.5052
 3626TIP3   OH232368   1.611   1.283  12.104  0.5341 -0.0703 -0.2516
 3626TIP3    H132369   1.684   1.302  12.162  0.7613  0.5225 -0.7096
 3626TIP3    H232370   1.533   1.300  12.157  0.7275 -0.7197  0.2430
 3627TIP3   OH232371   6.060   6.070   2.786  0.0712  0.7173  0.4002
 3627TIP3    H132372   6.068   6.010   2.712  0.5913  0.2847  0.7900
 3627TIP3    H232373   5.972   6.106   2.780 -0.4248 -0.4446  0.4149
 3628TIP3   OH232374   4.526   6.365   6.494 -0.2017 -0.4688  0.0011
 3628TIP3    H132375   4.471   6.290   6.472 -1.3377  0.2676  0.2372
 3628TIP3    H232376   4.559   6.346   6.582  2.4359 -2.3184 -1.2658
 3629TIP3   OH232377   3.570   5.029   6.202  0.4519  0.0898 -0.0806
 3629TIP3    H132378   3.534   4.941   6.201 -0.8896  0.6185 -0.4276
 3629TIP3    H232379   3.661   5.018   6.173  0.2180 -1.1311 -0.4128
 3630TIP3   OH232380   1.190   2.661  12.412  0.3573  0.2130  0.2131
 3630TIP3    H132381   1.248   2.652  12.336 -1.2764 -1.5049 -0.9436
 3630TIP3    H232382   1.103   2.669  12.373 -0.4054  0.4129  1.9104
 3631TIP3   OH232383   5.877   4.468  15.167 -0.1145 -0.0805  0.0945
 3631TIP3    H132384   5.860   4.562  15.165  0.3545 -0.0004 -0.4867
 3631TIP3    H232385   5.923   4.454  15.250  0.9266  0.4176 -0.3754
 3632TIP3   OH232386   4.114   6.419   0.303 -0.1719  0.0664 -0.4669
 3632TIP3    H132387   4.147   6.349   0.358 -0.8278 -0.8967 -1.2701
 3632TIP3    H232388   4.187   6.439   0.244 -0.6260 -1.3371 -1.5480
 3633TIP3   OH232389   1.660   4.011  16.424 -0.2462 -0.9648 -0.0834
 3633TIP3    H132390   1.748   4.048  16.435 -0.5507  0.2426 -1.4307
 3633TIP3    H232391   1.602   4.075  16.464 -0.5978 -1.1407 -0.3120
 3634TIP3   OH232392   5.895   3.136  15.314 -0.4621  0.6737 -0.3591
 3634TIP3    H132393   5.865   3.077  15.383 -1.4922  0.8899 -0.6050
 3634TIP3    H232394   5.967   3.185  15.353 -0.8691  0.6179  0.4753
 3635TIP3   OH232395   3.205   5.719   2.244  0.1395 -0.2162 -0.3067
 3635TIP3    H132396   3.202   5.662   2.167  1.2972  0.0315 -0.5555
 3635TIP3    H232397   3.114   5.742   2.260 -0.2842 -1.5567 -0.6320
 3636TIP3   OH232398   1.622   4.956   5.821  0.5046  0.4282  0.0604
 3636TIP3    H132399   1.577   4.964   5.905  1.9959 -3.4145  1.4468
 3636TIP3    H232400   1.559   4.914   5.763  0.6967 -0.5259  0.5218
 3637TIP3   OH232401   4.387   0.563   6.424  0.6986  0.5079  0.4354
 3637TIP3    H132402   4.456   0.512   6.380  0.8798  1.4439 -0.3917
 3637TIP3    H232403   4.348   0.501   6.486 -0.1055 -1.1225 -1.5863
 3638TIP3   OH232404   3.015   6.279  16.806 -0.3862  0.3116 -0.0989
 3638TIP3    H132405   3.046   6.287  16.896 -0.2729 -0.8371 -0.0196
 3638TIP3    H232406   3.034   6.188  16.782 -2.6115 -0.1285 -0.4436
 3639TIP3   OH232407   4.240   3.990  12.103  1.0647  0.7447  0.4939
 3639TIP3    H132408   4.150   4.012  12.080  1.9325  1.3599 -2.8083
 3639TIP3    H232409   4.279   4.074  12.129  1.0619  0.7353  0.5279
 3640TIP3   OH232410   6.687   1.425  13.775  0.4584  0.6968  0.5491
 3640TIP3    H132411   6.667   1.400  13.685  2.4683 -0.3314  0.3199
 3640TIP3    H232412   6.610   1.472  13.805 -0.9253 -0.3672 -1.1582
 3641TIP3   OH232413   5.564   1.770  11.077  0.4945 -0.4825  0.2286
 3641TIP3    H132414   5.583   1.863  11.063 -1.0854 -0.1663 -0.0162
 3641TIP3    H232415   5.481   1.770  11.126 -0.6300 -1.7603 -1.5615
 3642TIP3   OH232416   4.474   1.040   0.939 -0.1358 -0.4878 -0.1357
 3642TIP3    H132417   4.455   0.970   1.002  3.2423 -0.2417  1.3457
 3642TIP3    H232418   4.500   0.993   0.859  0.6757 -0.8970  0.3641
 3643TIP3   OH232419   0.453   5.520   2.761 -0.0294  0.0897  0.4292
 3643TIP3    H132420   0.385   5.568   2.808 -1.2311 -0.9609 -0.1884
 3643TIP3    H232421   0.429   5.428   2.770  1.8588 -0.3978  1.0202
 3644TIP3   OH232422   3.622   1.895   1.925 -0.3852  0.5159 -0.4849
 3644TIP3    H132423   3.705   1.931   1.893 -0.0447  0.7006  0.5758
 3644TIP3    H232424   3.647   1.836   1.996 -1.2094  1.3208  0.5054
 3645TIP3   OH232425   6.363   1.345   5.323 -0.5306  0.0844  0.0701
 3645TIP3    H132426   6.374   1.250   5.333 -0.1437  0.2492  1.3860
 3645TIP3    H232427   6.351   1.377   5.413 -0.2071  1.3372 -0.3221
 3646TIP3   OH232428   1.377   5.959   1.789  0.1499 -0.4465  0.2320
 3646TIP3    H132429   1.419   6.001   1.863 -1.2732 -0.9004  1.3457
 3646TIP3    H232430   1.349   6.031   1.733  1.9775 -0.1260 -0.3382
 3647TIP3   OH232431   4.973   5.731  15.751  0.2292 -0.1125 -0.1983
 3647TIP3    H132432   5.023   5.717  15.831 -0.3342  0.0699  0.1934
 3647TIP3    H232433   4.947   5.823  15.755  0.2442 -0.0891 -0.6160
 3648TIP3   OH232434   5.097   1.959  17.205  0.3806 -0.0912  0.4547
 3648TIP3    H132435   5.055   1.933  17.287 -0.4992 -1.7440 -0.4760
 3648TIP3    H232436   5.047   2.035  17.175  0.2060  0.0291  1.0405
 3649TIP3   OH232437   5.121   4.853   5.169  0.4213  0.1156  0.8457
 3649TIP3    H132438   5.037   4.806   5.169 -0.4418  1.3631 -2.4257
 3649TIP3    H232439   5.184   4.789   5.135  0.0734  0.1225  0.1636
 3650TIP3   OH232440   1.995   1.091   1.237  0.9852  0.6198 -0.0897
 3650TIP3    H132441   1.986   1.084   1.332  0.8501  1.0364 -0.0726
 3650TIP3    H232442   1.954   1.174   1.214  2.7533  1.4852 -0.2860
 3651TIP3   OH232443   6.163   3.937  15.992  0.0915 -0.2488  0.1333
 3651TIP3    H132444   6.147   4.004  15.926  0.5929 -0.1985  0.0570
 3651TIP3    H232445   6.253   3.954  16.022 -0.4203  0.2433  1.4254
 3652TIP3   OH232446   0.303   5.718  11.717 -0.4038  0.5082  0.1594
 3652TIP3    H132447   0.247   5.714  11.640 -0.5681 -0.9990  0.3360
 3652TIP3    H232448   0.269   5.793  11.767 -0.9012  0.9077 -0.7469
 3653TIP3   OH232449   6.353   5.286   4.502 -0.5479 -0.0847  0.7588
 3653TIP3    H132450   6.439   5.324   4.521 -0.8539  0.3795  1.2325
 3653TIP3    H232451   6.363   5.248   4.415 -0.0418  0.5175  0.5438
 3654TIP3   OH232452   6.272   6.474   0.111  0.5782  0.1309 -0.1182
 3654TIP3    H132453   6.329   6.549   0.094 -1.0819  1.4996  0.0883
 3654TIP3    H232454   6.197   6.510   0.158 -0.5833 -1.5451 -0.5647
 3655TIP3   OH232455   5.298   2.974   2.037  0.1146  0.1847 -0.6271
 3655TIP3    H132456   5.318   2.935   2.122 -1.2523 -0.3526 -0.5293
 3655TIP3    H232457   5.248   3.053   2.058 -0.0310  0.1720 -0.9232
 3656TIP3   OH232458   4.190   5.677   2.820  0.1638 -0.1174 -0.1086
 3656TIP3    H132459   4.212   5.615   2.890  0.7049  2.1531  1.8453
 3656TIP3    H232460   4.099   5.701   2.837  0.0879 -0.0506 -0.6060
 3657TIP3   OH232461   3.225   2.361  16.719  0.6147 -0.2704 -0.2251
 3657TIP3    H132462   3.232   2.404  16.804  1.0084  2.1910 -1.4181
 3657TIP3    H232463   3.235   2.268  16.739  1.7854  0.2929  2.2859
 3658TIP3   OH232464   3.982   0.308   5.403 -0.4159 -0.4498  0.4040
 3658TIP3    H132465   3.941   0.313   5.489 -1.5260 -0.3418 -0.1169
 3658TIP3    H232466   3.940   0.233   5.361 -1.6906  0.9598 -0.9433
 3659TIP3   OH232467   5.285   3.303   0.686  0.1171  0.2427  0.6965
 3659TIP3    H132468   5.341   3.270   0.756  0.6140 -0.2663  0.0707
 3659TIP3    H232469   5.286   3.398   0.697  0.4916  0.1866  1.1525
 3660TIP3   OH232470   4.443   5.190   1.868 -0.2531  0.0791  0.0220
 3660TIP3    H132471   4.476   5.277   1.848  0.6078  0.1363  1.5628
 3660TIP3    H232472   4.479   5.134   1.798  0.4259  0.7046 -0.1421
 3661TIP3   OH232473   6.066   4.070  15.691  0.3273 -0.3366  0.9160
 3661TIP3    H132474   6.103   3.994  15.647  0.8008 -0.1187  0.9306
 3661TIP3    H232475   5.983   4.086  15.646  0.8216 -0.0905  0.0561
 3662TIP3   OH232476   4.675   4.939   5.367 -0.2413  0.2347  0.7505
 3662TIP3    H132477   4.724   5.003   5.315  2.5556 -0.4662  2.3205
 3662TIP3    H232478   4.742   4.892   5.418 -2.2356 -3.1891  0.5494
 3663TIP3   OH232479   4.281   5.612  14.932 -0.0261  0.3714  0.4479
 3663TIP3    H132480   4.299   5.519  14.919 -1.1139  0.4320 -1.9400
 3663TIP3    H232481   4.312   5.630  15.021  4.0944 -1.2813 -0.4505
 3664TIP3   OH232482   0.052   1.502  16.471  0.2106 -0.2579  0.0327
 3664TIP3    H132483   0.143   1.509  16.443  1.1022 -2.1521  2.1333
 3664TIP3    H232484   0.014   1.435  16.414  0.4904 -0.3712 -0.0207
 3665TIP3   OH232485   5.967   3.559  10.530 -0.2962  0.3176 -0.4650
 3665TIP3    H132486   6.010   3.640  10.559 -1.4275  0.8874 -0.2855
 3665TIP3    H232487   6.003   3.542  10.444  1.6082 -0.2433  0.3940
 3666TIP3   OH232488   3.016   3.507  14.743  0.0756 -0.2924 -0.0962
 3666TIP3    H132489   2.922   3.504  14.729  0.1998 -0.9455 -0.8220
 3666TIP3    H232490   3.026   3.528  14.836 -0.7717  2.8323 -0.6119
 3667TIP3   OH232491   1.498   1.031   1.624 -0.8611 -0.5306 -0.1532
 3667TIP3    H132492   1.500   1.015   1.530 -2.2388  0.2923 -0.3524
 3667TIP3    H232493   1.515   0.946   1.663 -1.6211 -1.1736 -1.1595
 3668TIP3   OH232494   6.231   2.258   2.068 -0.0817 -0.0534 -0.1560
 3668TIP3    H132495   6.138   2.242   2.050 -0.2413  1.2231 -0.5162
 3668TIP3    H232496   6.248   2.346   2.034  1.9622 -1.3091 -2.7736
 3669TIP3   OH232497   5.357   4.436   0.965  0.4193 -0.3051 -0.2809
 3669TIP3    H132498   5.313   4.499   0.908  1.0835  1.3643  0.9843
 3669TIP3    H232499   5.291   4.367   0.978 -0.8130  0.7435 -0.6600
 3670TIP3   OH232500   6.416   6.626  12.235 -0.5784 -0.1174 -0.0722
 3670TIP3    H132501   6.334   6.615  12.188  0.1862 -0.9706 -1.2751
 3670TIP3    H232502   6.457   6.703  12.195  0.2834 -1.1124 -1.2080
 3671TIP3   OH232503   4.839   0.630  12.437 -0.3188  0.0620  0.6906
 3671TIP3    H132504   4.917   0.589  12.399 -1.6617 -2.3728  0.3036
 3671TIP3    H232505   4.805   0.685  12.367  0.4336  0.2556  0.4667
 3672TIP3   OH232506   2.143   5.781   6.680  0.2773  0.2239 -0.2136
 3672TIP3    H132507   2.196   5.713   6.640 -0.8304  0.3602 -2.0533
 3672TIP3    H232508   2.206   5.845   6.713  1.3140  0.2523 -2.0748
 3673TIP3   OH232509   2.759   3.747  16.414 -0.1292  0.2064  0.0993
 3673TIP3    H132510   2.849   3.760  16.385 -0.0235 -0.2216  0.2308
 3673TIP3    H232511   2.708   3.807  16.360 -0.0125 -0.9999 -1.4411
 3674TIP3   OH232512   6.053   0.176   4.716  0.2406  0.4815  0.3453
 3674TIP3    H132513   6.148   0.181   4.728  0.4103 -2.3795  1.0477
 3674TIP3    H232514   6.018   0.244   4.774  1.8316  1.0359  0.7195
 3675TIP3   OH232515   4.466   0.829   2.051 -0.8870 -0.3528 -0.1383
 3675TIP3    H132516   4.521   0.786   1.985 -1.1738 -1.4661  0.3206
 3675TIP3    H232517   4.490   0.921   2.047  0.8236 -0.7730 -0.1419
 3676TIP3   OH232518   3.358   2.431   4.207 -0.0079 -0.0260  0.1319
 3676TIP3    H132519   3.281   2.479   4.236 -0.4305 -1.0314  0.7156
 3676TIP3    H232520   3.431   2.477   4.250 -0.3925  0.1351  0.6285
 3677TIP3   OH232521   4.896   2.368   5.514 -1.2157  0.1128  0.3540
 3677TIP3    H132522   4.838   2.445   5.513 -0.2230  0.9054 -1.1077
 3677TIP3    H232523   4.859   2.310   5.448 -0.2761  0.7379 -0.7788
 3678TIP3   OH232524   5.812   5.830  16.106  0.1652  0.2234  0.3897
 3678TIP3    H132525   5.756   5.902  16.137  0.0543  0.7920 -1.0336
 3678TIP3    H232526   5.788   5.821  16.014  2.6981  0.7478 -0.3836
 3679TIP3   OH232527   1.425   0.053   3.320 -0.3120  0.1550 -0.2871
 3679TIP3    H132528   1.438   0.075   3.228 -2.2316  3.4845  0.0873
 3679TIP3    H232529   1.357  -0.015   3.319 -0.1457 -0.0096 -1.3479
 3680TIP3   OH232530   0.874   2.372  12.718 -0.3888 -0.5606 -0.2063
 3680TIP3    H132531   0.836   2.313  12.782  0.6006  1.3876  2.3413
 3680TIP3    H232532   0.938   2.319  12.671 -1.0996 -2.0327  0.4460
 3681TIP3   OH232533   2.301   2.257  15.315  0.1663  0.6373 -0.6652
 3681TIP3    H132534   2.251   2.204  15.253  1.4642 -0.3796 -0.8735
 3681TIP3    H232535   2.377   2.203  15.337  0.1706  1.3318  1.1675
 3682TIP3   OH232536   4.858   6.413  11.266  0.0841  0.2288 -0.0303
 3682TIP3    H132537   4.828   6.443  11.352 -2.3887 -3.0913  0.4732
 3682TIP3    H232538   4.875   6.493  11.217  0.5683  2.2777  3.1549
 3683TIP3   OH232539   4.129   4.850   2.647 -0.2356 -0.1092 -0.0755
 3683TIP3    H132540   4.102   4.867   2.737  2.4046  0.8958  0.6360
 3683TIP3    H232541   4.138   4.937   2.608  0.9122 -0.4011 -0.5231
 3684TIP3   OH232542   4.721   6.090  16.280 -0.0736 -0.2036 -0.2878
 3684TIP3    H132543   4.682   6.010  16.315  0.5067 -0.0970  0.6357
 3684TIP3    H232544   4.707   6.155  16.348  0.6098  0.1445 -0.4703
 3685TIP3   OH232545   3.712   2.794   5.431 -0.1830  0.3520 -0.8049
 3685TIP3    H132546   3.744   2.868   5.380 -0.2508  1.2919  0.4548
 3685TIP3    H232547   3.790   2.747   5.459 -0.1422 -0.0999 -1.6540
 3686TIP3   OH232548   6.081   4.053  14.276 -0.2559 -0.6175  0.1693
 3686TIP3    H132549   6.047   3.982  14.331  0.3551 -0.1721  1.1575
 3686TIP3    H232550   6.069   4.022  14.187 -0.8759 -1.5582  0.5603
 3687TIP3   OH232551   5.220   4.843   4.417  0.0718 -0.1841  0.4561
 3687TIP3    H132552   5.258   4.766   4.459 -1.4140  0.2740  2.8840
 3687TIP3    H232553   5.126   4.825   4.416 -0.0389  0.2551 -1.9579
 3688TIP3   OH232554   1.038   2.285   2.161  0.7551  0.7541 -0.2675
 3688TIP3    H132555   1.086   2.364   2.135  0.3715  1.1237  0.1408
 3688TIP3    H232556   1.022   2.239   2.079  0.6988  1.2613 -0.5482
 3689TIP3   OH232557   3.849   3.698   0.438 -0.1045  0.3224 -0.1014
 3689TIP3    H132558   3.843   3.786   0.474  2.0174  0.0666  1.0438
 3689TIP3    H232559   3.866   3.711   0.344  0.9067  1.1604  0.1834
 3690TIP3   OH232560   5.801   0.746  16.001  0.1766  0.1291 -0.0289
 3690TIP3    H132561   5.727   0.775  15.947  1.4902  0.0959 -1.9775
 3690TIP3    H232562   5.767   0.673  16.052 -1.2395  0.3561 -0.6002
 3691TIP3   OH232563   5.535   1.837  16.284  0.1274  0.0943 -0.1713
 3691TIP3    H132564   5.560   1.866  16.371 -1.8238  1.1269  0.1075
 3691TIP3    H232565   5.560   1.745  16.280  1.1646  0.3060  1.0919
 3692TIP3   OH232566   1.167   5.104  13.915 -0.0356  0.0358  0.2430
 3692TIP3    H132567   1.198   5.107  14.005  0.5600  2.3064  0.0069
 3692TIP3    H232568   1.092   5.163  13.914 -0.2898 -0.2906 -0.6745
 3693TIP3   OH232569   5.753   2.122   4.244  0.3142  0.3330  0.2243
 3693TIP3    H132570   5.701   2.134   4.165 -0.2282 -0.4885  0.4447
 3693TIP3    H232571   5.700   2.159   4.315  0.0004 -0.5250  0.4528
 3694TIP3   OH232572   2.599   2.222  16.623 -0.5885  0.6050 -0.0106
 3694TIP3    H132573   2.523   2.254  16.672  0.1656  0.3447  1.3802
 3694TIP3    H232574   2.658   2.297  16.620  0.5693 -0.1242  2.0144
 3695TIP3   OH232575   4.608   4.010  10.892 -0.3543 -0.0317  0.5640
 3695TIP3    H132576   4.645   4.091  10.856 -0.0640 -0.5428 -0.3210
 3695TIP3    H232577   4.514   4.018  10.876 -0.1884 -0.4434 -0.7631
 3696TIP3   OH232578   3.255   4.500  11.504  0.5853 -0.0843 -0.5139
 3696TIP3    H132579   3.170   4.532  11.534  0.8077 -1.7487  2.2166
 3696TIP3    H232580   3.236   4.417  11.460  0.8230 -0.8769  0.8364
 3697TIP3   OH232581   0.913   6.718   4.488 -0.0205  0.2006  0.3855
 3697TIP3    H132582   0.949   6.780   4.424  2.4543  0.9386  2.3688
 3697TIP3    H232583   0.954   6.634   4.466  0.2549  0.2917  0.5523
 3698TIP3   OH232584   6.208   3.260  15.198 -0.0681 -0.0565 -0.4109
 3698TIP3    H132585   6.203   3.247  15.293 -0.1776  1.3544 -0.1980
 3698TIP3    H232586   6.169   3.346  15.184 -0.8727 -0.6230 -1.8525
 3699TIP3   OH232587   5.305   1.696  12.472  0.2469  0.1722 -0.3813
 3699TIP3    H132588   5.390   1.687  12.428  0.2530  0.7709 -0.5034
 3699TIP3    H232589   5.311   1.637  12.547  0.0330 -1.2828 -1.4728
 3700TIP3   OH232590   0.207   0.480  11.768  0.0662  0.1582 -0.0543
 3700TIP3    H132591   0.184   0.571  11.750 -0.1920 -0.1000 -1.0974
 3700TIP3    H232592   0.128   0.444  11.810 -0.4572  0.0020 -1.1277
 3701TIP3   OH232593   3.454   5.353  16.171  0.6183 -0.5525 -0.0825
 3701TIP3    H132594   3.411   5.305  16.099  1.3329 -0.3552 -0.6443
 3701TIP3    H232595   3.466   5.441  16.137 -0.5823  0.0254  0.9121
 3702TIP3   OH232596   1.443   4.606  11.181 -0.2755 -0.2553 -1.1244
 3702TIP3    H132597   1.466   4.522  11.222  0.8497  0.2440 -0.7158
 3702TIP3    H232598   1.470   4.597  11.090  0.2592 -0.1863 -0.9768
 3703TIP3   OH232599   1.075   2.567  11.428  0.4873 -0.7557 -0.3652
 3703TIP3    H132600   1.015   2.530  11.363 -0.6981 -0.5627  0.5740
 3703TIP3    H232601   1.063   2.513  11.506  0.6128  0.0406  0.2233
 3704TIP3   OH232602   3.665   5.391  12.731 -0.2734 -0.2389  0.1821
 3704TIP3    H132603   3.696   5.481  12.729 -0.1966 -0.2486  0.8791
 3704TIP3    H232604   3.654   5.368  12.639  0.2150  0.3054 -0.0183
 3705TIP3   OH232605   6.264   3.039   6.167  0.6355 -0.8768 -0.2111
 3705TIP3    H132606   6.209   3.020   6.243  0.4212  3.7531  1.0997
 3705TIP3    H232607   6.346   3.073   6.204  2.0318 -1.9164 -2.1407
 3706TIP3   OH232608   5.178   6.505   5.668  0.0795 -0.4178 -0.1364
 3706TIP3    H132609   5.140   6.486   5.754 -0.4622 -1.0842 -0.5223
 3706TIP3    H232610   5.250   6.566   5.687 -0.6541  0.2110  0.6837
 3707TIP3   OH232611   5.893   4.400  13.109  0.5686  0.4949  0.0157
 3707TIP3    H132612   5.848   4.401  13.193  0.9448  1.7599  0.2198
 3707TIP3    H232613   5.986   4.410  13.130  0.5429  2.5323 -0.5697
 3708TIP3   OH232614   5.737   4.216   3.001  0.0199 -0.0198 -0.5900
 3708TIP3    H132615   5.688   4.298   3.008  1.3751  0.7020  2.4352
 3708TIP3    H232616   5.677   4.149   3.033 -0.1751  0.2897 -0.2983
 3709TIP3   OH232617   1.955   1.099   0.862 -0.7268 -0.9622 -0.2194
 3709TIP3    H132618   1.971   1.073   0.772  0.5024  0.6319 -0.5119
 3709TIP3    H232619   1.996   1.031   0.915  1.0249 -0.5246 -0.9270
 3710TIP3   OH232620   4.321   3.016   0.694  0.3445 -0.8089 -0.1752
 3710TIP3    H132621   4.416   3.014   0.704  0.4110 -2.1631 -0.7960
 3710TIP3    H232622   4.294   3.098   0.735  1.7783 -0.3821 -0.0245
 3711TIP3   OH232623   0.864   5.723  13.892  0.1243 -0.6756  0.5314
 3711TIP3    H132624   0.919   5.753  13.965  1.0234  0.9512 -0.7695
 3711TIP3    H232625   0.926   5.689  13.828 -0.2655  1.6791 -1.1938
 3712TIP3   OH232626   6.351   5.779   0.349 -0.3911  0.7370  0.1689
 3712TIP3    H132627   6.408   5.765   0.273 -1.7812 -2.4321 -0.4656
 3712TIP3    H232628   6.325   5.871   0.343 -0.4292  0.6335 -3.2145
 3713TIP3   OH232629   0.332   1.895   3.913  0.1652 -0.2760 -0.2266
 3713TIP3    H132630   0.396   1.875   3.981  0.4878  1.7676  0.1545
 3713TIP3    H232631   0.257   1.841   3.934  1.9753 -3.4037 -1.1775
 3714TIP3   OH232632   4.815   0.617  16.639  0.0134 -0.0548 -0.7656
 3714TIP3    H132633   4.766   0.597  16.559  0.2698  1.2242 -1.2489
 3714TIP3    H232634   4.747   0.642  16.702 -0.2723 -1.8552 -0.2918
 3715TIP3   OH232635   2.940   2.091   4.927 -0.0667  0.1945 -0.0630
 3715TIP3    H132636   2.946   2.022   4.993  2.0179 -0.4229 -0.8413
 3715TIP3    H232637   2.863   2.068   4.875  1.6258 -2.6549 -1.4847
 3716TIP3   OH232638   5.151   5.274   2.802  0.1900  0.2355 -0.1497
 3716TIP3    H132639   5.207   5.282   2.880  0.8099  0.8966 -0.6533
 3716TIP3    H232640   5.172   5.187   2.768 -0.2521 -0.1544  0.5407
 3717TIP3   OH232641   0.193   2.680  13.393  0.6439 -0.2951  0.3451
 3717TIP3    H132642   0.261   2.747  13.394  0.2907  0.0741  1.5602
 3717TIP3    H232643   0.118   2.721  13.437 -0.4015 -0.6615 -1.0439
 3718TIP3   OH232644   3.652   3.938   4.079 -0.3403  0.3064  0.5709
 3718TIP3    H132645   3.686   3.850   4.090 -0.5719  0.3074  1.3625
 3718TIP3    H232646   3.645   3.950   3.985 -1.6759 -1.0492  0.4693
 3719TIP3   OH232647   0.030   6.492  11.147 -0.8482  0.1904  0.2091
 3719TIP3    H132648   0.087   6.507  11.071 -0.2001 -2.7846 -0.0204
 3719TIP3    H232649   0.013   6.580  11.182  3.7632  1.3369  0.2046
 3720TIP3   OH232650   0.068   2.049  12.076  0.5006  0.2955 -0.3911
 3720TIP3    H132651   0.149   2.047  12.025  1.0330 -1.1228  0.4617
 3720TIP3    H232652   0.010   2.107  12.026  1.6138  0.3815 -1.6427
 3721TIP3   OH232653   2.167   3.443  11.007  0.3858 -0.1460 -0.1657
 3721TIP3    H132654   2.145   3.385  11.080 -2.2721 -0.7053 -1.2982
 3721TIP3    H232655   2.213   3.386  10.945  1.6196  0.0613  0.5112
 3722TIP3   OH232656   6.460   3.862  16.566 -0.1175 -0.0380  0.0085
 3722TIP3    H132657   6.516   3.861  16.644  1.4976  0.8403 -1.0889
 3722TIP3    H232658   6.439   3.954  16.552  0.2214 -0.1043 -1.0129
 3723TIP3   OH232659   1.893   4.920   1.883  0.1835  0.0507 -0.2028
 3723TIP3    H132660   1.851   4.991   1.835 -0.4445 -0.0173  0.2395
 3723TIP3    H232661   1.841   4.910   1.962 -0.3699 -1.5926 -0.7343
 3724TIP3   OH232662   5.193   3.153  11.401  0.1234 -0.0245 -0.5310
 3724TIP3    H132663   5.246   3.178  11.476  2.3493 -1.0525 -1.6545
 3724TIP3    H232664   5.201   3.057  11.397  0.3277  0.0343 -2.2438
 3725TIP3   OH232665   3.748   2.591  14.521  0.0605  0.6914  0.7671
 3725TIP3    H132666   3.831   2.603  14.474 -0.1672  0.2773  0.2481
 3725TIP3    H232667   3.743   2.497  14.536 -0.7602  0.5983 -0.0401
 3726TIP3   OH232668   6.205   1.346  11.320  0.0277  0.2813  0.0960
 3726TIP3    H132669   6.243   1.283  11.259  0.0167  0.5895 -0.2339
 3726TIP3    H232670   6.113   1.320  11.327  0.0856  0.1004  0.1625
 3727TIP3   OH232671   1.966   4.288   4.380  0.2523 -0.3501 -0.3948
 3727TIP3    H132672   2.058   4.314   4.374  0.1286  0.1266 -0.3021
 3727TIP3    H232673   1.930   4.309   4.293  0.5101 -1.6829 -0.8462
 3728TIP3   OH232674   4.679   4.427   3.414 -0.2488  0.0381  0.9858
 3728TIP3    H132675   4.682   4.351   3.355  0.8668  1.0425 -0.3097
 3728TIP3    H232676   4.716   4.498   3.363 -1.6150  1.5773  2.0381
 3729TIP3   OH232677   2.327   1.487  11.677  0.0749  0.1839  0.0595
 3729TIP3    H132678   2.404   1.510  11.626 -0.1502  1.6290  0.3307
 3729TIP3    H232679   2.253   1.514  11.623 -0.2531 -0.7029  0.0359
 3730TIP3   OH232680   5.634   0.767  16.924 -0.5345  0.4730  0.0358
 3730TIP3    H132681   5.686   0.814  16.858 -0.4474  1.1094  0.5474
 3730TIP3    H232682   5.607   0.687  16.880 -0.1086  0.6840 -0.6317
 3731TIP3   OH232683   2.740   4.527   2.068 -0.0412  0.3269  0.1322
 3731TIP3    H132684   2.714   4.556   1.981  0.2607 -1.8697 -0.7557
 3731TIP3    H232685   2.779   4.604   2.108  0.3768  1.2587 -1.9187
 3732TIP3   OH232686   1.968   1.064   5.559  0.5693  0.2418 -0.3723
 3732TIP3    H132687   1.989   1.004   5.488  0.9092  0.4075 -0.4136
 3732TIP3    H232688   1.927   1.009   5.626  2.1397 -0.3134  0.1803
 3733TIP3   OH232689   2.063   6.016   0.407 -0.0442  0.0030 -0.0502
 3733TIP3    H132690   2.094   5.943   0.461  2.0371  1.2111  0.4924
 3733TIP3    H232691   2.137   6.037   0.350 -0.1105  2.4721  0.6574
 3734TIP3   OH232692   1.816   2.228   3.309  0.4603  0.0135  0.1188
 3734TIP3    H132693   1.898   2.182   3.292  0.0243 -1.1039  0.9603
 3734TIP3    H232694   1.780   2.247   3.222  1.5590  0.4625 -0.2552
 3735TIP3   OH232695   2.371   2.810  12.990  1.4791  0.2278 -0.5524
 3735TIP3    H132696   2.378   2.838  13.081 -0.4041  0.3903 -0.4301
 3735TIP3    H232697   2.278   2.793  12.976  1.8818 -1.0343 -2.0934
 3736TIP3   OH232698   6.655   5.263   3.394  0.2216  0.3326  0.3033
 3736TIP3    H132699   6.701   5.345   3.415 -1.8714  1.4306  0.8512
 3736TIP3    H232700   6.677   5.246   3.302  1.1959  1.1622  0.3674
 3737TIP3   OH232701   3.793   5.268   0.757 -0.2127 -0.1804 -0.4612
 3737TIP3    H132702   3.745   5.206   0.812  0.2871 -0.6166 -0.5015
 3737TIP3    H232703   3.762   5.250   0.668 -1.6389  1.0913 -0.2676
 3738TIP3   OH232704   4.334   1.479  12.114 -0.0587 -0.7101  0.2716
 3738TIP3    H132705   4.266   1.414  12.093  0.5552 -1.9661  1.9346
 3738TIP3    H232706   4.392   1.478  12.038 -0.9943 -0.8191 -0.4680
 3739TIP3   OH232707   4.233   5.274  15.744 -0.1595 -0.0403 -0.5060
 3739TIP3    H132708   4.277   5.198  15.781 -0.1096  0.8969  1.5214
 3739TIP3    H232709   4.144   5.245  15.727 -1.2455  0.1912  3.5872
 3740TIP3   OH232710   5.788   1.094  12.237 -0.2267  0.4033  0.8599
 3740TIP3    H132711   5.861   1.139  12.195 -0.4774  0.0198 -0.0087
 3740TIP3    H232712   5.829   1.030  12.295  0.1267  1.2231  1.5433
 3741TIP3   OH232713   6.629   0.920  11.387 -0.0329 -0.1403  0.2887
 3741TIP3    H132714   6.635   1.010  11.355  0.9454 -0.3113 -0.0328
 3741TIP3    H232715   6.660   0.866  11.315  2.0979 -0.5378  1.4361
 3742TIP3   OH232716   6.206   3.541  16.275 -0.0818 -0.1617 -1.0298
 3742TIP3    H132717   6.238   3.483  16.206 -0.3008  0.6650 -1.8337
 3742TIP3    H232718   6.243   3.626  16.254  1.0760 -0.1723  0.6982
 3743TIP3   OH232719   2.150   6.480   4.218  0.5045  0.7485 -0.2493
 3743TIP3    H132720   2.222   6.535   4.250  1.1398  0.5844 -1.3387
 3743TIP3    H232721   2.127   6.425   4.293  2.2649  0.0469 -0.1615
 3744TIP3   OH232722   2.046   4.456  15.407  1.3747 -0.2315 -0.5686
 3744TIP3    H132723   1.961   4.497  15.390  1.5177 -0.4524 -1.9586
 3744TIP3    H232724   2.100   4.526  15.445 -0.6476 -1.1269  4.7575
 3745TIP3   OH232725   5.007   6.274  14.543  0.5031 -0.0077  0.9165
 3745TIP3    H132726   4.968   6.197  14.503  2.2398 -1.3330  1.6245
 3745TIP3    H232727   4.938   6.310  14.599 -0.5038 -0.7384  0.1714
 3746TIP3   OH232728   2.962   3.274   4.046  0.1888 -0.2952  0.3866
 3746TIP3    H132729   2.876   3.296   4.083  0.3230  1.2537 -0.1838
 3746TIP3    H232730   2.950   3.282   3.952  0.6102 -1.4445  0.2235
 3747TIP3   OH232731   6.740   1.184  13.411  0.0385 -0.0050  0.4842
 3747TIP3    H132732   6.685   1.258  13.439 -2.6093 -1.6460 -0.0251
 3747TIP3    H232733   6.787   1.216  13.334 -3.1195  0.4651 -1.4249
 3748TIP3   OH232734   3.080   6.282  11.026  0.7635 -0.6398 -0.0784
 3748TIP3    H132735   3.063   6.351  10.962  1.3275  0.0735  0.5345
 3748TIP3    H232736   3.056   6.201  10.980 -1.6106  0.0616 -0.2243
 3749TIP3   OH232737   1.216   5.399   0.710 -0.2494  0.4175  0.2068
 3749TIP3    H132738   1.133   5.447   0.713 -0.3376  0.2319  1.0605
 3749TIP3    H232739   1.250   5.404   0.800  0.5394  0.2732 -0.0750
 3750TIP3   OH232740   5.372   1.661   3.702  0.9586 -0.8017  0.1066
 3750TIP3    H132741   5.346   1.672   3.611  0.4120  1.3857  0.4837
 3750TIP3    H232742   5.314   1.593   3.736 -1.2065  0.7568 -0.3024
 3751TIP3   OH232743   1.495   0.268  13.646 -0.3405 -0.7177 -0.1729
 3751TIP3    H132744   1.584   0.233  13.640 -0.2834 -0.5539 -0.3164
 3751TIP3    H232745   1.507   0.363  13.639 -0.3750 -0.5729  1.4680
 3752TIP3   OH232746   2.044   2.094   3.447 -0.4469 -0.3847  0.0224
 3752TIP3    H132747   2.111   2.056   3.504  0.0748  1.8905  1.0318
 3752TIP3    H232748   2.094   2.144   3.382 -1.1117  0.9924  0.5349
 3753TIP3   OH232749   1.518   2.109  12.580 -0.7728  0.0153  0.1553
 3753TIP3    H132750   1.508   2.051  12.505  1.9818 -0.1679 -0.1881
 3753TIP3    H232751   1.525   2.051  12.655  0.1286 -0.0189  0.0532
 3754TIP3   OH232752   5.711   5.257   0.125  0.7368 -0.2622  0.4347
 3754TIP3    H132753   5.634   5.201   0.135 -0.4240  1.3614  1.0326
 3754TIP3    H232754   5.785   5.197   0.128 -0.4835 -1.8381  0.1924
 3755TIP3   OH232755   4.308   5.911   3.893  0.3693 -0.1500  0.0905
 3755TIP3    H132756   4.327   5.986   3.949  0.8770  1.7767 -2.4854
 3755TIP3    H232757   4.360   5.839   3.930  1.8339  1.4092  1.1979
 3756TIP3   OH232758   4.576   4.710  15.759  0.5240 -0.3888 -0.1677
 3756TIP3    H132759   4.501   4.674  15.805  0.7651 -1.5524 -0.6480
 3756TIP3    H232760   4.585   4.799  15.792  0.0053 -0.8265  1.1792
 3757TIP3   OH232761   1.800   5.507  13.674  0.1014  0.0831 -0.5313
 3757TIP3    H132762   1.818   5.454  13.751  2.4549 -0.1118 -1.1438
 3757TIP3    H232763   1.846   5.590  13.689  0.4360  0.1140 -1.6245
 3758TIP3   OH232764   6.056   5.576  14.798  0.1186  0.5550 -0.6372
 3758TIP3    H132765   6.101   5.511  14.852  0.5876  1.6015  0.2681
 3758TIP3    H232766   6.105   5.579  14.717  1.2466  1.1189  0.0437
 3759TIP3   OH232767   0.711   3.449   5.985 -0.1363  0.3688  0.6745
 3759TIP3    H132768   0.779   3.439   5.919 -0.1139 -0.5552  0.8185
 3759TIP3    H232769   0.654   3.373   5.972 -0.5760  0.6033  1.1983
 3760TIP3   OH232770   2.545   0.896  15.388  0.1930 -0.0857 -0.0334
 3760TIP3    H132771   2.616   0.832  15.388  0.5044  0.2510 -0.9668
 3760TIP3    H232772   2.567   0.957  15.459  0.1306 -0.7369  0.5561
 3761TIP3   OH232773   1.355   2.883   2.023 -0.3684  0.2540 -0.2540
 3761TIP3    H132774   1.331   2.971   1.994 -1.3382  0.5947  1.4121
 3761TIP3    H232775   1.298   2.825   1.974  1.0549  0.4261 -2.1999
 3762TIP3   OH232776   2.552   1.797  14.461  0.3860 -0.3454 -0.3143
 3762TIP3    H132777   2.478   1.785  14.402  0.5725 -2.2399 -0.2104
 3762TIP3    H232778   2.586   1.709  14.476  1.0694  0.2080  1.6978
 3763TIP3   OH232779   3.545   1.230  13.199 -0.5068  0.3327 -0.3982
 3763TIP3    H132780   3.632   1.193  13.188 -0.2370  0.7290  0.3718
 3763TIP3    H232781   3.560   1.324  13.214 -1.2445  1.2222 -4.1353
 3764TIP3   OH232782   5.428   0.694   2.278 -0.9285  0.4550 -0.1484
 3764TIP3    H132783   5.441   0.736   2.363  0.2565 -0.0794 -0.0453
 3764TIP3    H232784   5.403   0.604   2.298 -1.3856  0.5301 -0.3706
 3765TIP3   OH232785   3.158   2.319   2.486 -0.2430 -0.6033 -0.1471
 3765TIP3    H132786   3.206   2.262   2.546  1.2023  0.3994 -0.2776
 3765TIP3    H232787   3.127   2.261   2.417 -0.1043 -1.4485  0.4836
 3766TIP3   OH232788   5.989   6.516  15.182 -0.4004 -0.1285  0.4168
 3766TIP3    H132789   6.080   6.508  15.152 -0.0133  2.7062  0.5164
 3766TIP3    H232790   5.949   6.577  15.120 -1.2604  1.2027  2.1935
 3767TIP3   OH232791   2.774   1.181  13.969  0.4946  0.5046 -0.6507
 3767TIP3    H132792   2.692   1.138  13.944  1.3936 -0.0124 -2.9883
 3767TIP3    H232793   2.776   1.176  14.064 -1.1081 -1.5042 -0.6612
 3768TIP3   OH232794   1.627   2.399  11.527  0.6175 -0.1708 -0.2002
 3768TIP3    H132795   1.537   2.411  11.557  0.7075 -0.3057  0.1296
 3768TIP3    H232796   1.678   2.388  11.607  1.0761  0.8116 -0.3424
 3769TIP3   OH232797   4.515   0.394  11.820 -0.0938  0.0712 -0.0848
 3769TIP3    H132798   4.576   0.434  11.758  0.1758 -1.7153 -1.0539
 3769TIP3    H232799   4.440   0.367  11.766 -0.8859  0.5239  0.7680
 3770TIP3   OH232800   3.663   2.044  14.831 -0.2254  0.2258 -0.5056
 3770TIP3    H132801   3.570   2.039  14.807 -0.6380 -0.6129  1.1042
 3770TIP3    H232802   3.709   2.008  14.756 -1.2320  0.1434 -1.1130
 3771TIP3   OH232803   3.438   0.438   3.162 -0.2838 -0.4093 -0.0396
 3771TIP3    H132804   3.425   0.531   3.143 -2.5497 -0.9129 -1.2655
 3771TIP3    H232805   3.511   0.412   3.106  0.0583  0.5113 -0.0356
 3772TIP3   OH232806   1.678   0.072  14.357 -0.0454  0.4707 -0.4432
 3772TIP3    H132807   1.728   0.132  14.302  2.5503 -0.4231  0.7874
 3772TIP3    H232808   1.587   0.086  14.331  0.7654  2.4718 -2.5414
 3773TIP3   OH232809   4.158   5.298  12.285 -0.0559 -0.3594  1.1791
 3773TIP3    H132810   4.164   5.386  12.322  2.1336  1.2663 -2.4689
 3773TIP3    H232811   4.065   5.276  12.288 -0.8114  2.4979  1.3776
 3774TIP3   OH232812   2.397   2.864  15.221 -0.3644  0.0100 -0.8541
 3774TIP3    H132813   2.313   2.875  15.266 -0.3900  3.0163 -1.4312
 3774TIP3    H232814   2.396   2.773  15.191 -3.9853  0.2219 -1.9032
 3775TIP3   OH232815   2.622   2.457  11.486  0.3744  0.1336 -0.0196
 3775TIP3    H132816   2.610   2.524  11.419 -0.2601  0.7785  0.7297
 3775TIP3    H232817   2.538   2.413  11.492  0.3252  0.3011  0.5882
 3776TIP3   OH232818   5.775   1.575  13.106 -0.5569  0.0915  0.4653
 3776TIP3    H132819   5.712   1.593  13.175 -0.4470  0.1903  0.5410
 3776TIP3    H232820   5.783   1.480  13.104 -0.6824  0.0811  0.4785
 3777TIP3   OH232821   1.877   3.500  11.008  0.4431 -0.5604  0.3701
 3777TIP3    H132822   1.966   3.519  11.039  0.2049  0.2521  0.5893
 3777TIP3    H232823   1.826   3.491  11.088 -0.2791  2.0357  0.3124
 3778TIP3   OH232824   3.457   0.527   1.855  0.7945  0.3114 -0.3107
 3778TIP3    H132825   3.517   0.454   1.874  2.0506  1.6757  1.2900
 3778TIP3    H232826   3.512   0.592   1.811 -0.3384  0.2768 -1.8419
 3779TIP3   OH232827   0.890   1.015  12.376 -0.3444  0.0957 -0.2345
 3779TIP3    H132828   0.975   0.981  12.349  0.2000 -0.0878  1.5490
 3779TIP3    H232829   0.874   1.090  12.318  2.1213  1.5715  0.8120
 3780TIP3   OH232830   4.007   3.431   6.156  0.3572  0.0970 -0.0163
 3780TIP3    H132831   3.920   3.437   6.116  0.1339  1.0246  0.5715
 3780TIP3    H232832   3.992   3.388   6.241  0.3961  0.6679  0.2835
 3781TIP3   OH232833   1.170   0.724   0.053  0.0168 -0.0203  0.3640
 3781TIP3    H132834   1.145   0.796   0.111  0.2251 -0.8740  1.5387
 3781TIP3    H232835   1.266   0.727   0.052  0.0032  0.3462 -0.4086
 3782TIP3   OH232836   6.534   5.228  10.686 -0.1625  0.1645  1.1528
 3782TIP3    H132837   6.439   5.215  10.687 -0.0991 -0.4792  0.4341
 3782TIP3    H232838   6.569   5.141  10.669  0.5124  0.5430  0.5562
 3783TIP3   OH232839   1.498   3.602   2.897  0.2215 -0.4273  0.2056
 3783TIP3    H132840   1.547   3.552   2.962  1.1278 -0.0969 -0.2108
 3783TIP3    H232841   1.559   3.612   2.823 -1.0514 -1.5266 -1.0538
 3784TIP3   OH232842   1.804   2.048   1.898 -0.7041 -0.1933  0.1471
 3784TIP3    H132843   1.795   2.127   1.844 -3.0304 -0.5986 -0.1338
 3784TIP3    H232844   1.862   2.075   1.970 -1.4654  1.7736  0.0850
 3785TIP3   OH232845   3.241   6.353   3.066  0.0629 -0.0946  0.1492
 3785TIP3    H132846   3.288   6.364   2.984  0.7984 -1.1248  0.4076
 3785TIP3    H232847   3.308   6.360   3.134  0.0764 -2.4401  0.4816
 3786TIP3   OH232848   1.186   6.622  14.086 -0.2754  0.2811  0.3905
 3786TIP3    H132849   1.218   6.617  14.176  1.6051  2.1959 -0.0814
 3786TIP3    H232850   1.128   6.698  14.086  1.9745  2.1264 -0.5180
 3787TIP3   OH232851   2.900   6.214  15.920 -0.3754  0.0852 -1.1649
 3787TIP3    H132852   2.816   6.243  15.885  0.7900  1.2693 -3.1564
 3787TIP3    H232853   2.887   6.121  15.939 -2.1484  0.2787 -1.2849
 3788TIP3   OH232854   0.094   4.648  16.868  0.8119  0.7583 -0.4212
 3788TIP3    H132855   0.138   4.593  16.804  0.1074 -0.5109  0.1558
 3788TIP3    H232856   0.157   4.660  16.938 -0.1534 -2.3171  1.1255
 3789TIP3   OH232857   5.042   6.777   0.702  0.1214  0.0662 -0.1801
 3789TIP3    H132858   4.965   6.758   0.756 -0.0186  0.2907 -0.2981
 3789TIP3    H232859   5.105   6.816   0.763  1.0920 -2.3229  0.4620
 3790TIP3   OH232860   5.654   6.136  15.622  0.1218  0.1243  0.3368
 3790TIP3    H132861   5.716   6.201  15.654  0.4368  0.4272 -0.8318
 3790TIP3    H232862   5.573   6.185  15.607  0.4787  0.3589 -0.9355
 3791TIP3   OH232863   2.560   4.525  15.020 -0.0786 -0.2614  0.2046
 3791TIP3    H132864   2.619   4.589  14.979  0.7972 -0.4800  1.0733
 3791TIP3    H232865   2.525   4.474  14.947  1.4434 -0.6465 -0.3099
 3792TIP3   OH232866   3.578   2.996  10.275 -0.8287  0.1975  0.0042
 3792TIP3    H132867   3.499   2.943  10.285 -0.0157 -1.4722 -1.9077
 3792TIP3    H232868   3.644   2.950  10.328 -0.6566  0.5448  0.0944
 3793TIP3   OH232869   2.625   3.248  16.975  0.2281 -0.2480 -0.3352
 3793TIP3    H132870   2.546   3.197  16.956  0.7285 -0.9240 -0.6643
 3793TIP3    H232871   2.696   3.199  16.932  0.7259  0.7535 -0.6909
 3794TIP3   OH232872   4.149   1.336  11.294 -0.6541  0.3026  0.0298
 3794TIP3    H132873   4.088   1.395  11.249  0.6072  0.5890 -1.3863
 3794TIP3    H232874   4.115   1.330  11.383 -1.4523  2.2633 -0.0958
 3795TIP3   OH232875   2.407   0.567   3.474  0.1690  0.1821  0.1972
 3795TIP3    H132876   2.386   0.556   3.567  0.4178 -1.2262  0.1096
 3795TIP3    H232877   2.344   0.510   3.429 -0.8524  1.8842 -0.6239
 3796TIP3   OH232878   1.655   3.397  16.834  0.4596  0.1449 -0.1470
 3796TIP3    H132879   1.628   3.326  16.775  0.3871  0.5005 -0.5448
 3796TIP3    H232880   1.745   3.417  16.807  1.0632 -0.8646  1.0055
 3797TIP3   OH232881   1.297   3.124  11.671 -0.6415 -0.0651  0.3408
 3797TIP3    H132882   1.294   3.042  11.622 -0.8967  0.2603 -0.1982
 3797TIP3    H232883   1.365   3.175  11.628  0.0865 -0.3010  1.1824
 3798TIP3   OH232884   6.295   0.980  17.114 -0.0177 -1.0321  0.0538
 3798TIP3    H132885   6.365   0.933  17.160  1.7388  1.7014  0.4201
 3798TIP3    H232886   6.331   1.068  17.099 -2.3538 -0.3410 -2.2780
 3799TIP3   OH232887   5.304   3.246  13.445  0.9223  0.6229 -0.2804
 3799TIP3    H132888   5.226   3.273  13.493  1.9156  1.6590  0.8160
 3799TIP3    H232889   5.352   3.190  13.508  2.2212  1.9621 -0.0187
 3800TIP3   OH232890   6.460   3.541   3.868 -0.0944 -0.3395 -0.0350
 3800TIP3    H132891   6.369   3.515   3.877 -0.8198  1.6740 -0.9546
 3800TIP3    H232892   6.484   3.516   3.779 -0.6171  1.4590 -0.7203
 3801TIP3   OH232893   2.179   2.014   5.859 -0.1662  0.2110 -0.2367
 3801TIP3    H132894   2.204   2.078   5.793  2.6479  0.8492  1.3080
 3801TIP3    H232895   2.243   1.943   5.849  0.6677  0.5650  2.0500
 3802TIP3   OH232896   1.954   3.483  12.413  0.1996 -0.3426 -0.1794
 3802TIP3    H132897   2.042   3.474  12.376  0.1083 -1.3607 -0.1855
 3802TIP3    H232898   1.896   3.450  12.345 -0.2462  0.8216 -0.3869
 3803TIP3   OH232899   0.658   0.589  15.402  0.3120 -0.1172  0.1026
 3803TIP3    H132900   0.621   0.605  15.316 -1.8947  0.0994  1.0215
 3803TIP3    H232901   0.662   0.675  15.443 -0.6215 -0.4436  0.9221
 3804TIP3   OH232902   3.353   6.698   5.985  0.4666 -0.1407 -0.1531
 3804TIP3    H132903   3.353   6.603   5.996 -0.4370 -0.2365 -0.9410
 3804TIP3    H232904   3.397   6.730   6.064  1.8194 -1.2549 -0.3959
 3805TIP3   OH232905   2.158   1.156   5.719 -0.1950 -0.7876 -0.3106
 3805TIP3    H132906   2.165   1.092   5.789 -3.3394 -0.3584  0.5578
 3805TIP3    H232907   2.096   1.118   5.657  0.0364  0.2235 -1.1983
 3806TIP3   OH232908   0.917   3.519   2.490  0.0751 -0.7636 -0.3909
 3806TIP3    H132909   0.970   3.599   2.492 -0.7041 -0.1571 -1.9300
 3806TIP3    H232910   0.884   3.509   2.579  1.1656 -0.0575  0.1134
 3807TIP3   OH232911   4.976   2.551  13.807  0.6278 -0.3865  0.5312
 3807TIP3    H132912   5.017   2.637  13.795  0.0023 -0.2934 -1.2611
 3807TIP3    H232913   4.927   2.537  13.726 -0.2759 -1.9044  1.3056
 3808TIP3   OH232914   3.942   6.373  12.205 -0.2613 -0.1113  0.0797
 3808TIP3    H132915   3.892   6.292  12.213 -1.8172  0.8523  0.5215
 3808TIP3    H232916   3.954   6.385  12.111 -0.4552 -0.5828 -0.0085
 3809TIP3   OH232917   0.490   3.225   3.440  0.1840  0.3866  0.1756
 3809TIP3    H132918   0.524   3.214   3.351 -0.5791  1.3628 -0.2525
 3809TIP3    H232919   0.488   3.136   3.476 -0.6020 -0.1768 -1.2018
 3810TIP3   OH232920   2.875   2.716   4.402 -0.0707  0.0132 -0.8950
 3810TIP3    H132921   2.816   2.783   4.436  0.5998  0.5067 -0.6852
 3810TIP3    H232922   2.961   2.742   4.434  0.1669 -1.0787 -0.6239
 3811TIP3   OH232923   5.149   2.252  11.672  0.7448 -0.3046  0.0543
 3811TIP3    H132924   5.106   2.167  11.671  0.7347 -0.3677  1.8141
 3811TIP3    H232925   5.241   2.233  11.654  0.3221 -0.3061 -2.4847
 3812TIP3   OH232926   6.724   2.940   1.303 -0.1229  0.0918 -0.0216
 3812TIP3    H132927   6.794   2.959   1.240 -0.4870  0.1830 -0.4070
 3812TIP3    H232928   6.719   2.845   1.306  1.4945  0.0151  1.6754
 3813TIP3   OH232929   2.176   2.929   1.753 -0.1223  1.0769 -0.0375
 3813TIP3    H132930   2.109   2.891   1.810  1.2209 -1.9179 -0.3196
 3813TIP3    H232931   2.217   2.997   1.807 -1.9336  1.5161  0.8670
 3814TIP3   OH232932   1.185   1.839   1.424  0.5161  0.2725  0.0844
 3814TIP3    H132933   1.124   1.844   1.350  1.1294 -0.3595 -0.4906
 3814TIP3    H232934   1.182   1.747   1.451  2.0144 -0.0392 -0.6855
 3815TIP3   OH232935   2.498   4.215  12.112 -0.2728  0.3263 -0.2943
 3815TIP3    H132936   2.588   4.238  12.133 -0.3748  1.3758 -0.9009
 3815TIP3    H232937   2.491   4.122  12.133  0.3185  0.7063  1.8401
 3816TIP3   OH232938   2.618   6.352  12.236 -0.3947  0.2968  0.1323
 3816TIP3    H132939   2.544   6.367  12.177  0.2165  0.8997 -0.5109
 3816TIP3    H232940   2.648   6.264  12.214 -1.6928 -0.4802  1.3022
 3817TIP3   OH232941   3.199   2.207   3.613  0.0090 -0.4155  0.3458
 3817TIP3    H132942   3.115   2.162   3.622 -0.7064  0.9026  0.5191
 3817TIP3    H232943   3.180   2.282   3.557  0.3249  1.6267  2.7815
 3818TIP3   OH232944   1.591   4.973  12.195 -0.4116  0.0837 -1.3115
 3818TIP3    H132945   1.675   4.928  12.185  1.2209  2.1227  1.7039
 3818TIP3    H232946   1.554   4.938  12.276 -1.0440  1.2263 -1.0835
 3819TIP3   OH232947   4.193   0.661   0.352 -0.0443  0.0621  0.8366
 3819TIP3    H132948   4.236   0.577   0.369  0.2260  0.0616  0.1854
 3819TIP3    H232949   4.118   0.662   0.411 -0.2224 -0.7778  0.6440
 3820TIP3   OH232950   1.552   0.498  16.568 -0.8249 -0.1756  0.3718
 3820TIP3    H132951   1.621   0.556  16.537 -0.8071 -0.1431  0.4733
 3820TIP3    H232952   1.474   0.526  16.520 -0.9330  0.2731  0.8106
 3821TIP3   OH232953   0.005   6.107  13.363  0.1793 -0.1688  0.3979
 3821TIP3    H132954   0.040   6.067  13.284 -3.4210  0.1942 -1.6311
 3821TIP3    H232955   0.036   6.198  13.360 -0.7665  0.1321 -1.2601
 3822TIP3   OH232956   0.242   3.881   4.013 -0.3467  0.2248  0.2385
 3822TIP3    H132957   0.334   3.891   3.988 -0.5424  0.0131 -0.6017
 3822TIP3    H232958   0.246   3.840   4.099  0.3686 -1.7951 -0.6693
 3823TIP3   OH232959   3.223   4.269   2.070  0.3183 -0.1067  0.0281
 3823TIP3    H132960   3.244   4.265   1.977  0.9304  1.7584  0.0633
 3823TIP3    H232961   3.294   4.221   2.113  0.6060 -0.0496 -0.3810
 3824TIP3   OH232962   0.387   5.324   1.200 -0.1389 -0.1651 -0.2118
 3824TIP3    H132963   0.452   5.270   1.244  0.6590  1.1292  0.2482
 3824TIP3    H232964   0.356   5.270   1.127  0.3154 -1.3855  0.4718
 3825TIP3   OH232965   1.095   3.786   0.886 -0.0322 -0.0631 -0.3978
 3825TIP3    H132966   1.040   3.838   0.827  0.9454 -0.2201 -1.4832
 3825TIP3    H232967   1.100   3.837   0.966 -1.5243  0.0809 -0.3745
 3826TIP3   OH232968   2.150   1.827   0.288  0.2517  0.0070 -0.0477
 3826TIP3    H132969   2.204   1.825   0.210  1.1717 -0.0403  0.5734
 3826TIP3    H232970   2.131   1.919   0.303 -0.2167 -0.0104 -0.5123
 3827TIP3   OH232971   5.132   2.199   4.683 -0.2780 -0.3992  0.2016
 3827TIP3    H132972   5.185   2.269   4.723  2.5006 -1.5648 -1.1710
 3827TIP3    H232973   5.141   2.126   4.744 -0.1430 -0.6496 -0.1160
 3828TIP3   OH232974   6.604   4.420  13.888 -0.3963 -0.8238 -0.1038
 3828TIP3    H132975   6.693   4.448  13.909  0.2395 -2.1076 -0.9372
 3828TIP3    H232976   6.559   4.415  13.972  0.5025 -0.7310  0.3903
 3829TIP3   OH232977   5.617   6.246  16.239  0.5801  0.0732 -0.3793
 3829TIP3    H132978   5.642   6.232  16.330 -2.8358  0.7584  0.7841
 3829TIP3    H232979   5.587   6.337  16.236 -1.3712 -0.5614 -1.6437
 3830TIP3   OH232980   3.725   4.307   5.063  0.3285  0.3494  0.2121
 3830TIP3    H132981   3.810   4.272   5.037  0.8376  0.4971  1.6049
 3830TIP3    H232982   3.746   4.380   5.121 -0.7357  1.9297 -1.2769
 3831TIP3   OH232983   1.284   1.107  16.445  0.4809 -0.0424  0.7687
 3831TIP3    H132984   1.349   1.171  16.473  1.2985 -0.0300 -1.0613
 3831TIP3    H232985   1.335   1.033  16.412 -0.4463 -1.2793  1.9794
 3832TIP3   OH232986   2.023   0.808  12.069  0.0121 -0.2676 -0.2048
 3832TIP3    H132987   2.026   0.712  12.074 -0.5594 -0.3258 -0.8339
 3832TIP3    H232988   2.097   0.831  12.013  0.5979 -0.2850  0.5545
 3833TIP3   OH232989   2.327   3.962  16.885  0.0824  0.5393  0.1623
 3833TIP3    H132990   2.383   4.019  16.832  0.2101  0.1835 -0.0872
 3833TIP3    H232991   2.312   3.885  16.830  1.3136 -0.4357  1.1388
 3834TIP3   OH232992   1.457   0.061  13.209  0.2041  0.4948  0.3793
 3834TIP3    H132993   1.497   0.042  13.294  1.3012  0.1131 -0.2022
 3834TIP3    H232994   1.410  -0.019  13.186 -0.2057  0.6472  0.6901
 3835TIP3   OH232995   4.824   6.819  13.383 -0.2427 -0.2568  0.1419
 3835TIP3    H132996   4.873   6.900  13.390  1.0015 -1.0213  0.6695
 3835TIP3    H232997   4.810   6.807  13.289  1.9200 -0.7521 -0.1706
 3836TIP3   OH232998   5.820   2.789  11.383 -0.1663 -0.2221 -0.8138
 3836TIP3    H132999   5.774   2.764  11.463 -1.3196  1.9147 -0.7324
 3836TIP3    H233000   5.756   2.841  11.334  1.9433  2.4953 -0.9257
 3837TIP3   OH233001   3.443   4.042  14.584 -0.2309 -0.0709 -0.4949
 3837TIP3    H133002   3.488   4.089  14.654 -0.1519 -0.7103 -0.1048
 3837TIP3    H233003   3.388   4.108  14.542  0.4698  0.5456 -0.4741
 3838TIP3   OH233004   0.728   0.983  13.995  0.5445  0.0782  0.2611
 3838TIP3    H133005   0.677   1.020  14.067  0.5753  0.1276  0.2572
 3838TIP3    H233006   0.736   0.890  14.018  0.5232  0.0864  0.3033
 3839TIP3   OH233007   6.636   4.418   5.047  0.0030 -0.6306  0.0929
 3839TIP3    H133008   6.665   4.343   5.100 -2.9300 -1.8157  0.1925
 3839TIP3    H233009   6.642   4.493   5.106 -1.9327 -1.7080  1.7647
 3840TIP3   OH233010   4.485   4.170   6.098  0.5569 -0.9427  0.0557
 3840TIP3    H133011   4.416   4.151   6.035  1.5168 -2.3709 -0.6121
 3840TIP3    H233012   4.439   4.188   6.180 -0.6214 -1.2478 -0.5260
 3841TIP3   OH233013   6.463   4.981   1.535  0.3329  0.5704  1.0595
 3841TIP3    H133014   6.471   4.973   1.630  0.1279  1.0214  1.1181
 3841TIP3    H233015   6.507   5.064   1.514  0.3907  0.4654  0.7566
 3842TIP3   OH233016   5.586   1.370   3.159  0.3397  0.4195  0.5579
 3842TIP3    H133017   5.549   1.457   3.175 -1.0295  0.2192 -1.1026
 3842TIP3    H233018   5.679   1.378   3.179  0.1088  2.0753  1.0721
 3843TIP3   OH233019   2.734   3.669   4.026 -0.2209 -0.2328 -0.2447
 3843TIP3    H133020   2.731   3.591   3.971 -1.1136  0.5103 -1.2868
 3843TIP3    H233021   2.730   3.635   4.115 -2.4590 -1.3423 -0.6847
 3844TIP3   OH233022   4.110   4.936  11.265  0.6395 -0.2632  0.7059
 3844TIP3    H133023   4.092   4.876  11.337 -0.4525 -0.1252  0.5665
 3844TIP3    H233024   4.167   5.003  11.303  2.5518 -1.7960  0.6541
 3845TIP3   OH233025   3.531   3.363   5.070 -0.2679  0.1772 -0.3538
 3845TIP3    H133026   3.594   3.431   5.046  0.4453 -0.2335  0.3364
 3845TIP3    H233027   3.478   3.402   5.139 -0.6498  0.4504 -0.7935
 3846TIP3   OH233028   4.699   5.818  14.276  0.0813  0.1179 -0.2613
 3846TIP3    H133029   4.754   5.798  14.200  0.2257  0.8040 -0.3412
 3846TIP3    H233030   4.698   5.914  14.280  0.4202  0.0810  0.8648
 3847TIP3   OH233031   5.519   3.999   2.779 -0.4483 -0.3382 -0.6121
 3847TIP3    H133032   5.546   3.986   2.870 -0.0419  1.9019 -0.3725
 3847TIP3    H233033   5.438   3.949   2.770 -0.2060 -1.0186  0.8171
 3848TIP3   OH233034   1.401   4.784  13.398  0.7582 -0.7421  0.1268
 3848TIP3    H133035   1.455   4.788  13.476  0.1423  2.8295  0.5585
 3848TIP3    H233036   1.312   4.769  13.431  0.7199 -0.8695 -0.0339
 3849TIP3   OH233037   5.212   5.096  13.391 -0.3580 -0.1171  0.7176
 3849TIP3    H133038   5.305   5.077  13.400 -0.3064 -0.4286 -0.3484
 3849TIP3    H233039   5.171   5.011  13.371 -0.6524  0.2311 -0.2540
 3850TIP3   OH233040   0.638   4.162   4.171 -0.3149  0.0034  0.0044
 3850TIP3    H133041   0.664   4.201   4.087 -0.1098  2.5598  1.1623
 3850TIP3    H233042   0.681   4.077   4.172 -2.0009 -1.0673 -3.3362
 3851TIP3   OH233043   3.145   5.108  11.194  0.6743 -0.0888 -0.4479
 3851TIP3    H133044   3.066   5.067  11.160  1.1103 -2.1480  0.8712
 3851TIP3    H233045   3.203   5.114  11.117  0.3881 -1.4940 -0.8021
 3852TIP3   OH233046   2.748   3.704   5.320  0.0955 -0.0923 -0.2864
 3852TIP3    H133047   2.682   3.642   5.349  0.1951 -0.3898 -0.6762
 3852TIP3    H233048   2.712   3.790   5.341 -0.6877 -0.2211 -1.0317
 3853TIP3   OH233049   5.820   1.653   4.022 -0.0567  0.4094  0.4458
 3853TIP3    H133050   5.803   1.646   3.928  0.7379  0.1877  0.3063
 3853TIP3    H233051   5.800   1.744   4.043  0.5782  0.6904 -0.1205
 3854TIP3   OH233052   6.381   3.867  10.826  0.1183 -0.2426 -0.3750
 3854TIP3    H133053   6.330   3.870  10.907  0.9363  0.9889  0.1165
 3854TIP3    H233054   6.416   3.778  10.823  1.1663  0.0831  1.3123
 3855TIP3   OH233055   1.330   3.697  16.123  0.4326 -0.1375 -0.7136
 3855TIP3    H133056   1.260   3.673  16.183  1.9824 -2.4842  0.3042
 3855TIP3    H233057   1.378   3.766  16.168  0.7985 -0.9693  0.2280
 3856TIP3   OH233058   2.995   0.165   5.832  0.4828  0.3873 -0.4818
 3856TIP3    H133059   2.979   0.173   5.926 -0.8316  1.8645 -0.7915
 3856TIP3    H233060   3.087   0.141   5.825  0.3586 -0.7082  1.1924
 3857TIP3   OH233061   6.245   5.714  12.518 -0.5288  0.5375 -0.5177
 3857TIP3    H133062   6.242   5.729  12.612  1.3864 -0.7757 -0.2000
 3857TIP3    H233063   6.233   5.620  12.508 -0.1784  0.5879 -1.5538
 3858TIP3   OH233064   6.281   0.551   4.950  0.2255 -0.1576  0.1557
 3858TIP3    H133065   6.346   0.540   5.019 -0.5579 -2.5790  0.5889
 3858TIP3    H233066   6.204   0.585   4.995  0.4507  0.5818  0.0110
 3859TIP3   OH233067   2.460   0.900   3.714 -0.1303  0.7661  0.1328
 3859TIP3    H133068   2.391   0.859   3.767 -0.5340  1.3339  0.0503
 3859TIP3    H233069   2.463   0.991   3.744  1.3889  0.4700  0.9579
 3860TIP3   OH233070   5.321   5.795   0.059  0.7517  0.2326  0.8776
 3860TIP3    H133071   5.326   5.708   0.021 -1.5721 -0.3595  1.7281
 3860TIP3    H233072   5.320   5.855  -0.016 -2.0987 -0.8042 -0.0438
 3861TIP3   OH233073   5.511   2.972   4.373  0.1228 -0.1122 -0.0814
 3861TIP3    H133074   5.600   3.005   4.362  0.3381 -0.4145  0.6651
 3861TIP3    H233075   5.496   2.915   4.298  0.6580 -0.2647 -0.0759
 3862TIP3   OH233076   6.209   3.267   1.912 -0.3679 -0.2499 -0.0685
 3862TIP3    H133077   6.161   3.189   1.942 -0.6740  0.3901  1.1864
 3862TIP3    H233078   6.283   3.273   1.971 -0.2288  0.2926 -0.2956
 3863TIP3   OH233079   3.407   4.700   2.422 -0.3421  0.0670  0.4273
 3863TIP3    H133080   3.411   4.785   2.464  2.5711  1.0401 -1.5032
 3863TIP3    H233081   3.455   4.642   2.482 -0.7819  0.1866  0.9011
 3864TIP3   OH233082   5.345   3.176  15.302  0.6993  0.0289  0.2844
 3864TIP3    H133083   5.360   3.087  15.269 -0.7263  0.2308 -1.0289
 3864TIP3    H233084   5.349   3.232  15.224  0.7547  1.0031  0.9699
 3865TIP3   OH233085   3.680   1.269  14.002 -0.8260  0.2794 -0.4662
 3865TIP3    H133086   3.689   1.356  13.963 -0.7844  0.3500 -0.2997
 3865TIP3    H233087   3.727   1.211  13.943 -0.3030  0.4650 -0.2409
 3866TIP3   OH233088   1.695   1.760   4.439  0.0112 -0.3675 -0.0102
 3866TIP3    H133089   1.740   1.691   4.392 -0.0311  1.5080 -3.0416
 3866TIP3    H233090   1.760   1.829   4.449 -0.7205  0.2906  0.3813
 3867TIP3   OH233091   4.220   6.066   3.023  0.4696 -0.0364  0.5108
 3867TIP3    H133092   4.268   6.142   3.055  0.7456  0.1551 -0.3289
 3867TIP3    H233093   4.272   5.991   3.053  1.1932  0.1627 -0.1848
 3868TIP3   OH233094   0.422   3.882   0.138  0.2774  0.6532  0.4631
 3868TIP3    H133095   0.493   3.852   0.081 -1.3180 -1.0590 -0.7486
 3868TIP3    H233096   0.377   3.802   0.164 -0.8978  1.6619  1.6685
 3869TIP3   OH233097   4.323   0.044  12.171  0.6008  0.3319 -0.7124
 3869TIP3    H133098   4.379   0.119  12.190  1.4821  0.2926 -2.8285
 3869TIP3    H233099   4.234   0.076  12.187  1.0674  1.2165  0.2317
 3870TIP3   OH233100   0.730   3.293   3.684 -0.5499 -0.2433  0.4771
 3870TIP3    H133101   0.805   3.352   3.698  0.6436 -1.6920  0.4327
 3870TIP3    H233102   0.709   3.260   3.771 -0.1969 -0.9249  0.3107
 3871TIP3   OH233103   5.166   6.765   0.115 -0.1778  0.4209 -1.0843
 3871TIP3    H133104   5.172   6.825   0.190  1.6696 -0.2459 -0.6539
 3871TIP3    H233105   5.093   6.707   0.137  0.3094  0.2628  0.1803
 3872TIP3   OH233106   4.964   3.855   4.390  0.1221  0.1578  0.3634
 3872TIP3    H133107   5.057   3.835   4.393  0.0729 -0.6181 -1.3798
 3872TIP3    H233108   4.921   3.772   4.411 -0.1250 -0.2063 -1.4093
 3873TIP3   OH233109   0.605   3.434   4.757 -0.5215 -0.0763  0.2884
 3873TIP3    H133110   0.559   3.508   4.719  0.3726  1.1182  1.4472
 3873TIP3    H233111   0.546   3.403   4.826 -0.6631 -0.1049  0.1544
 3874TIP3   OH233112   3.553   2.844   4.939 -0.5172  0.2041  0.3899
 3874TIP3    H133113   3.471   2.867   4.982 -1.0824  1.2148 -1.1245
 3874TIP3    H233114   3.597   2.928   4.925  0.0415 -0.1756 -0.1909
 3875TIP3   OH233115   6.295   3.006  14.242  0.5136  0.0171  0.2824
 3875TIP3    H133116   6.318   2.993  14.334  1.2831 -0.1254  0.0725
 3875TIP3    H233117   6.359   3.070  14.209 -0.8147  1.4126  0.2836
 3876TIP3   OH233118   3.159   4.138  13.388  0.6479 -0.3907  0.0980
 3876TIP3    H133119   3.113   4.217  13.362 -1.3856 -1.4906  0.1516
 3876TIP3    H233120   3.234   4.133  13.329  2.0434  2.5689  1.3844
 3877TIP3   OH233121   5.074   2.145  16.086  0.5286  0.2806 -0.0176
 3877TIP3    H133122   5.049   2.165  16.176  1.1243 -1.3755  0.5608
 3877TIP3    H233123   5.137   2.213  16.062  0.8785  0.3485  1.0634
 3878TIP3   OH233124   0.120   6.814   4.437  0.5220 -0.2927 -0.3222
 3878TIP3    H133125   0.198   6.807   4.382  1.3130 -1.1678  0.8640
 3878TIP3    H233126   0.107   6.726   4.472 -0.2228  0.1363  0.5282
 3879TIP3   OH233127   4.078   2.665  17.244 -0.4375 -0.2089  0.3109
 3879TIP3    H133128   4.061   2.710  17.327 -0.8781  0.1815  0.0211
 3879TIP3    H233129   4.055   2.730  17.177  1.7066  0.1749 -0.1393
 3880TIP3   OH233130   4.309   1.471  15.103  0.3863 -0.7050  0.8756
 3880TIP3    H133131   4.388   1.524  15.094 -0.2807  0.0860 -0.7412
 3880TIP3    H233132   4.309   1.442  15.194  2.9235 -1.3727  0.7227
 3881TIP3   OH233133   0.066   5.573   2.434  0.6143  0.0195 -0.4594
 3881TIP3    H133134   0.116   5.531   2.364  1.2993 -0.6723  0.4046
 3881TIP3    H233135   0.112   5.655   2.451  1.5316 -0.6267  0.3499
 3882TIP3   OH233136   0.463   6.314   3.375 -0.1455  0.4698  0.1732
 3882TIP3    H133137   0.504   6.228   3.387 -1.2233 -0.5601 -2.4986
 3882TIP3    H233138   0.399   6.299   3.305 -1.7841  3.0366  0.9987
 3883TIP3   OH233139   3.044   1.159  16.222  0.4145 -0.0521 -0.0512
 3883TIP3    H133140   3.101   1.122  16.155 -0.0272 -1.2702  0.2238
 3883TIP3    H233141   2.989   1.086  16.250 -1.1541  1.0374 -0.1627
 3884TIP3   OH233142   3.048   6.235  14.124 -0.9630  0.2848  0.8406
 3884TIP3    H133143   2.992   6.260  14.050  1.3556 -0.0519 -1.1539
 3884TIP3    H233144   3.071   6.144  14.107  0.9390  0.6850  1.0346
 3885TIP3   OH233145   1.086   4.811   6.217 -0.0573  0.4316 -0.4258
 3885TIP3    H133146   1.151   4.881   6.205  1.4800 -0.6977  0.8171
 3885TIP3    H233147   1.002   4.855   6.211  0.8502  2.5469  0.9791
 3886TIP3   OH233148   2.331   4.790   1.579  0.1858  0.3644  0.0069
 3886TIP3    H133149   2.308   4.769   1.488  1.8861 -1.9733  0.0419
 3886TIP3    H233150   2.265   4.744   1.631  0.6227 -0.3270 -0.0323
 3887TIP3   OH233151   3.002   2.897   0.832 -0.3408 -0.0990  0.5825
 3887TIP3    H133152   2.980   2.807   0.808  2.2537 -0.7938  0.4597
 3887TIP3    H233153   2.988   2.901   0.926  1.6998 -1.4234  1.0080
 3888TIP3   OH233154   5.614   3.249  16.501 -0.3022  0.4700 -0.6127
 3888TIP3    H133155   5.666   3.176  16.535  0.7046  0.6709 -1.6501
 3888TIP3    H233156   5.604   3.308  16.575  0.1490 -0.0181 -0.1549
 3889TIP3   OH233157   4.701   6.330   2.486 -0.0331 -0.3511  0.3195
 3889TIP3    H133158   4.748   6.286   2.557  1.3882 -0.6475 -0.7706
 3889TIP3    H233159   4.633   6.267   2.460 -0.6990 -0.1539  1.5303
 3890TIP3   OH233160   1.060   0.299   1.076 -0.0076 -0.4702 -0.2707
 3890TIP3    H133161   1.077   0.269   0.987 -1.4897  1.4222 -1.2662
 3890TIP3    H233162   1.130   0.362   1.095  1.1419 -1.9272  0.5096
 3891TIP3   OH233163   1.338   4.904   5.807  0.3241 -0.2657  0.0297
 3891TIP3    H133164   1.310   4.819   5.842 -1.7969  0.0048 -0.8646
 3891TIP3    H233165   1.368   4.884   5.719  0.5882 -0.1987  0.1049
 3892TIP3   OH233166   1.153   6.789  12.542  0.1224 -0.2270  0.0840
 3892TIP3    H133167   1.115   6.713  12.498 -0.1426 -0.7632  1.1870
 3892TIP3    H233168   1.247   6.782  12.525  0.0980 -0.7938  0.1509
 3893TIP3   OH233169   1.656   1.118  15.952 -0.0545 -0.3122  0.0664
 3893TIP3    H133170   1.575   1.165  15.972 -0.4594 -1.3751  0.9974
 3893TIP3    H233171   1.655   1.108  15.857 -0.9678 -0.2429  0.0642
 3894TIP3   OH233172   6.312   3.374   3.007 -0.4848 -0.6635  0.9114
 3894TIP3    H133173   6.380   3.428   3.046 -0.1586 -0.6655  0.3571
 3894TIP3    H233174   6.243   3.436   2.982  1.1835  0.0444 -2.6065
 3895TIP3   OH233175   3.037   1.590   4.063  0.0429 -0.1910  0.5976
 3895TIP3    H133176   3.109   1.619   4.120 -0.4064  0.6719  0.7541
 3895TIP3    H233177   3.007   1.671   4.021 -0.1775 -0.6962 -0.2397
 3896TIP3   OH233178   5.108   0.983  12.308  0.0280  0.4561  0.9453
 3896TIP3    H133179   5.067   1.061  12.271 -1.8823  0.1580  2.3253
 3896TIP3    H233180   5.096   0.992  12.403 -1.5993 -2.1932  1.0805
 3897TIP3   OH233181   6.107   0.897   2.640 -0.0212 -0.2348  0.3277
 3897TIP3    H133182   6.083   0.915   2.550  0.2125  0.2727  0.3629
 3897TIP3    H233183   6.047   0.828   2.668  0.4327 -0.9556 -0.4629
 3898TIP3   OH233184   3.506   2.877  11.821 -0.4898  0.2573 -0.2610
 3898TIP3    H133185   3.415   2.886  11.850 -0.5504  0.6529 -0.5627
 3898TIP3    H233186   3.501   2.879  11.725  0.0663  3.0721 -0.3245
 3899TIP3   OH233187   3.893   4.440  15.648 -0.1381 -0.0603 -0.3730
 3899TIP3    H133188   3.837   4.486  15.711 -0.7003 -1.7746  0.4246
 3899TIP3    H233189   3.981   4.473  15.666 -0.4409  0.2697  0.5714
 3900TIP3   OH233190   5.653   1.752  13.598  0.0774 -0.1478  0.6212
 3900TIP3    H133191   5.743   1.777  13.617  0.2636  0.2710 -0.6803
 3900TIP3    H233192   5.599   1.812  13.650  0.5476  0.7167  0.1280
 3901TIP3   OH233193   6.182   3.938   1.753  0.6555 -0.3856  0.1489
 3901TIP3    H133194   6.146   3.983   1.830  0.7291 -0.3637  0.1709
 3901TIP3    H233195   6.140   3.982   1.679 -0.7243 -1.5351  0.2073
 3902TIP3   OH233196   0.429   3.818  16.953 -0.1848 -0.0137  0.2359
 3902TIP3    H133197   0.372   3.749  16.989  0.2613  0.2855  1.5587
 3902TIP3    H233198   0.505   3.770  16.918  0.0527 -0.2175  1.0120
 3903TIP3   OH233199   0.222   5.405   4.926  0.0625 -0.2689 -0.2024
 3903TIP3    H133200   0.255   5.450   5.004 -3.0963 -2.7159  2.8952
 3903TIP3    H233201   0.299   5.360   4.890  2.0410  2.5701  0.0932
 3904TIP3   OH233202   1.609   0.641   2.053  0.4227  0.8912 -0.0243
 3904TIP3    H133203   1.606   0.586   2.131 -0.2469  0.6530 -0.2065
 3904TIP3    H233204   1.597   0.730   2.086 -1.7276  0.6527  0.0313
 3905TIP3   OH233205   4.297   3.014  15.254  0.3005 -0.5509  0.0009
 3905TIP3    H133206   4.347   3.090  15.225 -0.2743  0.2282  1.0002
 3905TIP3    H233207   4.208   3.031  15.225 -0.0247 -0.3643  1.0680
 3906TIP3   OH233208   2.037   2.678  11.033  0.4216 -0.0386  0.2355
 3906TIP3    H133209   2.074   2.726  10.959 -0.1775  0.2493  0.1184
 3906TIP3    H233210   2.075   2.590  11.026 -0.7475 -0.4738 -1.2912
 3907TIP3   OH233211   5.145   4.898  14.563 -0.6100  0.0140 -0.3356
 3907TIP3    H133212   5.165   4.991  14.558  0.4326 -0.2082 -0.5678
 3907TIP3    H233213   5.209   4.862  14.624  1.5109 -1.1521 -3.0311
 3908TIP3   OH233214   2.397   1.767   2.405 -0.0462 -0.1993  0.2561
 3908TIP3    H133215   2.486   1.736   2.420  0.5987  1.7609  0.8335
 3908TIP3    H233216   2.355   1.765   2.491 -0.9223 -2.0215 -0.1658
 3909TIP3   OH233217   1.802   3.976  11.814  0.2950  0.4700  0.1920
 3909TIP3    H133218   1.794   3.909  11.746  0.3930 -1.3329  1.8801
 3909TIP3    H233219   1.893   4.007  11.806 -0.1273  1.3971 -1.4398
 3910TIP3   OH233220   3.802   6.740   2.924 -0.2858 -0.0722  0.1010
 3910TIP3    H133221   3.715   6.767   2.894  0.5596  3.2480  0.2071
 3910TIP3    H233222   3.861   6.773   2.857  0.9760 -1.8976  0.2472
 3911TIP3   OH233223   0.646   4.489   3.016 -0.6592  0.1447 -0.2324
 3911TIP3    H133224   0.627   4.508   2.924 -1.8930 -0.5270 -0.1438
 3911TIP3    H233225   0.696   4.564   3.047  1.4228 -0.4778 -1.9236
 3912TIP3   OH233226   5.914   1.822  13.964  0.0277  0.5092 -0.5184
 3912TIP3    H133227   5.982   1.877  14.003 -0.6932  1.9568 -1.2357
 3912TIP3    H233228   5.847   1.814  14.032 -1.2582  3.0806 -1.3603
 3913TIP3   OH233229   1.956   4.868   3.208 -0.4042 -0.2907 -0.2936
 3913TIP3    H133230   1.868   4.902   3.194 -0.0605 -0.1233 -2.2614
 3913TIP3    H233231   1.983   4.833   3.123  1.8941  0.7587 -0.0773
 3914TIP3   OH233232   4.550   4.834   3.526  0.7053  0.3595  0.1159
 3914TIP3    H133233   4.621   4.895   3.505  0.6148  0.4855  0.1743
 3914TIP3    H233234   4.507   4.872   3.602 -0.6011  1.2663 -1.0248
 3915TIP3   OH233235   5.554   1.345  16.582 -0.0312  0.7351  0.0300
 3915TIP3    H133236   5.474   1.303  16.615 -0.7850  1.8767 -0.3000
 3915TIP3    H233237   5.539   1.357  16.489  0.1873  1.6841  0.1035
 3916TIP3   OH233238   2.409   0.715   5.565  0.0656 -0.7348 -0.1174
 3916TIP3    H133239   2.416   0.805   5.597 -1.0530 -0.8597  0.5354
 3916TIP3    H233240   2.496   0.678   5.576  0.1536 -0.2012  1.0535
 3917TIP3   OH233241   4.840   2.337  15.824  0.3286 -0.4886  0.3943
 3917TIP3    H133242   4.866   2.253  15.862  0.4630 -0.2510  0.8343
 3917TIP3    H233243   4.858   2.401  15.893  1.0845  0.0240 -0.2584
 3918TIP3   OH233244   6.751   6.596   2.431 -0.1075  0.4335  0.6367
 3918TIP3    H133245   6.683   6.558   2.487  0.9281  0.9936  2.3513
 3918TIP3    H233246   6.705   6.619   2.350 -1.3029 -1.9981  0.5504
 3919TIP3   OH233247   3.313   1.591  11.598  0.1135  0.8812 -0.0962
 3919TIP3    H133248   3.333   1.656  11.666  1.8461  0.8189 -0.5213
 3919TIP3    H233249   3.294   1.511  11.647 -1.7877  1.5777  0.4237
 3920TIP3   OH233250   4.820   6.061   6.514  0.1949 -0.0040 -0.2488
 3920TIP3    H133251   4.883   6.060   6.443 -0.9806 -1.0389 -1.3299
 3920TIP3    H233252   4.832   5.977   6.558 -2.0346 -1.3716 -2.0242
 3921TIP3   OH233253   2.239   1.445   3.118  0.5104 -0.0029 -0.2198
 3921TIP3    H133254   2.241   1.368   3.175 -2.6148 -1.1901 -1.4537
 3921TIP3    H233255   2.209   1.516   3.175  0.5963 -0.3954  0.3249
 3922TIP3   OH233256   2.641   4.127   0.542  0.6199  0.0203  0.1131
 3922TIP3    H133257   2.616   4.071   0.468 -3.5514  0.4144  0.9692
 3922TIP3    H233258   2.624   4.216   0.512 -0.8378  0.2040  1.3223
 3923TIP3   OH233259   5.096   6.085   4.790  0.2738 -0.2700 -0.5165
 3923TIP3    H133260   5.159   6.150   4.759  1.4639 -2.2876 -2.6372
 3923TIP3    H233261   5.112   6.009   4.735 -0.6317 -2.6017  2.2351
 3924TIP3   OH233262   2.949   1.810   3.939 -0.2217  0.1151 -0.0733
 3924TIP3    H133263   2.854   1.807   3.935 -0.2896  1.2676  0.3322
 3924TIP3    H233264   2.969   1.865   4.015  0.7550  0.4382 -0.5337
 3925TIP3   OH233265   2.712   0.102  14.884  0.5018 -0.0465 -0.0055
 3925TIP3    H133266   2.787   0.138  14.931 -0.1346  1.0521  0.2066
 3925TIP3    H233267   2.642   0.167  14.896 -0.0643 -0.3520 -1.3758
 3926TIP3   OH233268   5.674   5.253   4.190 -0.6936  0.2034 -0.0499
 3926TIP3    H133269   5.648   5.180   4.134 -0.8515 -0.0470  0.3474
 3926TIP3    H233270   5.707   5.320   4.129  0.1527 -0.4803 -0.3676
 3927TIP3   OH233271   0.291   3.196   4.630 -0.4252 -0.5493 -0.0044
 3927TIP3    H133272   0.282   3.259   4.701 -1.6375  0.9869 -1.4289
 3927TIP3    H233273   0.202   3.165   4.614 -0.5521  0.6662 -2.1109
 3928TIP3   OH233274   0.611   1.309   2.705  0.5656  0.3694  0.3492
 3928TIP3    H133275   0.613   1.404   2.710 -0.0056  0.4851 -1.1758
 3928TIP3    H233276   0.695   1.285   2.666  0.4726  0.2889  0.1974
 3929TIP3   OH233277   3.305   5.755  15.390 -0.1893 -0.0035 -0.0047
 3929TIP3    H133278   3.331   5.664  15.405 -1.0343 -0.1323  0.8389
 3929TIP3    H233279   3.240   5.772  15.458  0.4242  1.4439  0.2581
 3930TIP3   OH233280   1.311   1.973   4.688 -0.2162  0.1575  0.2856
 3930TIP3    H133281   1.302   2.002   4.597 -1.6313 -1.5957 -0.1820
 3930TIP3    H233282   1.353   1.887   4.682 -2.7393 -1.2383  0.9913
 3931TIP3   OH233283   2.650   1.995   3.520 -0.1620  0.7299  0.0930
 3931TIP3    H133284   2.577   2.030   3.469 -0.7379 -1.0934 -0.4088
 3931TIP3    H233285   2.726   2.043   3.489 -0.6352  0.2963 -1.8953
 3932TIP3   OH233286   3.755   2.194   1.309  0.0374 -0.3957 -0.1115
 3932TIP3    H133287   3.757   2.204   1.404  1.6803 -0.8971 -0.0453
 3932TIP3    H233288   3.716   2.108   1.294 -2.6751  0.7449 -0.0683
 3933TIP3   OH233289   0.855   2.901  11.480  0.0903  0.2898  0.5004
 3933TIP3    H133290   0.813   2.816  11.490 -1.0359  0.7039 -0.5062
 3933TIP3    H233291   0.790   2.964  11.511  0.7611  0.8274  0.8644
 3934TIP3   OH233292   6.340   0.754  12.394 -0.4274 -0.3190 -0.1891
 3934TIP3    H133293   6.375   0.767  12.306  0.0616  1.4123  0.2241
 3934TIP3    H233294   6.418   0.745  12.449 -0.7254 -0.9791  0.1392
 3935TIP3   OH233295   0.906   0.897   1.853  0.1489 -0.1406 -0.8727
 3935TIP3    H133296   0.864   0.891   1.767 -0.6355 -0.5289 -0.4729
 3935TIP3    H233297   0.934   0.808   1.873 -0.4882 -0.2306 -0.3344
 3936TIP3   OH233298   1.456   0.575   5.401  0.0479  0.3062  0.1415
 3936TIP3    H133299   1.370   0.541   5.427  0.1723  1.1509  1.8294
 3936TIP3    H233300   1.437   0.638   5.332 -0.9600  1.7822  1.6579
 3937TIP3   OH233301   4.342   3.635   2.000 -0.7779 -0.1503  0.3442
 3937TIP3    H133302   4.386   3.676   1.926  1.5241 -2.2775  0.3895
 3937TIP3    H233303   4.358   3.694   2.074 -0.9684  0.7756 -0.3408
 3938TIP3   OH233304   1.827   3.735   4.568 -0.1018  0.0001 -0.4445
 3938TIP3    H133305   1.773   3.765   4.641 -0.4992 -1.0331 -0.3005
 3938TIP3    H233306   1.904   3.792   4.571  0.0535 -0.2241  0.9983
 3939TIP3   OH233307   0.510   1.191   4.826  0.2184  0.0042  0.3001
 3939TIP3    H133308   0.444   1.232   4.882  0.6673 -0.3046  1.0702
 3939TIP3    H233309   0.516   1.249   4.750  0.8090  1.3459  1.3404
 3940TIP3   OH233310   0.216   2.727  14.203  0.2852  0.0179  0.0398
 3940TIP3    H133311   0.275   2.688  14.138 -0.0494  0.9571 -0.8641
 3940TIP3    H233312   0.238   2.820  14.202  0.2780  0.0480  1.3074
 3941TIP3   OH233313   3.337   0.469  14.767  0.8252  0.8671 -0.6419
 3941TIP3    H133314   3.253   0.424  14.769  1.5825 -0.7624 -1.9223
 3941TIP3    H233315   3.391   0.422  14.831  0.5309  2.4905  0.8509
 3942TIP3   OH233316   0.336   2.814  11.588  0.2461 -0.3391 -0.1000
 3942TIP3    H133317   0.376   2.890  11.544 -2.9785  1.1829 -0.7178
 3942TIP3    H233318   0.249   2.807  11.548 -0.6974 -2.4896  2.1190
 3943TIP3   OH233319   0.284   5.788  11.183 -0.5225 -0.4645  0.0731
 3943TIP3    H133320   0.335   5.727  11.130 -0.5386 -1.2745  0.9593
 3943TIP3    H233321   0.271   5.742  11.266 -1.8018  0.1590  0.2380
 3944TIP3   OH233322   2.788   1.992   5.447  0.1803  0.5248 -0.0835
 3944TIP3    H133323   2.788   1.981   5.542  1.8899 -0.0211 -0.1073
 3944TIP3    H233324   2.817   1.907   5.413 -0.1106  0.8048 -1.0850
 3945TIP3   OH233325   4.753   2.676  12.726 -0.4504  0.4030 -0.5935
 3945TIP3    H133326   4.737   2.679  12.821  0.5198 -0.6754 -0.3724
 3945TIP3    H233327   4.667   2.663  12.687 -0.7887  0.3020  0.1757
 3946TIP3   OH233328   3.792   4.323  11.021 -0.4723 -0.2943 -0.1096
 3946TIP3    H133329   3.849   4.388  10.979  0.5733 -1.5753 -0.7538
 3946TIP3    H233330   3.703   4.348  10.994  0.0007  0.2068 -1.2852
 3947TIP3   OH233331   6.271   6.540  14.121 -0.2986 -0.5005  0.1575
 3947TIP3    H133332   6.344   6.541  14.059 -0.2192  1.5013  0.2206
 3947TIP3    H233333   6.213   6.610  14.090 -2.1594 -1.9888  0.1542
 3948TIP3   OH233334   0.668   3.145  15.083  0.1445  0.3505 -0.6948
 3948TIP3    H133335   0.731   3.186  15.025  2.8124  0.1432  1.8602
 3948TIP3    H233336   0.720   3.099  15.149 -2.6758 -2.2654  0.0089
 3949TIP3   OH233337   5.517   6.359   5.678 -0.1991  0.3638 -0.0587
 3949TIP3    H133338   5.587   6.303   5.646 -0.0443  0.3419  0.3087
 3949TIP3    H233339   5.444   6.344   5.618  0.2342  0.6726 -0.6752
 3950TIP3   OH233340   0.663   3.078   6.069  0.3793 -0.3559 -0.2506
 3950TIP3    H133341   0.603   3.137   6.023 -1.7311 -1.0494  1.4561
 3950TIP3    H233342   0.638   2.990   6.040  0.4322 -0.6696  0.6205
 3951TIP3   OH233343   5.887   2.366  13.737 -0.2988  0.6310 -0.2690
 3951TIP3    H133344   5.843   2.403  13.660  0.3837  0.6188 -0.6759
 3951TIP3    H233345   5.960   2.316  13.700  0.6411  1.4469  0.4350
 3952TIP3   OH233346   3.541   3.007  14.970 -0.9394 -0.6718 -0.1036
 3952TIP3    H133347   3.590   2.994  15.051 -0.3905  1.4161 -0.0393
 3952TIP3    H233348   3.608   3.016  14.902 -1.3377 -0.6922 -0.5036
 3953TIP3   OH233349   4.075   0.149  17.115 -0.5292  0.2213 -0.3185
 3953TIP3    H133350   4.069   0.244  17.124 -0.2283  0.0932  1.8615
 3953TIP3    H233351   3.992   0.117  17.150 -0.1855 -0.3429 -0.0103
 3954TIP3   OH233352   4.499   1.678   5.663  0.7835  0.1716  0.4725
 3954TIP3    H133353   4.456   1.603   5.621  2.2780 -1.0535  1.0692
 3954TIP3    H233354   4.533   1.730   5.590 -0.9776  0.7635  0.0226
 3955TIP3   OH233355   2.606   4.571  13.083  0.0727  0.8969  0.4487
 3955TIP3    H133356   2.554   4.571  13.003  0.6326 -0.9983  0.0250
 3955TIP3    H233357   2.648   4.656  13.085 -1.7823  1.8708 -0.0197
 3956TIP3   OH233358   3.980   4.082  14.422  0.3175  0.3905  0.3756
 3956TIP3    H133359   3.893   4.061  14.457  0.0085 -0.9608 -1.0623
 3956TIP3    H233360   3.963   4.148  14.356  0.4469  0.4852  0.4385
 3957TIP3   OH233361   1.720   3.223   5.255 -0.1993  0.3612  0.0487
 3957TIP3    H133362   1.651   3.246   5.193  0.4828 -2.1623 -1.8089
 3957TIP3    H233363   1.686   3.145   5.300  0.5064  0.4541  0.7561
 3958TIP3   OH233364   1.903   3.165  13.067 -0.2476  0.2118 -0.3374
 3958TIP3    H133365   1.898   3.201  13.155  0.1594 -1.1460  0.2787
 3958TIP3    H233366   1.812   3.147  13.042 -0.2402 -2.6757  1.2875
 3959TIP3   OH233367   0.665   3.077   1.363  0.3925  0.3441  0.0593
 3959TIP3    H133368   0.691   3.033   1.444  1.5146 -0.6865 -0.8123
 3959TIP3    H233369   0.641   3.166   1.390 -0.0168 -0.1964  1.6055
 3960TIP3   OH233370   5.376   2.895  13.421 -0.5609 -0.1358  0.1666
 3960TIP3    H133371   5.289   2.914  13.384 -0.6431  0.4476  0.6443
 3960TIP3    H233372   5.382   2.951  13.498 -0.1387 -0.8825  0.6931
 3961TIP3   OH233373   5.822   3.452  16.037  0.2138  0.1945  0.3121
 3961TIP3    H133374   5.791   3.410  15.957 -0.1277 -0.2381  0.6687
 3961TIP3    H233375   5.899   3.502  16.010 -0.9591  1.5518 -0.6707
 3962TIP3   OH233376   0.831   2.193   2.348  0.1829 -0.0112  0.4473
 3962TIP3    H133377   0.888   2.213   2.274  0.9294  1.2456  1.3002
 3962TIP3    H233378   0.853   2.261   2.413 -3.0838  1.2722  0.4027
 3963TIP3   OH233379   5.229   2.002   4.849 -0.4793 -0.4285  0.2922
 3963TIP3    H133380   5.276   2.049   4.918 -1.4348 -0.8403  1.2527
 3963TIP3    H233381   5.136   2.011   4.873 -0.9907  0.9288 -1.8815
 3964TIP3   OH233382   2.642   5.754   3.729  0.0454  0.2148  0.5494
 3964TIP3    H133383   2.635   5.746   3.634 -0.5010 -0.4552  0.6412
 3964TIP3    H233384   2.579   5.822   3.752  0.5049  0.7031  0.3908
 3965TIP3   OH233385   4.631   0.147  16.881 -0.5326 -0.1289 -0.0670
 3965TIP3    H133386   4.574   0.175  16.953 -0.9919 -0.1764 -0.4021
 3965TIP3    H233387   4.707   0.108  16.924 -0.6034  0.2258  0.3936
 3966TIP3   OH233388   6.552   2.409   6.125  0.0147  0.2198  0.3083
 3966TIP3    H133389   6.600   2.333   6.157 -1.1601 -0.1980  1.1444
 3966TIP3    H233390   6.508   2.444   6.202  0.2745  1.5703 -0.1232
 3967TIP3   OH233391   2.307   6.717   2.171  0.0256 -0.3714  0.0766
 3967TIP3    H133392   2.257   6.653   2.222 -1.4476 -0.8125 -1.8090
 3967TIP3    H233393   2.367   6.664   2.119  0.1571 -0.0743 -0.0773
 3968TIP3   OH233394   3.608   3.841   0.732 -0.1203  0.0195 -0.4199
 3968TIP3    H133395   3.613   3.907   0.663  1.3095  1.9372  1.3521
 3968TIP3    H233396   3.522   3.855   0.772 -0.8821 -0.9829 -1.6477
 3969TIP3   OH233397   5.937   5.993   4.003 -0.1113 -0.6265  0.1322
 3969TIP3    H133398   5.859   5.996   3.948  0.3034 -1.8718 -0.5738
 3969TIP3    H233399   5.972   6.082   4.001 -1.5939 -0.0138  0.6006
 3970TIP3   OH233400   1.413   6.582   5.675 -0.5038 -0.0698 -0.3163
 3970TIP3    H133401   1.449   6.644   5.738  0.0713 -0.9527  0.2479
 3970TIP3    H233402   1.409   6.631   5.593  3.2941 -0.2266 -0.7796
 3971TIP3   OH233403   2.507   2.222   1.268  0.3135  0.0650 -0.9526
 3971TIP3    H133404   2.488   2.248   1.178 -0.6497  0.5062 -0.6307
 3971TIP3    H233405   2.422   2.199   1.306  0.8132 -1.0221 -0.4257
 3972TIP3   OH233406   4.758   4.485  15.299 -0.4150  0.4251  0.3774
 3972TIP3    H133407   4.733   4.558  15.356 -0.1064  0.7359  0.1186
 3972TIP3    H233408   4.770   4.525  15.213  2.1240  0.5194  0.6992
 3973TIP3   OH233409   6.096   5.172  12.583  0.3774  0.6368  0.1973
 3973TIP3    H133410   6.130   5.133  12.502 -0.0800  0.1949  0.2094
 3973TIP3    H233411   6.166   5.158  12.647  0.0371 -0.6097  0.3197
 3974TIP3   OH233412   2.495   1.326   4.422  0.1894  0.1861 -0.2204
 3974TIP3    H133413   2.506   1.252   4.362 -1.1559 -0.2442  0.0256
 3974TIP3    H233414   2.439   1.293   4.492  1.1137  0.9071  0.8927
 3975TIP3   OH233415   0.962   3.480   5.234 -0.4030  0.4603  0.0035
 3975TIP3    H133416   1.023   3.458   5.164  0.9052  0.7831  1.0050
 3975TIP3    H233417   0.981   3.572   5.255 -2.3555  1.0757 -0.7432
 3976TIP3   OH233418   6.212   4.977   3.687  0.2141 -0.3007  0.0970
 3976TIP3    H133419   6.167   4.911   3.635  0.9375 -0.3248 -0.5253
 3976TIP3    H233420   6.178   4.965   3.775 -1.4297  0.0907 -0.4482
 3977TIP3   OH233421   3.453   1.336  10.404  0.2770 -0.1680  0.0708
 3977TIP3    H133422   3.461   1.246  10.437  1.9638 -0.6556 -1.4590
 3977TIP3    H233423   3.498   1.389  10.469  0.8367 -0.6936  0.1271
 3978TIP3   OH233424   5.722   4.716  13.169  0.2864 -0.2392 -0.1177
 3978TIP3    H133425   5.720   4.731  13.263  0.5083 -0.8572 -0.0108
 3978TIP3    H233426   5.809   4.745  13.141 -0.2527  1.2250 -0.3643
 3979TIP3   OH233427   4.642   4.510   4.550  0.0438  0.1284  0.1307
 3979TIP3    H133428   4.591   4.464   4.484 -1.3411  1.2670  0.3697
 3979TIP3    H233429   4.621   4.467   4.632 -2.1309  1.7846  0.5272
 3980TIP3   OH233430   0.210   3.721  16.588 -0.0662 -0.3225  0.3967
 3980TIP3    H133431   0.214   3.764  16.503 -0.4787 -0.0867  0.4934
 3980TIP3    H233432   0.295   3.679  16.598  1.4012  2.6218  1.4487
 3981TIP3   OH233433   2.522   6.144  15.442 -0.2055  0.8985 -0.1417
 3981TIP3    H133434   2.501   6.058  15.407  2.1847  0.4364 -0.6005
 3981TIP3    H233435   2.465   6.204  15.394  0.0100 -0.1643 -1.8040
 3982TIP3   OH233436   1.452   0.015  11.949 -0.0794 -0.5823 -0.1291
 3982TIP3    H133437   1.359   0.001  11.930 -0.2338 -0.6708  0.6695
 3982TIP3    H233438   1.495   0.007  11.864 -0.6951 -1.4593 -0.3774
 3983TIP3   OH233439   5.702   1.878   4.361  0.0369  0.0325  0.4940
 3983TIP3    H133440   5.612   1.854   4.336  0.3097  0.4638 -0.9641
 3983TIP3    H233441   5.706   1.973   4.347  0.7869 -0.0201  0.3365
 3984TIP3   OH233442   5.145   2.654  14.069  0.1050  0.6415  0.2079
 3984TIP3    H133443   5.141   2.584  14.003 -1.6635  0.5593  0.3594
 3984TIP3    H233444   5.137   2.609  14.153  0.6899  0.8925  0.4041
 3985TIP3   OH233445   4.492   2.446   1.312 -0.8590 -0.9474 -0.2691
 3985TIP3    H133446   4.419   2.442   1.374 -0.7805 -1.7928 -0.2170
 3985TIP3    H233447   4.570   2.426   1.365 -0.5811 -0.0649 -0.3260
 3986TIP3   OH233448   2.107   1.108  12.917 -0.7469  0.7904  0.0927
 3986TIP3    H133449   2.110   1.127  12.823  1.5962 -0.1248 -0.0642
 3986TIP3    H233450   2.152   1.182  12.958 -0.8601  0.6850  0.4108
 3987TIP3   OH233451   6.782   0.672  15.443 -0.9158 -0.0557  0.3183
 3987TIP3    H133452   6.716   0.742  15.437 -1.2054 -0.4001 -0.6730
 3987TIP3    H233453   6.855   0.712  15.489 -1.6267  0.4815  1.0075
 3988TIP3   OH233454   3.345   1.975   3.619  0.2908  0.1288  0.4924
 3988TIP3    H133455   3.341   1.938   3.707 -1.3218 -2.5263 -0.5827
 3988TIP3    H233456   3.306   2.062   3.627  0.3788  0.0188  2.4129
 3989TIP3   OH233457   2.859   3.977   1.802 -0.4225 -0.2150  0.5481
 3989TIP3    H133458   2.924   4.035   1.764 -2.1453  1.2215 -0.3104
 3989TIP3    H233459   2.782   4.032   1.816 -1.5582 -1.9037  1.3037
 3990TIP3   OH233460   0.664   3.454  15.140 -0.1351 -0.0759  0.2787
 3990TIP3    H133461   0.598   3.521  15.121 -0.0424  0.4403  1.6937
 3990TIP3    H233462   0.618   3.371  15.127 -0.9849  0.2782  0.9245
 3991TIP3   OH233463   4.915   3.042   5.717  0.0656 -0.2948  0.5745
 3991TIP3    H133464   4.819   3.045   5.726 -0.0107  0.9863 -0.3419
 3991TIP3    H233465   4.930   2.977   5.648 -0.3270  1.1784 -0.9614
 3992TIP3   OH233466   0.715   3.993   5.194  0.2162  0.2130  0.4242
 3992TIP3    H133467   0.715   4.041   5.277 -1.3462  2.4730 -0.7799
 3992TIP3    H233468   0.799   4.014   5.153  0.1708  0.7036  0.5766
 3993TIP3   OH233469   5.267   4.101  13.120 -0.2057  0.0244  0.3548
 3993TIP3    H133470   5.303   4.064  13.039 -0.3523 -0.8101  0.6633
 3993TIP3    H233471   5.218   4.178  13.091  0.3757  0.1762 -0.2630
 3994TIP3   OH233472   2.359   5.334  16.200  0.0223 -0.1350 -0.1790
 3994TIP3    H133473   2.431   5.275  16.224  0.1331 -0.4805 -1.3078
 3994TIP3    H233474   2.386   5.372  16.116 -0.0209  1.5896  0.5473
 3995TIP3   OH233475   3.494   5.855   0.417  0.2195 -0.1387  0.2334
 3995TIP3    H133476   3.512   5.764   0.442  0.5740 -0.8489 -2.3257
 3995TIP3    H233477   3.399   5.858   0.406  0.1484 -0.0301  0.8229
 3996TIP3   OH233478   4.236   1.903  13.710 -0.0769  0.2245  0.1310
 3996TIP3    H133479   4.237   1.908  13.615 -0.5650 -0.9685  0.0398
 3996TIP3    H233480   4.325   1.880  13.735  0.1695  1.0310  0.0040
 3997TIP3   OH233481   0.861   5.341  11.422  0.1172 -0.1125 -0.2004
 3997TIP3    H133482   0.849   5.425  11.465  0.4091  0.2556 -0.8327
 3997TIP3    H233483   0.922   5.293  11.479 -0.1565  0.0460  0.2278
 3998TIP3   OH233484   6.623   2.840   4.538 -0.3384 -0.6578  0.1251
 3998TIP3    H133485   6.663   2.838   4.625 -0.7393  1.4306  0.4212
 3998TIP3    H233486   6.530   2.854   4.555 -0.6592 -1.7518 -0.6305
 3999TIP3   OH233487   4.589   5.187   5.479 -0.4108 -0.0016  0.6588
 3999TIP3    H133488   4.575   5.100   5.440  2.6684  0.0752 -0.8701
 3999TIP3    H233489   4.651   5.171   5.551 -1.2199  0.7319  1.5481
 4000TIP3   OH233490   5.176   2.219  11.050  0.1522 -0.3879  0.0805
 4000TIP3    H133491   5.261   2.210  11.007  0.4403  2.1902 -0.0383
 4000TIP3    H233492   5.188   2.177  11.135  2.0445  1.1825  0.6549
 4001TIP3   OH233493   2.943   3.690  14.384  0.2195 -0.0110 -0.0162
 4001TIP3    H133494   2.884   3.618  14.360  0.7554 -0.2705 -0.5904
 4001TIP3    H233495   3.025   3.647  14.406  0.0144  0.3023  1.4317
 4002TIP3   OH233496   6.020   3.163   5.098 -0.3397 -0.2404  0.6787
 4002TIP3    H133497   5.999   3.070   5.111 -0.0700 -0.1834  1.6200
 4002TIP3    H233498   6.104   3.175   5.143  0.0320  0.2903 -0.1247
 4003TIP3   OH233499   1.163   4.917  16.525 -0.2308  0.2538 -0.7159
 4003TIP3    H133500   1.236   4.877  16.479  1.1739  0.5697  1.1499
 4003TIP3    H233501   1.202   4.989  16.575 -1.8658  0.6671  0.0372
 4004TIP3   OH233502   0.431   4.552  12.951  0.2013 -0.9362 -0.0324
 4004TIP3    H133503   0.379   4.538  12.872  0.4820 -1.7999 -0.0774
 4004TIP3    H233504   0.484   4.629  12.931 -1.2900  0.1764  0.1478
 4005TIP3   OH233505   2.209   3.505  16.598 -0.2641  0.3874 -0.3095
 4005TIP3    H133506   2.204   3.412  16.575  0.1756  0.1829  0.4038
 4005TIP3    H233507   2.240   3.548  16.518  2.3239 -0.4538  0.1342
 4006TIP3   OH233508   5.819   5.159   5.924  0.0489 -0.1121  0.3718
 4006TIP3    H133509   5.798   5.166   5.831 -1.2286 -1.0060  0.5655
 4006TIP3    H233510   5.868   5.238   5.944  0.9891 -0.2548 -1.2271
 4007TIP3   OH233511   2.560   4.612   1.500  0.5347  0.1668 -0.3128
 4007TIP3    H133512   2.490   4.672   1.525 -0.8282 -1.5926  0.2823
 4007TIP3    H233513   2.529   4.571   1.419  0.9021 -0.6129 -0.0624
 4008TIP3   OH233514   3.450   5.961  16.164 -0.0368 -0.0778 -0.7901
 4008TIP3    H133515   3.471   6.040  16.214  1.0657 -1.2822  0.7329
 4008TIP3    H233516   3.383   5.917  16.215 -0.9409  0.0335 -1.8394
 4009TIP3   OH233517   5.188   5.576  13.824  0.0733  0.8985 -0.1765
 4009TIP3    H133518   5.249   5.650  13.823  0.1097  0.8702 -1.1047
 4009TIP3    H233519   5.220   5.518  13.755 -0.8233  0.7271 -0.4637
 4010TIP3   OH233520   2.790   1.516   5.396 -0.1937  0.0670 -0.1945
 4010TIP3    H133521   2.731   1.571   5.344  1.0125  3.7243  1.9933
 4010TIP3    H233522   2.877   1.537   5.363  0.4813  1.4430  2.2936
 4011TIP3   OH233523   5.371   0.625  16.662  0.4604  0.5049  0.3575
 4011TIP3    H133524   5.407   0.610  16.574  0.7210  0.6275  0.4436
 4011TIP3    H233525   5.329   0.710  16.657 -1.0145 -0.2054 -0.1271
 4012TIP3   OH233526   2.224   0.070   2.693 -0.9165 -0.4689  0.1898
 4012TIP3    H133527   2.301   0.026   2.729  0.9207 -0.0479 -2.8697
 4012TIP3    H233528   2.227   0.158   2.730  0.8306 -0.0853 -0.7549
 4013TIP3   OH233529   4.855   2.739   5.865  0.1661  0.2938  0.1225
 4013TIP3    H133530   4.820   2.808   5.922  0.4934 -0.8024  1.6973
 4013TIP3    H233531   4.781   2.713   5.810 -0.5214  0.4704  0.9537
 4014TIP3   OH233532   5.265   5.846   2.339  0.2204 -0.3450  0.1934
 4014TIP3    H133533   5.178   5.828   2.304  0.3558 -0.6389  0.0037
 4014TIP3    H233534   5.258   5.933   2.379 -0.5494 -0.9554  1.4594
 4015TIP3   OH233535   6.092   1.429   2.648  0.0315  0.3893 -0.1363
 4015TIP3    H133536   6.076   1.382   2.730  0.0576  1.6736  0.6392
 4015TIP3    H233537   6.017   1.408   2.593 -0.8002  0.7690  0.8276
 4016TIP3   OH233538   0.322   4.430   0.173  0.4095 -0.2672 -0.3522
 4016TIP3    H133539   0.304   4.336   0.186  0.6453 -0.0900  1.4933
 4016TIP3    H233540   0.417   4.437   0.181  0.3013  0.2615  0.6551
 4017TIP3   OH233541   3.800   3.308   4.640  0.2681  0.0828  0.3229
 4017TIP3    H133542   3.707   3.284   4.640  0.4022 -0.4706  0.2093
 4017TIP3    H233543   3.801   3.403   4.628 -0.2633 -0.0285 -0.7563
 4018TIP3   OH233544   5.297   4.068  16.995 -0.4045  0.1227  0.0725
 4018TIP3    H133545   5.348   4.149  16.986  0.3816 -0.4897 -1.4527
 4018TIP3    H233546   5.294   4.032  16.906 -3.1654 -0.1046  0.1835
 4019TIP3   OH233547   2.675   6.202  11.333  0.2136  0.2349 -0.2822
 4019TIP3    H133548   2.598   6.259  11.338  0.2947  0.2606  1.6791
 4019TIP3    H233549   2.641   6.113  11.344  0.3000  0.0840 -1.1812
 4020TIP3   OH233550   3.225   0.394  11.995 -0.2341  0.0767 -0.1219
 4020TIP3    H133551   3.152   0.421  12.050  0.3261 -3.1511  2.4985
 4020TIP3    H233552   3.295   0.457  12.016 -1.3207  1.4931 -0.5490
 4021TIP3   OH233553   5.365   1.775   4.924 -0.1861  0.1358  0.2787
 4021TIP3    H133554   5.319   1.800   5.004 -1.6262 -0.1485 -0.4154
 4021TIP3    H233555   5.334   1.837   4.858  0.6870  0.1292 -0.1562
 4022TIP3   OH233556   5.278   1.426   0.667 -0.1989 -0.0929 -0.4999
 4022TIP3    H133557   5.352   1.487   0.666 -2.1819  2.5170  0.1342
 4022TIP3    H233558   5.208   1.474   0.622 -1.3740 -2.6949 -1.6101
 4023TIP3   OH233559   3.823   2.145  16.007 -0.3104 -0.3462 -0.4104
 4023TIP3    H133560   3.838   2.120  15.916 -0.1015  0.0550 -0.4912
 4023TIP3    H233561   3.817   2.062  16.054 -0.4393 -0.5571 -0.7916
 4024TIP3   OH233562   2.277   3.331  13.813 -0.6832 -0.0074  0.4837
 4024TIP3    H133563   2.301   3.238  13.809  0.0147  0.1150  1.4887
 4024TIP3    H233564   2.220   3.344  13.738 -0.6244 -1.2066  0.2109
 4025TIP3   OH233565   0.411   3.785   1.333 -0.0384 -0.1890  0.1407
 4025TIP3    H133566   0.381   3.842   1.263 -0.5720 -2.3170 -1.4369
 4025TIP3    H233567   0.368   3.701   1.317  2.6929 -1.8434  0.8320
 4026TIP3   OH233568   2.040   3.056   3.106 -0.0185  0.0001  0.5534
 4026TIP3    H133569   1.956   3.064   3.151 -0.2563  0.9904 -0.0331
 4026TIP3    H233570   2.104   3.044   3.176 -0.3539  1.7147  1.2003
 4027TIP3   OH233571   2.810   5.066  11.323  0.6536 -1.0260  0.3587
 4027TIP3    H133572   2.866   5.064  11.246 -0.0551  0.2903 -0.2211
 4027TIP3    H233573   2.860   5.115  11.389  1.5453 -2.7358  1.0099
 4028TIP3   OH233574   5.365   1.516   5.533  0.0192 -0.0268 -0.1245
 4028TIP3    H133575   5.277   1.549   5.517 -0.3220 -0.8741 -0.0324
 4028TIP3    H233576   5.420   1.563   5.470 -0.6586 -0.2687 -0.9125
 4029TIP3   OH233577   4.661   2.170  15.342  0.7277  0.3216 -0.6091
 4029TIP3    H133578   4.693   2.198  15.427 -0.9338  0.3586  0.0494
 4029TIP3    H233579   4.607   2.244  15.311  0.2092 -0.2358 -1.0623
 4030TIP3   OH233580   5.807   2.752  12.959  0.2273 -0.4714  0.2779
 4030TIP3    H133581   5.771   2.826  12.909 -0.0397 -1.1464 -0.5565
 4030TIP3    H233582   5.900   2.772  12.967  0.0989  0.1203  0.3555
 4031TIP3   OH233583   3.937   0.780   0.014  0.1160 -0.0127  0.1705
 4031TIP3    H133584   3.940   0.844   0.085  1.6883 -0.5389  0.6279
 4031TIP3    H233585   3.880   0.820  -0.052  0.2685  1.4093  0.8592
 4032TIP3   OH233586   2.573   6.577   2.255 -0.1455  0.4583 -0.6276
 4032TIP3    H133587   2.523   6.540   2.183  1.5757 -0.2562 -1.4984
 4032TIP3    H233588   2.620   6.651   2.216  2.6435 -1.3130 -0.9653
 4033TIP3   OH233589   4.199   1.382   3.716  0.1499 -0.5403 -0.5872
 4033TIP3    H133590   4.255   1.426   3.780 -2.1918  0.3340  0.9912
 4033TIP3    H233591   4.140   1.451   3.685 -1.5765 -1.8876 -0.4136
 4034TIP3   OH233592   3.450   1.008  14.520 -0.3010 -0.6743 -0.0990
 4034TIP3    H133593   3.395   1.070  14.567 -1.3011 -2.5067  1.2740
 4034TIP3    H233594   3.538   1.045  14.526 -0.8951  0.7289  0.4164
 4035TIP3   OH233595   3.381   2.303  13.211 -0.0902  0.2655  0.3242
 4035TIP3    H133596   3.378   2.356  13.290 -1.0702  1.0472 -0.2184
 4035TIP3    H233597   3.466   2.324  13.171  1.0428 -1.1733  1.8266
 4036TIP3   OH233598   4.294   3.255  12.562 -0.2068  0.2176 -0.2243
 4036TIP3    H133599   4.241   3.333  12.580  0.6874  0.7499  0.1468
 4036TIP3    H233600   4.367   3.286  12.509  0.6378 -0.1972  0.6604
 4037TIP3   OH233601   3.046   5.862   4.818 -0.0703 -0.2294  0.1039
 4037TIP3    H133602   3.085   5.798   4.758 -0.5352  0.5578 -1.0569
 4037TIP3    H233603   2.953   5.863   4.795  0.3365  3.0547 -2.0818
 4038TIP3   OH233604   1.817   0.141  11.764 -0.0355 -0.6990  0.0422
 4038TIP3    H133605   1.844   0.075  11.700  2.7730  0.7715 -0.4334
 4038TIP3    H233606   1.771   0.091  11.832  1.2828 -3.0193 -0.6722
 4039TIP3   OH233607   3.065   6.578  15.762  0.0909 -0.0383 -0.5133
 4039TIP3    H133608   3.002   6.523  15.716 -0.8532  0.4460  0.1655
 4039TIP3    H233609   3.104   6.633  15.694 -0.5864  0.0012 -0.8758
 4040TIP3   OH233610   2.716   2.606  16.051 -0.1020  0.5809 -0.3822
 4040TIP3    H133611   2.696   2.527  16.001  1.6814 -0.3424  0.2597
 4040TIP3    H233612   2.793   2.643  16.008  1.4342 -0.1965  1.5439
 4041TIP3   OH233613   0.465   6.486  12.859  0.0798 -0.5527 -0.4476
 4041TIP3    H133614   0.493   6.521  12.943  2.4578  0.2501 -1.4735
 4041TIP3    H233615   0.502   6.546  12.794 -3.7531  0.3183 -2.1174
 4042TIP3   OH233616   1.866   3.494  11.912 -0.2114 -0.4403 -0.4530
 4042TIP3    H133617   1.772   3.493  11.892 -0.0496  1.3288 -1.5270
 4042TIP3    H233618   1.908   3.506  11.827  0.9001  0.1848  0.1651
 4043TIP3   OH233619   0.167   5.302   4.654 -0.2828  0.0489  0.3632
 4043TIP3    H133620   0.241   5.254   4.618 -0.3807 -0.8331  1.3097
 4043TIP3    H233621   0.193   5.325   4.743 -1.4904 -1.1213  1.0555
 4044TIP3   OH233622   2.292   3.894   4.936 -0.4875  0.0952  0.5825
 4044TIP3    H133623   2.228   3.950   4.981 -0.0946 -0.1279  1.4332
 4044TIP3    H233624   2.376   3.935   4.954 -0.3304  0.0573 -0.0480
 4045TIP3   OH233625   6.774   3.242   2.629  0.1774 -0.4427  0.0141
 4045TIP3    H133626   6.692   3.210   2.592 -0.2555  0.7803 -0.1173
 4045TIP3    H233627   6.748   3.290   2.707  0.9835 -1.9485  1.2702
 4046TIP3   OH233628   1.467   1.447  15.822  0.0568 -0.0256  0.3608
 4046TIP3    H133629   1.450   1.352  15.825 -1.3581  0.0686 -1.9315
 4046TIP3    H233630   1.395   1.485  15.873  0.7987 -0.1457  1.5481
 4047TIP3   OH233631   2.656   4.672   4.934  0.0457 -0.2734  0.2305
 4047TIP3    H133632   2.699   4.588   4.917 -2.0918 -1.8790  2.0770
 4047TIP3    H233633   2.707   4.712   5.004  0.0503 -0.9152  0.6012
 4048TIP3   OH233634   5.662   2.637   3.047 -0.3018  0.7500  0.5129
 4048TIP3    H133635   5.715   2.593   2.980 -0.4708  0.5026  0.5391
 4048TIP3    H233636   5.721   2.646   3.122  0.0429  1.4776  0.1642
 4049TIP3   OH233637   3.775   4.050  13.139  0.1920 -0.6386 -0.1621
 4049TIP3    H133638   3.689   4.055  13.096 -0.0106 -0.9761  0.1874
 4049TIP3    H233639   3.838   4.075  13.072 -0.1028 -1.3344 -0.7118
 4050TIP3   OH233640   0.105   6.305   5.797  0.2873  0.3740 -0.2251
 4050TIP3    H133641   0.145   6.268   5.718  1.2205 -1.5376  1.0587
 4050TIP3    H233642   0.025   6.347   5.766  0.4856 -0.5594 -2.1436
 4051TIP3   OH233643   6.041   3.886   0.267  0.1355 -0.0161  0.1700
 4051TIP3    H133644   6.018   3.968   0.224 -0.6733  0.2269  1.0269
 4051TIP3    H233645   6.067   3.911   0.356 -0.3792 -0.6987  0.5280
 4052TIP3   OH233646   2.583   5.084   1.102 -0.1110 -0.1073 -0.1231
 4052TIP3    H133647   2.565   5.003   1.151 -1.5991 -0.7464 -1.6050
 4052TIP3    H233648   2.555   5.064   1.012  1.1400  1.4973 -0.9253
 4053TIP3   OH233649   3.530   2.454   4.970  0.4106 -0.0604 -0.4075
 4053TIP3    H133650   3.439   2.482   4.965  0.6723  0.7398 -0.8515
 4053TIP3    H233651   3.571   2.513   5.033  0.3192 -1.3066  0.8589
 4054TIP3   OH233652   1.876   5.491   1.114  0.1965 -0.1573 -0.5998
 4054TIP3    H133653   1.842   5.552   1.179 -0.4225  0.0120 -1.0738
 4054TIP3    H233654   1.820   5.504   1.038  0.8956 -0.3659 -1.1629
 4055TIP3   OH233655   2.776   5.689   4.018  0.6484  0.4171  0.3611
 4055TIP3    H133656   2.755   5.732   3.935  0.3969 -2.2571 -1.0852
 4055TIP3    H233657   2.694   5.648   4.045  0.5826  1.7383  2.3050
 4056TIP3   OH233658   4.412   1.539   5.035  0.2809 -0.0498  0.3646
 4056TIP3    H133659   4.448   1.583   4.958  1.2668 -2.4569 -0.6556
 4056TIP3    H233660   4.317   1.545   5.025  0.3975  0.8736 -0.2874
 4057TIP3   OH233661   1.944   3.672   1.983  0.0678  0.1185 -0.0574
 4057TIP3    H133662   1.884   3.705   1.916  1.1443  0.7596 -0.7311
 4057TIP3    H233663   2.005   3.745   1.998  2.9472 -1.6847 -2.0453
 4058TIP3   OH233664   0.798   6.540  11.641 -0.1900  0.2555 -0.1512
 4058TIP3    H133665   0.732   6.499  11.585 -0.2505  0.3348 -0.1381
 4058TIP3    H233666   0.877   6.545  11.586  0.7047 -2.5084  0.7390
 4059TIP3   OH233667   5.607   0.002  16.317  0.5429 -0.5389  0.2078
 4059TIP3    H133668   5.661   0.014  16.396 -1.6872 -1.3902  1.9873
 4059TIP3    H233669   5.518   0.024  16.345 -0.0541  1.5100 -2.7866
 4060TIP3   OH233670   4.215   0.778  15.723 -0.5122 -0.1408 -0.0077
 4060TIP3    H133671   4.139   0.766  15.665 -0.7009  0.8480  0.0156
 4060TIP3    H233672   4.209   0.869  15.752 -0.6400 -0.6908  1.8688
 4061TIP3   OH233673   5.393   2.802  12.404  0.0610 -0.1723  0.0394
 4061TIP3    H133674   5.308   2.846  12.400 -0.4897 -1.2507 -0.4649
 4061TIP3    H233675   5.434   2.820  12.319 -0.4091 -1.0887 -0.3915
 4062TIP3   OH233676   4.728   3.822  16.354  0.0348  0.4975  0.0965
 4062TIP3    H133677   4.775   3.760  16.299 -0.2202  0.8377 -0.5175
 4062TIP3    H233678   4.792   3.851  16.418  0.1337 -0.4617  0.4529
 4063TIP3   OH233679   2.336   0.466  14.136  0.2630  0.3071  0.3472
 4063TIP3    H133680   2.304   0.420  14.214 -1.6472  1.6547  0.4207
 4063TIP3    H233681   2.267   0.453  14.071  2.3569 -1.8418 -1.6455
 4064TIP3   OH233682   2.510   1.096  15.211  0.2921  0.3074  0.7197
 4064TIP3    H133683   2.517   1.012  15.257  1.2912 -0.3992 -0.6385
 4064TIP3    H233684   2.596   1.108  15.170 -0.4105  1.0887 -0.5980
 4065TIP3   OH233685   5.710   5.615  16.486 -0.4596 -0.3176 -0.1297
 4065TIP3    H133686   5.703   5.575  16.399 -1.8446  0.7136 -0.5386
 4065TIP3    H233687   5.731   5.706  16.469 -3.9482  0.7430  0.3209
 4066TIP3   OH233688   6.174   3.500   0.616 -0.2871  0.1761  0.1983
 4066TIP3    H133689   6.225   3.431   0.659 -0.7016 -0.1181  0.2353
 4066TIP3    H233690   6.197   3.580   0.663 -0.8619 -0.1690  1.1069
 4067TIP3   OH233691   5.136   4.503   1.417  0.7375 -0.2859  0.4616
 4067TIP3    H133692   5.195   4.552   1.474  0.0274  1.6442 -0.3724
 4067TIP3    H233693   5.049   4.517   1.455  0.3000  0.7179 -0.8183
 4068TIP3   OH233694   2.069   5.088  12.967  0.3748 -0.1597  0.1900
 4068TIP3    H133695   2.103   5.040  12.891  1.7849  0.7885  0.1965
 4068TIP3    H233696   2.081   5.180  12.945  0.0364  0.1484  1.2312
 4069TIP3   OH233697   0.087   5.147   2.539 -0.5045 -0.2194  0.2837
 4069TIP3    H133698   0.010   5.191   2.575 -1.1056 -1.1413  0.1641
 4069TIP3    H233699   0.073   5.054   2.558 -0.4889 -0.6661 -1.5977
 4070TIP3   OH233700   6.486   3.470   2.782 -0.4408  1.0515 -0.6272
 4070TIP3    H133701   6.524   3.469   2.870 -1.9494 -1.8350  0.0993
 4070TIP3    H233702   6.558   3.499   2.726  1.8455 -0.9098  1.0818
 4071TIP3   OH233703   5.679   4.361  12.618  0.4125 -0.0944 -0.2846
 4071TIP3    H133704   5.730   4.356  12.700 -0.8087  0.3629  0.5249
 4071TIP3    H233705   5.680   4.453  12.595 -1.5567  0.2458  0.7625
 4072TIP3   OH233706   1.647   1.845  15.697  0.2205  0.3566  0.3330
 4072TIP3    H133707   1.656   1.751  15.685  2.0404  0.4436  0.7236
 4072TIP3    H233708   1.553   1.860  15.702 -0.0753 -1.6329  1.7158
 4073TIP3   OH233709   3.276   5.682  10.580  0.3433 -0.0173  0.3241
 4073TIP3    H133710   3.197   5.648  10.540  0.6767 -2.0240  1.2542
 4073TIP3    H233711   3.278   5.642  10.667  3.2913 -1.6025 -0.3204
 4074TIP3   OH233712   5.844   1.311   3.279  0.2196  0.8759  0.1147
 4074TIP3    H133713   5.816   1.230   3.320  0.4013  1.2513  1.0037
 4074TIP3    H233714   5.939   1.309   3.283  0.2091  1.4813  0.8505
 4075TIP3   OH233715   6.678   5.795  10.594 -0.5880  0.6149 -0.1108
 4075TIP3    H133716   6.705   5.704  10.585 -0.6855  0.6943 -1.2967
 4075TIP3    H233717   6.589   5.797  10.558 -1.2123  0.8728  1.3608
 4076TIP3   OH233718   4.890   4.695   6.639  0.2445 -0.5039 -0.0620
 4076TIP3    H133719   4.881   4.615   6.691  0.8549 -1.8330 -1.8681
 4076TIP3    H233720   4.976   4.687   6.597 -0.5962 -0.0059 -1.9959
 4077TIP3   OH233721   1.477   2.471  14.527 -1.1206  0.1532 -0.1870
 4077TIP3    H133722   1.385   2.486  14.506 -1.4177  1.8229  1.9054
 4077TIP3    H233723   1.496   2.535  14.596  2.0450  0.9169 -1.6269
 4078TIP3   OH233724   3.573   3.645  15.571 -0.4973  0.2520 -0.0483
 4078TIP3    H133725   3.598   3.730  15.534  1.1221 -0.5473 -0.8947
 4078TIP3    H233726   3.616   3.643  15.657 -0.7995  0.4057  0.1087
 4079TIP3   OH233727   5.578   1.701   1.831 -0.2996  0.1464 -0.0421
 4079TIP3    H133728   5.619   1.635   1.887 -0.8460  1.6610  2.2957
 4079TIP3    H233729   5.651   1.738   1.780  0.1992 -1.3224 -0.4477
 4080TIP3   OH233730   3.410   6.021   3.020 -0.0580 -0.3338 -0.0371
 4080TIP3    H133731   3.375   6.110   3.020  0.7413 -0.0053  0.7853
 4080TIP3    H233732   3.505   6.033   3.023  0.0487 -1.2126  0.1930
 4081TIP3   OH233733   1.006   3.904  14.760 -0.5716 -0.2687  0.1584
 4081TIP3    H133734   1.057   3.965  14.706 -1.5342  0.8560  0.4740
 4081TIP3    H233735   1.017   3.938  14.849  0.7971 -1.9522  0.6851
 4082TIP3   OH233736   5.328   1.157  16.878 -0.0076  0.3423  0.6204
 4082TIP3    H133737   5.332   1.165  16.783 -0.2252 -0.4173  0.5402
 4082TIP3    H233738   5.395   1.218  16.910  1.9251 -1.2925 -0.1109
 4083TIP3   OH233739   6.636   3.820  14.859 -0.4584 -0.1217 -0.0426
 4083TIP3    H133740   6.668   3.741  14.903  0.5825 -1.1164 -2.4324
 4083TIP3    H233741   6.548   3.798  14.831 -0.1890 -0.4324 -0.6584
 4084TIP3   OH233742   1.817   3.690  13.996  0.3762 -0.0505 -0.1716
 4084TIP3    H133743   1.819   3.682  14.091  0.6441 -2.3912 -0.3283
 4084TIP3    H233744   1.725   3.682  13.973  0.4311 -0.6836 -0.1803
 4085TIP3   OH233745   0.471   2.612   1.727 -0.2381  0.1725  0.0740
 4085TIP3    H133746   0.440   2.701   1.745  0.4345  0.2685  0.8136
 4085TIP3    H233747   0.562   2.612   1.756 -0.8634 -1.4184  2.2565
 4086TIP3   OH233748   2.606   2.230   6.234 -0.0569 -0.2025  0.0960
 4086TIP3    H133749   2.666   2.252   6.305 -0.5900  0.4808  0.3457
 4086TIP3    H233750   2.620   2.136   6.219 -0.9145 -0.6860  2.0603
 4087TIP3   OH233751   0.512   3.949  12.409  0.0922  0.6466 -0.5840
 4087TIP3    H133752   0.551   3.862  12.401  1.6435  1.3204 -0.7222
 4087TIP3    H233753   0.461   3.946  12.490  1.8456  0.2330  0.5402
 4088TIP3   OH233754   3.068   6.308  17.110 -0.1680  0.4856  0.0778
 4088TIP3    H133755   2.991   6.294  17.166 -0.0427  0.5371  0.2641
 4088TIP3    H233756   3.130   6.240  17.137 -0.9346 -0.8914 -1.4995
 4089TIP3   OH233757   6.777   6.380   2.059  0.5440 -0.2487  0.5692
 4089TIP3    H133758   6.716   6.346   2.126 -1.4801  0.5391 -0.7898
 4089TIP3    H233759   6.753   6.334   1.979  0.2973  1.6122 -0.4702
 4090TIP3   OH233760   3.633   1.440   0.379 -0.8354  0.0450  0.4956
 4090TIP3    H133761   3.608   1.393   0.459 -1.4830 -0.2395  0.1382
 4090TIP3    H233762   3.684   1.377   0.329 -0.0430  0.3720  0.8796
 4091TIP3   OH233763   0.732   4.959   5.395  1.0980 -0.7975  0.5685
 4091TIP3    H133764   0.750   5.013   5.473  0.4561 -1.0728  0.9141
 4091TIP3    H233765   0.668   5.010   5.346  0.5939 -1.1778  0.8269
 4092TIP3   OH233766   1.582   2.333  14.160  0.4173  0.3949  0.2558
 4092TIP3    H133767   1.628   2.376  14.089 -1.6737  0.2932 -1.2430
 4092TIP3    H233768   1.490   2.338  14.136 -0.3475  0.0401  2.8059
 4093TIP3   OH233769   6.351   2.256  15.742 -0.2283  0.4736  0.1723
 4093TIP3    H133770   6.334   2.336  15.791  1.3075  0.8659  0.1347
 4093TIP3    H233771   6.299   2.265  15.662 -2.5490 -0.0519  1.5249
 4094TIP3   OH233772   1.375   4.557   2.186  0.0239  0.7158  0.2660
 4094TIP3    H133773   1.332   4.474   2.206 -1.0087  0.9742 -0.7770
 4094TIP3    H233774   1.311   4.624   2.210  1.0180  1.2616  1.5242
 4095TIP3   OH233775   0.303   3.221   4.099  0.5913  0.5805 -0.4675
 4095TIP3    H133776   0.288   3.204   4.192  0.9153  1.8727 -0.1603
 4095TIP3    H233777   0.397   3.241   4.093  0.2066  2.5731 -0.6900
 4096TIP3   OH233778   1.789   1.594  15.323 -0.4061  0.2632 -0.0883
 4096TIP3    H133779   1.746   1.678  15.337  1.0303  1.4309 -2.1668
 4096TIP3    H233780   1.864   1.595  15.382 -1.2912 -0.3480  1.1068
 4097TIP3   OH233781   0.583   1.405  15.165 -0.0713 -0.3618 -0.2775
 4097TIP3    H133782   0.538   1.321  15.162 -0.4612 -0.1415 -0.7266
 4097TIP3    H233783   0.599   1.421  15.258 -1.6663 -0.0566 -0.0236
 4098TIP3   OH233784   6.589   0.779   4.597 -0.3928 -0.2976 -0.1867
 4098TIP3    H133785   6.520   0.721   4.628  0.7657 -1.0904  1.0273
 4098TIP3    H233786   6.584   0.855   4.653 -0.6884 -0.0599 -0.5306
 4099TIP3   OH233787   0.057   0.755   2.607  0.1644  0.5518 -0.3183
 4099TIP3    H133788   0.026   0.762   2.697 -1.8006 -0.0971 -0.8887
 4099TIP3    H233789   0.006   0.820   2.559 -0.2173 -0.4440 -1.2919
 4100TIP3   OH233790   0.514   4.509  14.224  0.5886 -0.0411  0.3708
 4100TIP3    H133791   0.545   4.453  14.153 -0.6595  0.9298 -1.0252
 4100TIP3    H233792   0.447   4.457  14.268  0.1451 -0.0357 -0.2803
 4101TIP3   OH233793   0.627   1.450  13.941 -0.3885  0.3028 -0.1192
 4101TIP3    H133794   0.644   1.515  14.009  1.3627 -0.4331  0.2074
 4101TIP3    H233795   0.535   1.426  13.953 -0.1734  0.2761  1.9431
 4102TIP3   OH233796   5.279   4.600   5.189 -0.1127 -0.7725  0.1167
 4102TIP3    H133797   5.373   4.587   5.207  0.1056  0.5138 -0.0156
 4102TIP3    H233798   5.273   4.598   5.093  0.1346  1.2200  0.0221
 4103TIP3   OH233799   1.073   3.929   2.499 -0.4239  0.1104  0.1613
 4103TIP3    H133800   1.163   3.957   2.513 -0.5092 -0.2737  1.7048
 4103TIP3    H233801   1.057   3.864   2.569 -1.7528 -0.1410 -0.3399
 4104TIP3   OH233802   2.178   0.956   4.232 -0.0868 -0.2872 -0.4428
 4104TIP3    H133803   2.247   0.978   4.294 -0.4419  1.1244 -0.5087
 4104TIP3    H233804   2.142   1.041   4.205  0.5249 -0.8086 -3.1380
 4105TIP3   OH233805   3.245   0.345   1.873  0.4790  0.2680 -0.0470
 4105TIP3    H133806   3.234   0.311   1.784 -0.8367  1.7882 -0.5003
 4105TIP3    H233807   3.314   0.411   1.865 -0.6568  1.4568 -0.2647
 4106TIP3   OH233808   2.302   4.566   0.504 -0.2228 -0.1544 -0.2347
 4106TIP3    H133809   2.209   4.560   0.481 -0.0407  0.2732 -1.1332
 4106TIP3    H233810   2.323   4.481   0.543 -0.4536 -1.1263 -2.0855
 4107TIP3   OH233811   4.686   2.035  13.228  0.3073 -0.3768  0.5987
 4107TIP3    H133812   4.709   1.994  13.311 -0.8815 -1.7965  0.2479
 4107TIP3    H233813   4.769   2.038  13.179  1.0461  0.5841  1.8265
 4108TIP3   OH233814   3.198   6.734   2.142  0.1734  0.0591  0.3485
 4108TIP3    H133815   3.168   6.775   2.223 -0.2064  1.9240 -0.6875
 4108TIP3    H233816   3.280   6.779   2.121  1.1397 -1.5330  0.5087
 4109TIP3   OH233817   0.526   6.627  12.611 -0.3206 -0.5600 -0.6347
 4109TIP3    H133818   0.612   6.668  12.617 -0.7072  0.1743 -0.0376
 4109TIP3    H233819   0.530   6.575  12.530  0.8531 -0.9485 -0.3539
 4110TIP3   OH233820   0.891   3.887   0.693 -0.5351  0.1309  0.1446
 4110TIP3    H133821   0.839   3.817   0.733 -1.1052  0.4812  0.0250
 4110TIP3    H233822   0.864   3.967   0.739 -0.1995  0.3378 -0.0099
 4111TIP3   OH233823   6.336   4.260   0.660  0.3441 -0.1241 -0.0070
 4111TIP3    H133824   6.390   4.331   0.696 -0.2164 -0.3427  1.3165
 4111TIP3    H233825   6.272   4.305   0.604 -0.3156  0.4891  1.1985
 4112TIP3   OH233826   6.227   0.979  11.024 -0.9650  0.3319  0.2657
 4112TIP3    H133827   6.250   0.985  10.932 -1.1618  0.3263  0.2168
 4112TIP3    H233828   6.259   0.893  11.051  1.4276  1.3190  0.8554
 4113TIP3   OH233829   5.404   5.645   2.089 -0.1073 -0.1915  0.7381
 4113TIP3    H133830   5.420   5.698   2.167  0.0522 -1.0282  1.2917
 4113TIP3    H233831   5.384   5.709   2.020  2.5571  0.7471  0.7332
 4114TIP3   OH233832   1.099   6.296   2.067  0.5141 -0.0453 -0.5203
 4114TIP3    H133833   1.100   6.331   2.156 -0.1194  1.2126 -0.9890
 4114TIP3    H233834   1.184   6.320   2.031  0.8532 -0.7367 -0.2027
 4115TIP3   OH233835   1.063   3.443  16.921  0.0981  0.3153  0.1230
 4115TIP3    H133836   0.991   3.413  16.976 -0.0483  2.2119  1.0465
 4115TIP3    H233837   1.022   3.497  16.854  0.4358 -0.7084 -0.9388
 4116TIP3   OH233838   2.094   2.004   0.610  0.1017 -0.2295 -0.1869
 4116TIP3    H133839   2.059   1.996   0.522 -0.6381  1.1705 -0.0404
 4116TIP3    H233840   2.180   2.044   0.599  0.7344 -1.5793 -0.3714
 4117TIP3   OH233841   4.754   3.312   2.112 -0.1767 -0.2076  0.0733
 4117TIP3    H133842   4.672   3.267   2.088 -1.6395  0.6679  2.9540
 4117TIP3    H233843   4.731   3.405   2.109  0.9828  0.0876  0.1726
 4118TIP3   OH233844   0.927   1.124   0.725  0.2090  0.3493  0.0091
 4118TIP3    H133845   0.932   1.160   0.636 -1.2212 -0.1537 -0.3085
 4118TIP3    H233846   0.884   1.193   0.776  0.1644  0.2613  0.0898
 4119TIP3   OH233847   6.602   6.554  15.511  0.1007 -0.0932  0.1287
 4119TIP3    H133848   6.533   6.504  15.555 -0.2228  1.6165  1.7070
 4119TIP3    H233849   6.605   6.518  15.423 -3.6496  0.5018 -0.4257
 4120TIP3   OH233850   1.233   1.759  14.375 -0.2393 -0.7582  0.1998
 4120TIP3    H133851   1.255   1.746  14.467  2.2192  0.7189 -0.0678
 4120TIP3    H233852   1.142   1.788  14.376  0.4561  1.8319  2.5153
 4121TIP3   OH233853   5.613   1.209  11.364  0.1153 -0.2695  0.3942
 4121TIP3    H133854   5.641   1.228  11.453  0.2919 -1.9919  0.7327
 4121TIP3    H233855   5.590   1.116  11.364 -1.4533  0.0589 -0.9550
 4122TIP3   OH233856   1.513   4.351  11.239  0.5131 -0.0478  0.3708
 4122TIP3    H133857   1.419   4.346  11.258  0.4897 -0.6163  0.1345
 4122TIP3    H233858   1.534   4.266  11.200  0.6121  0.9075 -1.8091
 4123TIP3   OH233859   2.844   2.551   0.305  0.3953  1.1908  0.3469
 4123TIP3    H133860   2.798   2.474   0.339  0.7563  0.3608 -0.9308
 4123TIP3    H233861   2.900   2.580   0.376  0.5452  0.0082  0.7267
 4124TIP3   OH233862   4.392   4.430  14.739 -0.1134 -0.4353 -0.2397
 4124TIP3    H133863   4.362   4.470  14.657 -1.2579  0.6654  0.6771
 4124TIP3    H233864   4.463   4.487  14.769 -0.1525 -0.4414 -0.1338
 4125TIP3   OH233865   1.089   2.795  16.252 -0.6175 -0.4559 -0.4396
 4125TIP3    H133866   1.155   2.726  16.261 -0.4185 -0.2359 -0.1931
 4125TIP3    H233867   1.094   2.821  16.160 -1.4911 -1.5573 -0.8244
 4126TIP3   OH233868   2.971   5.442  16.040 -0.0954 -0.1359 -0.1310
 4126TIP3    H133869   2.980   5.364  16.095 -0.8103 -0.4794 -0.4811
 4126TIP3    H233870   3.048   5.495  16.061  1.5602 -1.8800 -1.4071
 4127TIP3   OH233871   5.116   4.073  15.341  0.5180  0.1662 -0.3057
 4127TIP3    H133872   5.188   4.100  15.285 -1.4511 -2.0399 -4.3121
 4127TIP3    H233873   5.128   3.978  15.351 -2.2933 -0.5392 -2.2080
 4128TIP3   OH233874   6.055   4.110  14.013  0.4689  0.0233  0.1668
 4128TIP3    H133875   6.113   4.185  14.021  1.1268 -0.5812  1.4261
 4128TIP3    H233876   5.969   4.147  13.994  0.7928  1.0886  0.7055
 4129TIP3   OH233877   0.340   2.263  12.682  0.0089 -0.3100 -0.0601
 4129TIP3    H133878   0.269   2.312  12.641 -0.0138  1.7987  2.2596
 4129TIP3    H233879   0.406   2.330  12.702  1.3828 -1.7596  0.4696
 4130TIP3   OH233880   2.096   5.832  14.498  0.0975 -0.5886  0.5274
 4130TIP3    H133881   2.008   5.824  14.535 -1.0466 -0.0532 -1.8682
 4130TIP3    H233882   2.083   5.830  14.403  2.4221  1.6443  0.0245
 4131TIP3   OH233883   0.053   4.836  15.379  0.6006  0.4318  0.2169
 4131TIP3    H133884   0.112   4.780  15.329 -1.4152 -1.5543 -0.0957
 4131TIP3    H233885   0.027   4.782  15.454 -2.3637  0.3566 -0.7377
 4132TIP3   OH233886   5.627   4.000  16.097 -0.5398 -0.1172  0.2302
 4132TIP3    H133887   5.666   3.950  16.025 -2.9516 -0.3676 -0.9848
 4132TIP3    H233888   5.579   3.935  16.148 -1.4690  0.5552  0.2200
 4133TIP3   OH233889   4.635   2.771   1.183 -0.5920  0.0697 -0.2840
 4133TIP3    H133890   4.704   2.706   1.171  1.3002  2.1030 -1.1549
 4133TIP3    H233891   4.615   2.803   1.095 -0.4569  1.6157  0.2051
 4134TIP3   OH233892   5.802   2.682  13.538 -0.4946 -0.3461 -0.0372
 4134TIP3    H133893   5.811   2.606  13.481  0.2271  0.0411 -0.4491
 4134TIP3    H233894   5.886   2.688  13.584  0.0406  1.0815 -1.1230
 4135TIP3   OH233895   3.347   6.252   4.678  0.0649 -0.2090  0.0410
 4135TIP3    H133896   3.425   6.243   4.732 -1.1042 -1.1142  1.6558
 4135TIP3    H233897   3.380   6.274   4.590  2.0726 -0.1131  0.7879
 4136TIP3   OH233898   5.524   3.750  12.667 -0.0541  0.1599 -0.2738
 4136TIP3    H133899   5.570   3.824  12.706  1.0803 -0.0672 -1.1720
 4136TIP3    H233900   5.494   3.782  12.582 -0.3622 -0.1292 -0.2761
 4137TIP3   OH233901   5.605   2.920   5.376  0.0155  0.2727 -0.3287
 4137TIP3    H133902   5.627   3.012   5.368  0.7124  0.0498 -1.0574
 4137TIP3    H233903   5.678   2.881   5.424 -0.3521  0.1249  0.1201
 4138TIP3   OH233904   0.140   4.140   3.994  0.0299 -0.4842  0.2577
 4138TIP3    H133905   0.188   4.058   4.005  0.3635 -0.5342 -1.2935
 4138TIP3    H233906   0.067   4.118   3.937 -0.1975  0.1940  0.2740
 4139TIP3   OH233907   6.393   1.405   3.950 -0.5685  0.0267  0.1482
 4139TIP3    H133908   6.462   1.357   3.904 -0.4104  1.8393 -1.6152
 4139TIP3    H233909   6.438   1.481   3.988 -1.0684 -0.3958  1.6398
 4140TIP3   OH233910   4.715   6.632  13.828 -0.2045 -0.5504 -0.7331
 4140TIP3    H133911   4.761   6.689  13.767 -0.4166 -2.7915 -3.1998
 4140TIP3    H233912   4.636   6.605  13.781 -2.0941  0.0765  1.8366
 4141TIP3   OH233913   0.766   3.731  11.322  0.2495 -0.2374 -0.1448
 4141TIP3    H133914   0.744   3.757  11.233 -1.4707 -0.5358  0.1635
 4141TIP3    H233915   0.780   3.636  11.316  1.1507 -0.1034 -0.2712
 4142TIP3   OH233916   6.805   2.257  16.599  0.2335 -0.4403 -0.3693
 4142TIP3    H133917   6.869   2.274  16.669 -0.3374  1.9936 -0.3460
 4142TIP3    H233918   6.735   2.320  16.616 -2.1434 -2.8716 -0.5146
 4143TIP3   OH233919   3.666   0.786   5.434  0.4418  0.6520 -0.1730
 4143TIP3    H133920   3.669   0.707   5.380 -0.7856  0.1835  0.4020
 4143TIP3    H233921   3.575   0.791   5.463  1.0546  0.9210  1.8234
 4144TIP3   OH233922   3.704   2.797  14.727 -0.5801  0.0735 -0.3789
 4144TIP3    H133923   3.637   2.766  14.789 -1.9802  2.4155 -0.6360
 4144TIP3    H233924   3.705   2.730  14.658 -0.9410 -1.1944  0.7919
 4145TIP3   OH233925   2.717   1.293   2.258 -0.1039 -0.5832 -0.4527
 4145TIP3    H133926   2.757   1.375   2.228  1.6717 -0.8527  1.0012
 4145TIP3    H233927   2.656   1.320   2.326  1.3546 -0.5075  0.8710
 4146TIP3   OH233928   0.130   0.199  12.944  0.2353 -0.0708 -0.4767
 4146TIP3    H133929   0.153   0.207  12.851  0.8860  0.4554 -0.2778
 4146TIP3    H233930   0.057   0.137  12.945  0.7178 -0.6718 -1.2666
 4147TIP3   OH233931   4.944   2.337   1.395  0.0392 -0.4241 -0.5992
 4147TIP3    H133932   5.014   2.322   1.331  0.6903 -0.0448  0.0052
 4147TIP3    H233933   4.988   2.381   1.468 -0.7544 -0.5601 -0.0309
 4148TIP3   OH233934   5.292   1.445   4.419  0.1196  0.2355 -0.3760
 4148TIP3    H133935   5.225   1.402   4.366 -1.6936  0.6811  1.4086
 4148TIP3    H233936   5.371   1.442   4.365 -1.5510  0.6129 -3.0500
 4149TIP3   OH233937   1.386   4.179  16.477 -0.0486 -0.1945  0.0691
 4149TIP3    H133938   1.390   4.246  16.408  0.0180  0.3039  0.5560
 4149TIP3    H233939   1.324   4.214  16.541 -0.6078 -0.9509 -0.0408
 4150TIP3   OH233940   2.083   3.039  12.088 -0.3704  0.0856 -0.5800
 4150TIP3    H133941   2.037   2.993  12.158  0.0664  1.2610  0.4968
 4150TIP3    H233942   2.064   2.987  12.010 -1.7209 -0.6700  0.2098
 4151TIP3   OH233943   0.352   6.383  11.065  0.0549  0.2151 -0.0060
 4151TIP3    H133944   0.321   6.313  11.007  2.7863 -0.7866 -0.3698
 4151TIP3    H233945   0.344   6.463  11.013 -0.7882 -0.1584 -0.4693
 4152TIP3   OH233946   5.322   3.926  16.768  0.7302  0.3108  0.6148
 4152TIP3    H133947   5.371   3.845  16.780 -0.1309 -0.1243  1.2546
 4152TIP3    H233948   5.367   3.971  16.696  2.5026  0.2642  1.6438
 4153TIP3   OH233949   6.741   2.989   0.339 -0.5491  0.4375 -0.4765
 4153TIP3    H133950   6.726   2.901   0.305 -1.6855  0.6230 -0.5111
 4153TIP3    H233951   6.767   2.975   0.430 -0.3709  0.0583 -0.5836
 4154TIP3   OH233952   2.171   0.357  15.184  0.6229 -0.2014 -0.0767
 4154TIP3    H133953   2.210   0.345  15.271  0.7628 -1.1547 -0.2548
 4154TIP3    H233954   2.077   0.356  15.200  0.6553  0.2793  0.1440
 4155TIP3   OH233955   6.277   5.710  13.272 -0.2463 -0.1113 -0.2033
 4155TIP3    H133956   6.335   5.769  13.321  0.4141 -1.7407  1.0606
 4155TIP3    H233957   6.332   5.674  13.203 -0.0360 -0.8617  0.3500
 4156TIP3   OH233958   5.641   5.638   3.158  0.7652 -0.1221  0.2632
 4156TIP3    H133959   5.646   5.733   3.154  1.8255 -0.1236  1.0741
 4156TIP3    H233960   5.680   5.616   3.243  2.7998 -1.4031 -0.9173
 4157TIP3   OH233961   3.142   2.237   1.876 -0.1921 -0.3779 -0.0292
 4157TIP3    H133962   3.215   2.209   1.931 -0.6348 -1.4211  0.0521
 4157TIP3    H233963   3.080   2.277   1.936  0.0332 -0.0542 -0.0096
 4158TIP3   OH233964   6.420   3.007  10.659 -0.2409  0.1322  0.4530
 4158TIP3    H133965   6.509   2.981  10.633 -0.3726 -0.8759  0.9415
 4158TIP3    H233966   6.363   2.959  10.600 -0.4589  1.3570 -0.3493
 4159TIP3   OH233967   6.064   0.191  14.390  0.0099 -0.0856 -0.1328
 4159TIP3    H133968   6.051   0.105  14.429 -0.5967  0.4045  0.7923
 4159TIP3    H233969   6.157   0.195  14.371  0.1228 -0.7752  0.2280
 4160TIP3   OH233970   3.887   3.762  12.530  0.2879  0.0919  0.5801
 4160TIP3    H133971   3.903   3.834  12.591 -0.6748 -0.5610  1.6629
 4160TIP3    H233972   3.791   3.758  12.523  0.3400 -0.8142  0.2201
 4161TIP3   OH233973   3.171   3.681   2.872  0.0303 -0.1229 -0.3775
 4161TIP3    H133974   3.210   3.765   2.848  0.0795  0.0418  0.2553
 4161TIP3    H233975   3.077   3.697   2.875  0.1257  0.3683  1.3660
 4162TIP3   OH233976   1.505   5.053   5.387 -0.3435 -0.5559 -0.0661
 4162TIP3    H133977   1.449   4.984   5.424 -2.5163  0.2031 -1.7192
 4162TIP3    H233978   1.509   5.119   5.456 -2.3105 -0.2371 -0.1821
 4163TIP3   OH233979   4.237   2.902  15.693 -0.2564  0.2332 -0.2620
 4163TIP3    H133980   4.308   2.875  15.751 -0.4207 -2.4146 -1.1851
 4163TIP3    H233981   4.270   2.979  15.648  1.4199 -0.0542  0.4274
 4164TIP3   OH233982   0.649   2.744  16.941  0.7413  0.5729 -0.5184
 4164TIP3    H133983   0.710   2.671  16.952 -1.9421 -1.6245  1.0407
 4164TIP3    H233984   0.663   2.799  17.017  2.2274  1.3021 -1.2889
 4165TIP3   OH233985   6.126   3.563  14.844  0.3682  0.0321 -0.0474
 4165TIP3    H133986   6.066   3.589  14.914  0.6465 -0.9046  0.5522
 4165TIP3    H233987   6.140   3.643  14.794  0.2206  0.7512  1.0146
 4166TIP3   OH233988   0.614   4.175  13.347 -0.1052  0.1161 -0.6038
 4166TIP3    H133989   0.645   4.117  13.278  1.2578  0.5672 -0.4099
 4166TIP3    H233990   0.690   4.230  13.368 -0.2164 -0.5189  1.7831
 4167TIP3   OH233991   4.170   3.082   3.689 -0.1190  0.3486  0.2994
 4167TIP3    H133992   4.126   3.167   3.694 -0.6260  0.0404  1.3070
 4167TIP3    H233993   4.175   3.052   3.780 -0.8506 -1.1515 -0.1278
 4168TIP3   OH233994   4.938   0.197  11.875  0.0135 -0.0319 -0.2213
 4168TIP3    H133995   4.949   0.265  11.809 -1.1997  0.8904  0.4878
 4168TIP3    H233996   4.880   0.132  11.833  0.1799 -0.0232 -0.4663
 4169TIP3   OH233997   6.156   1.637  11.396 -0.2907  0.2776 -0.1583
 4169TIP3    H133998   6.151   1.546  11.368 -1.7511  0.6004 -1.0488
 4169TIP3    H233999   6.245   1.664  11.373  0.6262 -1.2556  1.3198
 4170TIP3   OH234000   5.322   3.929  11.927  0.1874 -0.7044 -0.5584
 4170TIP3    H134001   5.331   3.934  11.832  0.1405 -1.2912 -0.5947
 4170TIP3    H234002   5.273   3.848  11.942  0.9764 -1.0812  0.0195
 4171TIP3   OH234003   6.277   6.556  15.165  0.4396 -0.1133 -0.9253
 4171TIP3    H134004   6.265   6.557  15.070  2.2038  0.3798 -1.1742
 4171TIP3    H234005   6.357   6.506  15.178 -0.0206 -0.5553  0.3611
 4172TIP3   OH234006   2.829   0.351   0.149 -0.4508  0.7924  0.5253
 4172TIP3    H134007   2.920   0.366   0.124 -0.0037 -0.3417  1.3653
 4172TIP3    H234008   2.779   0.410   0.093  0.4020 -1.9312 -3.5931
 4173TIP3   OH234009   4.207   4.796  17.137 -0.7100 -0.0251  0.1201
 4173TIP3    H134010   4.162   4.769  17.057  0.4708  2.5997 -1.5761
 4173TIP3    H234011   4.184   4.889  17.148 -0.2882 -0.1281  2.4702
 4174TIP3   OH234012   1.631   1.484   0.815 -0.2846 -0.3467 -0.5848
 4174TIP3    H134013   1.547   1.506   0.774 -1.3284  1.1106  2.1201
 4174TIP3    H234014   1.689   1.557   0.791  0.2515 -1.2932 -2.3515
 4175TIP3   OH234015   1.311   6.683  11.107  0.0571  0.3334  0.5595
 4175TIP3    H134016   1.278   6.681  11.017 -0.8307  0.1614  0.8839
 4175TIP3    H234017   1.311   6.775  11.131 -1.5023  0.2333  1.0240
 4176TIP3   OH234018   1.036   4.315   1.011 -0.1687  0.1099  0.5188
 4176TIP3    H134019   1.035   4.271   1.096 -1.1092 -0.3411  0.2794
 4176TIP3    H234020   0.982   4.393   1.024 -0.4822 -0.0669  0.2754
 4177TIP3   OH234021   5.122   4.245   0.558  0.0842  0.5453 -0.3106
 4177TIP3    H134022   5.048   4.185   0.550 -0.7920  1.5077  0.2211
 4177TIP3    H234023   5.096   4.305   0.628  1.6593  0.5083  0.3523
 4178TIP3   OH234024   1.604   0.272   4.013  0.3693 -0.3055 -0.0853
 4178TIP3    H134025   1.628   0.222   3.934  1.2447 -0.9244  0.5525
 4178TIP3    H234026   1.589   0.205   4.079 -1.6639  0.1340 -0.0264
 4179TIP3   OH234027   5.924   2.918  12.052 -0.4037 -0.4027  0.0594
 4179TIP3    H134028   5.944   2.851  12.117 -0.8362 -0.1322  0.4785
 4179TIP3    H234029   5.981   2.991  12.074 -0.6478 -0.2598  0.2230
 4180TIP3   OH234030   0.431   4.355   1.280  0.3876  0.0731  0.6802
 4180TIP3    H134031   0.491   4.345   1.355 -0.3456 -2.5569  1.0230
 4180TIP3    H234032   0.347   4.380   1.320  1.0481  3.6737  0.2075
 4181TIP3   OH234033   4.162   0.137  16.235 -0.1544  0.0799  0.2243
 4181TIP3    H134034   4.122   0.201  16.294 -1.9746 -1.0674  0.3253
 4181TIP3    H234035   4.209   0.189  16.170 -1.3408  1.4956  0.4651
 4182TIP3   OH234036   3.064   1.748  13.309 -0.0154 -0.1213 -0.3143
 4182TIP3    H134037   3.038   1.662  13.273  3.2286 -1.2847 -0.1447
 4182TIP3    H234038   3.122   1.785  13.243 -0.0144  1.2177  0.4066
 4183TIP3   OH234039   2.801   5.470   2.451 -0.3870  0.2321 -0.4654
 4183TIP3    H134040   2.744   5.532   2.497 -0.9556 -0.5976 -0.0215
 4183TIP3    H234041   2.815   5.509   2.365 -1.3042  0.6498 -0.4388
 4184TIP3   OH234042   6.756   1.313   4.371 -0.7046 -0.0593  0.7797
 4184TIP3    H134043   6.678   1.366   4.353  0.2915  1.2970  0.3236
 4184TIP3    H234044   6.816   1.374   4.414 -0.0741 -1.2202  1.5744
 4185TIP3   OH234045   5.907   6.495   1.804 -0.0233  0.0585  0.3306
 4185TIP3    H134046   5.918   6.458   1.892 -0.3758  2.2375  1.3671
 4185TIP3    H234047   5.839   6.562   1.815 -0.2787  0.1937 -1.6831
 4186TIP3   OH234048   4.042   1.166  13.604 -0.1153  0.4134 -0.6746
 4186TIP3    H134049   3.961   1.177  13.553 -2.4836 -0.7190  2.5049
 4186TIP3    H234050   4.059   1.072  13.599  0.1284  0.4279 -0.0849
 4187TIP3   OH234051   2.440   4.957   2.074  0.3660  0.0007  0.1204
 4187TIP3    H134052   2.348   4.968   2.096  0.2264 -2.3985  1.0922
 4187TIP3    H234053   2.440   4.921   1.986  0.5470  2.2260 -0.8460
 4188TIP3   OH234054   5.791   0.980  16.159 -0.6215 -0.0717  0.1758
 4188TIP3    H134055   5.835   0.918  16.101  1.0607  2.8663 -2.0068
 4188TIP3    H234056   5.723   1.020  16.105 -1.2542  0.4254  1.2905
 4189TIP3   OH234057   6.424   0.811   5.889 -0.7099  0.3570  0.0306
 4189TIP3    H134058   6.475   0.732   5.869 -0.6824 -0.1999  2.0632
 4189TIP3    H234059   6.335   0.779   5.901 -1.0037  0.8920 -0.6911
 4190TIP3   OH234060   3.040   1.843  12.496  0.3173 -0.1103  0.1764
 4190TIP3    H134061   2.961   1.835  12.548  0.4189  1.9636  0.7196
 4190TIP3    H234062   3.025   1.920  12.441  1.0915 -0.9794 -1.3298
 4191TIP3   OH234063   6.623   5.386   4.196  0.3643  0.5174 -0.0390
 4191TIP3    H134064   6.707   5.430   4.205  1.3973 -1.3559 -0.0172
 4191TIP3    H234065   6.618   5.329   4.273  0.8892 -2.2377 -1.9198
 4192TIP3   OH234066   2.710   3.371  12.311 -0.1268 -0.4528 -0.7819
 4192TIP3    H134067   2.618   3.392  12.302 -0.7037 -2.2936  0.2770
 4192TIP3    H234068   2.722   3.355  12.405  1.4946  0.5979 -0.7538
 4193TIP3   OH234069   3.230   4.450   0.514 -0.5791  0.0499  0.6353
 4193TIP3    H134070   3.243   4.544   0.526 -0.3089 -0.0380  1.0232
 4193TIP3    H234071   3.156   4.429   0.570 -0.2882 -0.0714  0.9771
 4194TIP3   OH234072   2.737   2.684  12.143 -0.4363  0.3092 -0.5036
 4194TIP3    H134073   2.804   2.698  12.076 -0.1881 -1.5747 -0.7219
 4194TIP3    H234074   2.655   2.682  12.095 -0.4086  0.3709 -0.5531
 4195TIP3   OH234075   6.812   6.040   4.386  0.2935  0.0325  0.7125
 4195TIP3    H134076   6.718   6.041   4.368  0.3712 -1.5060  0.0574
 4195TIP3    H234077   6.821   5.981   4.461  0.8146 -0.5905  0.1705
 4196TIP3   OH234078   1.227   3.458   3.030 -0.7495  0.7215  1.0412
 4196TIP3    H134079   1.256   3.455   2.939 -2.1084 -0.3572  0.5994
 4196TIP3    H234080   1.203   3.549   3.045 -0.4970  0.9092  0.3227
 4197TIP3   OH234081   3.471   0.505   3.781 -0.1369  0.2932  0.0931
 4197TIP3    H134082   3.409   0.447   3.738  0.5586 -0.3438 -0.0657
 4197TIP3    H234083   3.432   0.592   3.775 -0.8938 -0.0677 -0.2106
 4198TIP3   OH234084   1.093   3.236   2.856  0.5603  0.4649 -0.0804
 4198TIP3    H134085   1.143   3.244   2.937  1.3487 -1.6100 -0.2969
 4198TIP3    H234086   1.135   3.297   2.795  2.0964 -0.3745  0.1068
 4199TIP3   OH234087   0.365   6.270   4.564 -0.5485 -0.1144  0.0703
 4199TIP3    H134088   0.415   6.190   4.546  0.1178  0.5635 -1.3105
 4199TIP3    H234089   0.415   6.314   4.633  0.5777  0.3414 -0.9884
 4200TIP3   OH234090   0.747   2.491  16.774 -0.0709 -0.4137  0.1092
 4200TIP3    H134091   0.695   2.484  16.695  1.0580 -0.6125 -0.6398
 4200TIP3    H234092   0.769   2.401  16.797  0.6362 -0.2920 -0.0646
 4201TIP3   OH234093   6.123   6.660   4.151 -0.1663  0.3791 -0.4438
 4201TIP3    H134094   6.027   6.665   4.145 -0.5751 -4.0514 -0.9853
 4201TIP3    H234095   6.142   6.667   4.244 -1.0660  0.7984 -0.2806
 4202TIP3   OH234096   0.453   2.789   5.309  0.3167 -0.6502 -0.3279
 4202TIP3    H134097   0.500   2.706   5.296  0.1965 -0.7005 -0.4512
 4202TIP3    H234098   0.401   2.799   5.229  1.6743  0.4303 -1.1089
 4203TIP3   OH234099   6.796   4.506   3.049  0.4912 -0.9454 -0.2950
 4203TIP3    H134100   6.856   4.533   3.118  0.7983  0.6820 -1.1511
 4203TIP3    H234101   6.794   4.411   3.055  0.4570 -0.8541  1.9734
 4204TIP3   OH234102   5.668   4.588   2.305  0.5361  0.3819  0.0702
 4204TIP3    H134103   5.675   4.677   2.271  0.5274 -0.9669 -3.9272
 4204TIP3    H234104   5.578   4.562   2.288  0.5626 -0.4608  1.0786
 4205TIP3   OH234105   0.201   6.433   4.979  0.2907 -0.0811  0.1192
 4205TIP3    H134106   0.191   6.450   4.885  2.2421  1.7748  0.1518
 4205TIP3    H234107   0.131   6.483   5.020 -0.6150 -0.9565 -0.3220
 4206TIP3   OH234108   1.792   0.255  14.179  0.1026  0.4621 -0.3988
 4206TIP3    H134109   1.820   0.342  14.208  1.3977  0.5908 -1.8843
 4206TIP3    H234110   1.730   0.272  14.108 -0.9503  0.1436  0.4076
 4207TIP3   OH234111   3.402   1.808  15.508  0.0611  0.4574  0.2291
 4207TIP3    H134112   3.336   1.770  15.566  3.2216  0.1109  4.0211
 4207TIP3    H234113   3.370   1.896  15.490 -2.1748 -0.2354  0.5040
 4208TIP3   OH234114   6.189   3.471   1.045  0.1769  0.3459 -0.0607
 4208TIP3    H134115   6.255   3.422   1.093 -1.0514  0.1498  1.5517
 4208TIP3    H234116   6.108   3.421   1.058 -0.9404  2.2363  0.8792
 4209TIP3   OH234117   5.581   2.576  16.100 -0.1907  0.0550  0.3427
 4209TIP3    H134118   5.613   2.493  16.065  0.6538  0.9129 -1.0564
 4209TIP3    H234119   5.547   2.622  16.023 -0.6913  0.9828  1.0947
 4210TIP3   OH234120   6.452   2.264  10.483 -0.0031  0.1151 -0.2455
 4210TIP3    H134121   6.489   2.275  10.570  2.6970  1.6858 -1.4753
 4210TIP3    H234122   6.504   2.320  10.427 -2.8872  0.6864 -2.6211
 4211TIP3   OH234123   0.073   4.943   3.302 -0.0378 -0.0064 -0.0984
 4211TIP3    H134124   0.152   4.990   3.274  1.2477 -1.8405  0.2992
 4211TIP3    H234125   0.006   5.011   3.306  1.0881  1.3524 -2.0482
 4212TIP3   OH234126   4.146   5.921   6.002  0.9133  0.5248  0.3055
 4212TIP3    H134127   4.184   5.877   6.078  0.3869 -0.4362  0.0279
 4212TIP3    H234128   4.101   5.998   6.038  0.3515 -0.1253  1.0121
 4213TIP3   OH234129   3.803   1.840   5.306 -0.0317 -0.2480 -0.1863
 4213TIP3    H134130   3.868   1.861   5.372  1.0606  0.6638 -1.5117
 4213TIP3    H234131   3.745   1.916   5.304 -0.4247 -0.5340  0.1314
 4214TIP3   OH234132   2.373   6.396   2.631 -0.2073  0.3880  0.2854
 4214TIP3    H134133   2.448   6.382   2.688 -0.3462  1.8255  0.8702
 4214TIP3    H234134   2.319   6.318   2.643 -0.1893  0.6125  2.0674
 4215TIP3   OH234135   1.016   6.774   3.149 -0.1139 -0.1380 -0.1798
 4215TIP3    H134136   1.022   6.869   3.152  0.0045 -0.1224 -0.7597
 4215TIP3    H234137   1.055   6.744   3.231 -2.3352  0.3986  1.1728
 4216TIP3   OH234138   4.108   2.664   5.191 -0.3119 -0.2666 -0.1006
 4216TIP3    H134139   4.041   2.650   5.124 -0.1869 -0.6578 -0.1475
 4216TIP3    H234140   4.181   2.704   5.145 -0.7693  0.8211  0.0825
 4217TIP3   OH234141   0.886   2.361   5.574  0.1715 -0.3226  0.4627
 4217TIP3    H134142   0.792   2.377   5.566  0.0248 -1.1844  0.4620
 4217TIP3    H234143   0.894   2.303   5.649  0.7934  0.4945  1.0481
 4218TIP3   OH234144   1.372   4.032  14.504 -0.0170 -0.0483 -0.2085
 4218TIP3    H134145   1.435   4.104  14.497  1.0158 -0.9282 -0.0717
 4218TIP3    H234146   1.425   3.955  14.521 -1.2076 -0.6650  0.8705
 4219TIP3   OH234147   6.730   2.797   1.020 -0.0963 -0.2277 -0.5091
 4219TIP3    H134148   6.760   2.757   1.102  1.4471  0.8895 -0.4985
 4219TIP3    H234149   6.643   2.832   1.041 -0.9135 -2.3296 -0.1569
 4220TIP3   OH234150   5.986   6.477  11.877  0.5138 -0.5481  0.1462
 4220TIP3    H134151   5.900   6.490  11.837  0.3344  0.0122  0.7139
 4220TIP3    H234152   6.038   6.438  11.807  0.4909  1.3542 -0.9810
 4221TIP3   OH234153   5.247   5.967   2.875 -0.4085  0.1863 -0.0236
 4221TIP3    H134154   5.163   5.976   2.830  0.8595 -2.2721 -3.3245
 4221TIP3    H234155   5.245   5.880   2.913  0.1435  0.6860  1.2159
 4222TIP3   OH234156   5.243   0.769  14.800  0.3103 -0.2985  0.3108
 4222TIP3    H134157   5.213   0.828  14.732  0.3225 -0.6574 -0.0101
 4222TIP3    H234158   5.270   0.826  14.872  0.7604  0.1007 -0.1720
 4223TIP3   OH234159   6.618   0.983  12.724  0.1173 -0.4647  0.1182
 4223TIP3    H134160   6.614   0.982  12.820 -0.0538 -1.2183  0.1075
 4223TIP3    H234161   6.544   1.037  12.698 -0.7973 -1.5417  0.3794
 4224TIP3   OH234162   5.617   4.228   3.371 -0.4431  0.0808  0.0811
 4224TIP3    H134163   5.577   4.297   3.424  0.2711  0.2307  0.4319
 4224TIP3    H234164   5.707   4.221   3.403 -0.0210  0.1018 -1.0388
 4225TIP3   OH234165   6.198   0.103  11.582 -0.3801  0.4176  0.1249
 4225TIP3    H134166   6.266   0.152  11.537 -2.7331  1.6269 -2.4618
 4225TIP3    H234167   6.204   0.015  11.545  0.3097  0.2692  0.5757
 4226TIP3   OH234168   1.256   0.072  12.163 -0.2071 -0.5186  0.3988
 4226TIP3    H134169   1.229   0.038  12.077  1.8302  1.2400 -1.0455
 4226TIP3    H234170   1.319   0.008  12.195 -0.6890 -0.9892  0.4271
 4227TIP3   OH234171   4.428   5.263   4.335 -0.0963  0.4539  0.3710
 4227TIP3    H134172   4.522   5.266   4.353 -0.1271  0.3451  0.5546
 4227TIP3    H234173   4.391   5.336   4.384 -0.0019  1.0149 -0.3714
 4228TIP3   OH234174   3.009   0.800  11.263  0.2674  0.8743 -0.4130
 4228TIP3    H134175   3.063   0.855  11.319  0.0774  0.6353  0.0091
 4228TIP3    H234176   2.920   0.831  11.277  0.0885  0.0791  0.2820
 4229TIP3   OH234177   2.141   1.844  16.568  0.1068 -0.2117  0.3533
 4229TIP3    H134178   2.149   1.757  16.530 -0.4799 -0.3630  0.5701
 4229TIP3    H234179   2.054   1.845  16.607  0.4643  0.1565  1.1507
 4230TIP3   OH234180   0.560   0.471   0.950  0.0111 -0.0819  0.1641
 4230TIP3    H134181   0.478   0.444   0.907  0.2893 -0.5505 -0.0775
 4230TIP3    H234182   0.590   0.546   0.899 -1.3184  1.4009  1.4749
 4231TIP3   OH234183   4.104   5.853   2.110 -0.5557 -0.5478 -0.0922
 4231TIP3    H134184   4.096   5.939   2.151  0.1630 -0.4450 -0.1644
 4231TIP3    H234185   4.193   5.850   2.076 -0.4076 -1.5292  0.3594
 4232TIP3   OH234186   4.383   3.773   3.977  0.2257 -0.3465 -0.6303
 4232TIP3    H134187   4.434   3.790   3.898  0.2087  0.3538 -0.4967
 4232TIP3    H234188   4.447   3.773   4.048  0.0468  0.5925 -0.4542
 4233TIP3   OH234189   4.058   5.869  15.075  0.0642  0.7327 -0.0411
 4233TIP3    H134190   4.069   5.924  14.998 -0.5337  2.3077  0.9507
 4233TIP3    H234191   3.977   5.901  15.115 -2.2473 -3.0487 -1.1737
 4234TIP3   OH234192   5.126   4.424   6.008 -0.8557 -0.7749 -0.0925
 4234TIP3    H134193   5.166   4.396   5.926 -0.7737 -2.0650  0.3616
 4234TIP3    H234194   5.165   4.367   6.074 -2.3920 -1.1027  0.5695
 4235TIP3   OH234195   5.378   0.092  12.458  0.0364 -0.6064  0.3524
 4235TIP3    H134196   5.315   0.024  12.483 -2.1903  0.6892 -1.2929
 4235TIP3    H234197   5.337   0.174  12.487  2.0060  0.1641  1.0905
 4236TIP3   OH234198   0.775   3.417  16.992  0.5646 -0.2415 -0.3372
 4236TIP3    H134199   0.826   3.451  17.065  1.0787 -2.1292  0.2109
 4236TIP3    H234200   0.712   3.487  16.973 -0.7579 -0.3473  3.0557
 4237TIP3   OH234201   0.776   5.101   1.064 -0.3857  0.2438  0.3068
 4237TIP3    H134202   0.829   5.125   0.989 -0.1916  1.4331  0.8029
 4237TIP3    H234203   0.838   5.059   1.125 -0.2396  0.6219  0.4201
 4238TIP3   OH234204   3.311   0.868  14.101  0.6499  0.3672  0.3350
 4238TIP3    H134205   3.311   0.938  14.166 -0.4908  1.6701 -1.0032
 4238TIP3    H234206   3.224   0.829  14.107  1.0895 -0.6061  0.6815
 4239TIP3   OH234207   2.830   3.481  15.956 -0.0892  0.6246 -0.0582
 4239TIP3    H134208   2.787   3.411  16.005 -0.7381 -0.5518 -2.2038
 4239TIP3    H234209   2.801   3.469  15.866  4.0481  0.2420 -1.5792
 4240TIP3   OH234210   5.006   0.966  16.011 -0.3872  0.2555 -0.3259
 4240TIP3    H134211   4.939   0.938  15.948 -0.1179 -0.6982 -0.2105
 4240TIP3    H234212   4.957   0.991  16.089 -0.7770  2.1523 -1.1321
 4241TIP3   OH234213   0.540   0.086   0.193  0.2046  0.0392 -0.2392
 4241TIP3    H134214   0.461   0.129   0.228  0.4678  0.6610 -0.3983
 4241TIP3    H234215   0.599   0.158   0.173  0.4990 -0.3837 -0.9038
 4242TIP3   OH234216   6.444   0.428   4.032 -0.2624 -0.3758  0.2426
 4242TIP3    H134217   6.476   0.486   3.963  0.0128  0.3316  0.9574
 4242TIP3    H234218   6.430   0.344   3.988 -1.4695  0.4286 -0.9992
 4243TIP3   OH234219   3.753   3.810  11.319 -0.4069  0.6601  0.0856
 4243TIP3    H134220   3.745   3.869  11.245  0.8093 -0.1609 -0.7443
 4243TIP3    H234221   3.845   3.814  11.343 -0.2216 -1.0725 -0.1762
 4244TIP3   OH234222   2.324   0.835   4.711 -0.1277 -0.5662  0.8745
 4244TIP3    H134223   2.323   0.744   4.740 -1.3798 -1.0038 -0.3976
 4244TIP3    H234224   2.234   0.866   4.726 -0.8180 -0.7637 -2.1472
 4245TIP3   OH234225   3.802   4.457  16.127 -0.3482 -0.2053 -0.6358
 4245TIP3    H134226   3.772   4.528  16.070 -0.1102 -0.6669 -1.3459
 4245TIP3    H234227   3.734   4.390  16.120  0.5033 -0.9987 -1.7768
 4246TIP3   OH234228   3.306   0.836  13.139 -0.1219 -0.2362 -0.7435
 4246TIP3    H134229   3.398   0.865  13.138  0.6830 -2.5532 -0.2817
 4246TIP3    H234230   3.311   0.741  13.149 -2.6026 -0.4136 -0.5645
 4247TIP3   OH234231   3.539   6.765   4.722  0.3224 -0.3131 -0.1795
 4247TIP3    H134232   3.458   6.791   4.677  0.1495 -0.3825  0.0880
 4247TIP3    H234233   3.609   6.786   4.660  0.0819 -0.4443 -0.4979
 4248TIP3   OH234234   4.133   2.088  15.122 -0.2874  0.3116  0.1186
 4248TIP3    H134235   4.220   2.098  15.160  0.6684 -0.0776 -1.8304
 4248TIP3    H234236   4.075   2.077  15.197  1.4409 -0.1585  1.4462
 4249TIP3   OH234237   6.376   2.111   4.886 -0.0628  0.2244 -0.3626
 4249TIP3    H134238   6.401   2.132   4.796 -0.3443  0.0262 -0.4871
 4249TIP3    H234239   6.345   2.021   4.881 -1.0262  0.5426 -0.2490
 4250TIP3   OH234240   1.259   0.827  12.989  0.2941  0.0626 -0.1457
 4250TIP3    H134241   1.199   0.759  12.959  0.3609  0.8807 -2.3294
 4250TIP3    H234242   1.345   0.786  12.987  0.4156  0.3137 -2.0568
 4251TIP3   OH234243   5.850   0.562   5.907 -0.0389  0.3393  0.2531
 4251TIP3    H134244   5.854   0.554   6.002  0.0485  1.2119  0.3331
 4251TIP3    H234245   5.770   0.516   5.882  0.6771 -1.1296  0.5905
 4252TIP3   OH234246   2.020   1.377  14.591 -0.2873 -0.7335  0.3872
 4252TIP3    H134247   2.051   1.421  14.512 -1.4268  1.8385  1.2801
 4252TIP3    H234248   2.092   1.319  14.615  0.4864 -0.8652 -1.9535
 4253TIP3   OH234249   3.794   6.738  13.389 -0.0028 -0.0720 -0.0934
 4253TIP3    H134250   3.861   6.798  13.421 -0.8816  1.7371 -1.4715
 4253TIP3    H234251   3.736   6.724  13.464  0.7191  0.0601  0.4967
 4254TIP3   OH234252   4.610   3.517   2.379  0.1253  0.2020  0.4298
 4254TIP3    H134253   4.592   3.577   2.452 -2.7446 -0.0839  0.0675
 4254TIP3    H234254   4.525   3.481   2.356  1.2466 -1.2584 -1.7854
 4255TIP3   OH234255   0.060   5.857   0.181 -0.4030  0.0696  1.1290
 4255TIP3    H134256   0.013   5.932   0.218  0.4806  0.9987  0.4217
 4255TIP3    H234257   0.151   5.869   0.209  0.0546  0.1525 -0.3065
 4256TIP3   OH234258   5.198   0.707   1.294 -0.3488 -0.1487 -0.2508
 4256TIP3    H134259   5.250   0.783   1.271  0.4647 -0.7346 -0.3680
 4256TIP3    H234260   5.198   0.652   1.215 -0.7923 -0.3461 -0.1178
 4257TIP3   OH234261   4.951   5.931  16.197 -0.3490 -0.0704  0.7327
 4257TIP3    H134262   4.879   5.984  16.231 -0.9926 -1.3587  1.4490
 4257TIP3    H234263   5.023   5.993  16.186 -1.1237  0.9791  1.3893
 4258TIP3   OH234264   2.304   1.244   4.663  0.0801  0.1593  0.6127
 4258TIP3    H134265   2.224   1.193   4.673 -0.8213  1.6273  1.2978
 4258TIP3    H234266   2.309   1.298   4.743  1.1587  0.8888  0.0894
 4259TIP3   OH234267   6.017   6.264   3.986  0.3564 -0.1127  0.4522
 4259TIP3    H134268   6.099   6.312   3.973 -0.4077  1.1135  0.0055
 4259TIP3    H234269   5.972   6.312   4.055 -1.2983  1.0380 -1.3517
 4260TIP3   OH234270   6.604   2.535  15.700 -0.4991  0.7430  0.1680
 4260TIP3    H134271   6.601   2.579  15.615 -0.3276 -2.8525 -1.8957
 4260TIP3    H234272   6.664   2.587  15.753  2.3862  1.1595 -3.2230
 4261TIP3   OH234273   0.934   5.122   0.798  0.6905 -0.1217  0.7071
 4261TIP3    H134274   1.002   5.062   0.766  1.2048  0.4047  0.7821
 4261TIP3    H234275   0.883   5.143   0.720  0.7091 -0.3996  0.6170
 4262TIP3   OH234276   6.402   4.247   2.114  0.1692 -0.4142 -0.0256
 4262TIP3    H134277   6.433   4.306   2.045  0.3697 -2.0209 -1.3788
 4262TIP3    H234278   6.481   4.221   2.161  0.2586 -0.6858 -0.3244
 4263TIP3   OH234279   4.871   6.231   5.774 -0.0695 -0.1774 -0.5392
 4263TIP3    H134280   4.815   6.241   5.697  0.6928  2.7764 -0.8507
 4263TIP3    H234281   4.810   6.218   5.846 -0.7969 -3.0120 -1.5499
 4264TIP3   OH234282   5.639   4.483   6.634  0.3155  0.3206  0.6027
 4264TIP3    H134283   5.588   4.514   6.709 -0.3688 -0.1754  0.3469
 4264TIP3    H234284   5.625   4.389   6.633 -1.3519  0.5341 -1.3624
 4265TIP3   OH234285   0.684   2.278  14.018  0.0842  0.0912 -0.1743
 4265TIP3    H134286   0.598   2.316  14.036 -0.1762 -1.4366  2.4463
 4265TIP3    H234287   0.667   2.211  13.952 -1.2965 -1.6921  1.8147
 4266TIP3   OH234288   5.999   1.287  12.941  0.1876  0.4110 -0.4434
 4266TIP3    H134289   5.967   1.235  12.867 -1.8028  1.9490 -0.7530
 4266TIP3    H234290   6.093   1.298  12.925 -0.0973  0.2341 -2.4406
 4267TIP3   OH234291   2.550   1.865  14.996 -0.3289 -0.1848  0.1698
 4267TIP3    H134292   2.513   1.859  14.908  2.6083  0.7746 -1.2641
 4267TIP3    H234293   2.483   1.827  15.053 -1.6883 -2.3775 -2.6343
 4268TIP3   OH234294   1.697   4.515  13.974  0.1731 -0.0376  0.6543
 4268TIP3    H134295   1.737   4.581  13.919  0.5655 -1.4152 -0.7659
 4268TIP3    H234296   1.768   4.457  13.999 -0.0419  0.3864  2.4371
 4269TIP3   OH234297   4.679   4.274  11.574  0.7017 -0.2678 -0.0283
 4269TIP3    H134298   4.610   4.306  11.516  1.3738 -0.2185 -0.8244
 4269TIP3    H234299   4.681   4.337  11.646 -0.9088 -0.9584  0.6550
 4270TIP3   OH234300   5.878   2.707   3.213 -0.2245 -0.5591  0.1027
 4270TIP3    H134301   5.903   2.616   3.226 -1.4517 -0.5746  3.5336
 4270TIP3    H234302   5.951   2.758   3.247 -0.7407 -0.3788  0.9803
 4271TIP3   OH234303   2.825   4.560   4.100 -0.9895  0.7667 -0.1025
 4271TIP3    H134304   2.730   4.568   4.095 -1.2652 -1.5189  0.3103
 4271TIP3    H234305   2.854   4.559   4.009 -1.5003  0.3999 -0.2654
 4272TIP3   OH234306   0.160   2.673   2.602  0.5372  0.1519  0.0676
 4272TIP3    H134307   0.236   2.692   2.657  0.1967 -0.7806  0.8990
 4272TIP3    H234308   0.166   2.578   2.586  0.4350  0.3424 -1.2372
 4273TIP3   OH234309   2.178   6.816  16.112  0.4330  0.0602 -0.4841
 4273TIP3    H134310   2.186   6.733  16.066 -1.5001 -1.0116  0.9831
 4273TIP3    H234311   2.084   6.826  16.127  0.7560  1.7778  0.6770
 4274TIP3   OH234312   1.829   4.162  16.107  0.0024  0.1227  0.5751
 4274TIP3    H134313   1.898   4.171  16.041  0.6353  0.1419  1.2278
 4274TIP3    H234314   1.875   4.159  16.190 -0.7641 -0.2841  0.9995
 4275TIP3   OH234315   2.856   1.218   4.305  0.0734 -0.0966  0.2646
 4275TIP3    H134316   2.799   1.295   4.299 -1.5965 -1.1767  1.4261
 4275TIP3    H234317   2.914   1.237   4.379 -0.0888  0.2085  0.3149
 4276TIP3   OH234318   3.036   4.598   6.152  0.8106 -0.3424  0.5090
 4276TIP3    H134319   3.086   4.581   6.232  1.7926 -1.2150 -0.2533
 4276TIP3    H234320   3.099   4.638   6.093  0.1421  0.1205  0.1060
 4277TIP3   OH234321   0.086   4.076   3.252  0.1728  0.2085 -0.3248
 4277TIP3    H134322   0.161   4.073   3.193  0.0549 -0.4288 -0.4542
 4277TIP3    H234323   0.043   3.991   3.240  1.8058 -1.2531  2.8617
 4278TIP3   OH234324   5.818   2.278  15.291  0.5210 -0.0562  0.2308
 4278TIP3    H134325   5.862   2.222  15.355  0.8452 -0.4180 -0.2983
 4278TIP3    H234326   5.807   2.222  15.214 -1.1626 -0.0638  0.4609
 4279TIP3   OH234327   2.938   1.506   1.914 -0.2825  0.2702  0.4601
 4279TIP3    H134328   3.023   1.504   1.958  0.2289  2.3859 -0.2794
 4279TIP3    H234329   2.960   1.508   1.820 -1.1975 -0.2288  0.2245
 4280TIP3   OH234330   4.615   4.976   1.339  0.1815  0.2593  0.4878
 4280TIP3    H134331   4.593   4.983   1.432 -0.4308  1.9761  0.2448
 4280TIP3    H234332   4.558   5.039   1.296  0.9512 -0.0028 -0.9722
 4281TIP3   OH234333   6.234   1.837   4.831  0.3705  0.8788  0.4257
 4281TIP3    H134334   6.178   1.760   4.828  0.9277  0.5007 -0.5187
 4281TIP3    H234335   6.281   1.828   4.914 -0.6209  0.9795  1.0250
 4282TIP3   OH234336   2.963   6.406  13.398 -0.4088  0.2035  0.0176
 4282TIP3    H134337   2.917   6.326  13.425  1.6236 -1.0150  0.0596
 4282TIP3    H234338   2.973   6.456  13.479 -0.2020 -0.3010  0.3077
 4283TIP3   OH234339   4.994   1.264   2.775  0.6400 -0.0393 -0.0082
 4283TIP3    H134340   4.940   1.233   2.848  0.0169  0.5456 -0.2124
 4283TIP3    H234341   4.931   1.297   2.711  1.2439  0.6600 -0.2576
 4284TIP3   OH234342   3.531   1.387   3.958  0.3064  0.4881 -0.0637
 4284TIP3    H134343   3.622   1.401   3.986 -0.2199 -0.2312  2.2246
 4284TIP3    H234344   3.532   1.300   3.918  0.2160 -0.6544  2.2722
 4285TIP3   OH234345   0.393   2.705  12.792  0.2716  0.0504  0.6221
 4285TIP3    H134346   0.357   2.793  12.805  1.1483  0.6548 -0.8470
 4285TIP3    H234347   0.426   2.706  12.702  0.1013 -1.8574  0.5115
 4286TIP3   OH234348   6.467   1.811   0.746 -0.3992  0.2218 -0.3358
 4286TIP3    H134349   6.558   1.817   0.773  0.1535  1.6467 -2.2659
 4286TIP3    H234350   6.431   1.739   0.798  1.6044  0.1055  1.0011
 4287TIP3   OH234351   3.314   2.136   3.215 -0.4119  0.3542 -0.0561
 4287TIP3    H134352   3.269   2.069   3.268  1.4428 -1.9740 -1.2209
 4287TIP3    H234353   3.383   2.169   3.273  0.4887 -0.9041 -0.3575
 4288TIP3   OH234354   2.035   0.717  16.345 -0.1183 -0.1403 -0.0957
 4288TIP3    H134355   2.048   0.740  16.437 -0.2055 -0.7807  0.0804
 4288TIP3    H234356   2.095   0.775  16.297 -0.2728  0.3857  0.3399
 4289TIP3   OH234357   4.268   2.633  12.353  0.1166  0.0584  0.1556
 4289TIP3    H134358   4.252   2.724  12.327 -0.1459  0.5214  1.8528
 4289TIP3    H234359   4.363   2.623  12.350  0.1463  0.3927 -0.0016
 4290TIP3   OH234360   1.860   1.655   0.729  0.2809  0.0897  0.1023
 4290TIP3    H134361   1.927   1.679   0.664  0.4513  2.7343  1.1227
 4290TIP3    H234362   1.903   1.669   0.813 -0.5804 -1.3224  0.7979
 4291TIP3   OH234363   2.355   5.926   6.138  0.1227  0.5672 -0.0610
 4291TIP3    H134364   2.349   5.873   6.217 -1.0451  1.3767  0.4214
 4291TIP3    H234365   2.447   5.953   6.134  0.9453 -2.0825 -0.7533
 4292TIP3   OH234366   3.858   6.449   3.788  0.5430  0.1356 -0.0350
 4292TIP3    H134367   3.894   6.360   3.780 -0.1670 -0.3606  1.7416
 4292TIP3    H234368   3.839   6.475   3.698  0.9070 -1.4601 -0.6126
 4293TIP3   OH234369   0.736   3.813  12.718  0.0948 -0.0477  0.5242
 4293TIP3    H134370   0.799   3.797  12.787  2.1162 -1.4891 -1.4978
 4293TIP3    H234371   0.692   3.729  12.705  0.5642 -0.1427 -0.6364
 4294TIP3   OH234372   4.327   4.525  15.314 -0.2068 -0.2270 -0.3308
 4294TIP3    H134373   4.302   4.453  15.372  0.0402 -0.5631 -0.6302
 4294TIP3    H234374   4.285   4.602  15.351 -0.5549 -0.5444 -0.0570
 4295TIP3   OH234375   2.177   1.516   0.096 -0.3463 -0.0401  0.1610
 4295TIP3    H134376   2.257   1.483   0.136 -1.0897  0.2049  1.9452
 4295TIP3    H234377   2.206   1.589   0.041  0.6875 -0.1268  0.5612
 4296TIP3   OH234378   6.611   3.824  11.529  0.1654 -0.4332  0.2826
 4296TIP3    H134379   6.698   3.787  11.546 -0.3676 -1.3482  1.0669
 4296TIP3    H234380   6.599   3.814  11.434  1.4237  0.8668 -0.0486
 4297TIP3   OH234381   6.776   4.052  15.839  0.2244  0.2886  0.6742
 4297TIP3    H134382   6.804   4.137  15.804  2.1669  0.5663  2.6863
 4297TIP3    H234383   6.687   4.068  15.870  0.2020  1.3139  0.1495
 4298TIP3   OH234384   0.695   0.997  14.474 -0.2275 -0.1033  0.7391
 4298TIP3    H134385   0.790   1.010  14.476 -0.2636  0.2119  0.4475
 4298TIP3    H234386   0.681   0.917  14.525  0.0715  0.5590  1.9154
 4299TIP3   OH234387   4.743   6.479  14.964 -0.3720  0.0230  0.5767
 4299TIP3    H134388   4.725   6.446  14.876 -0.4654  0.5980  0.3784
 4299TIP3    H234389   4.751   6.574  14.954 -1.7417  0.2654  1.3873
 4300TIP3   OH234390   6.792   3.064   3.677 -0.1134  0.2992 -0.8155
 4300TIP3    H134391   6.782   3.129   3.607 -1.2056  1.0402 -0.0034
 4300TIP3    H234392   6.843   3.109   3.744 -2.7572  1.2182  0.7412
 4301TIP3   OH234393   2.014   6.032   6.677  0.0220 -1.3434  0.0063
 4301TIP3    H134394   2.042   5.942   6.695  0.2018 -1.0151  1.4871
 4301TIP3    H234395   2.081   6.066   6.617 -0.6890 -2.5475 -1.5149
 4302TIP3   OH234396   4.927   3.224  15.293  0.1596 -0.4112 -0.0037
 4302TIP3    H134397   4.850   3.172  15.268 -0.1639  0.8626 -1.8337
 4302TIP3    H234398   4.928   3.297  15.232  1.5746  0.8388  1.4199
 4303TIP3   OH234399   4.422   6.381   1.245 -0.3137  0.1302  0.7269
 4303TIP3    H134400   4.430   6.304   1.302  0.9207  0.7378  1.4135
 4303TIP3    H234401   4.398   6.452   1.304 -1.3064  0.3229  0.1164
 4304TIP3   OH234402   6.277   6.184  17.151 -0.8356  0.2319  0.4614
 4304TIP3    H134403   6.345   6.198  17.085  0.4287  0.5359  1.7778
 4304TIP3    H234404   6.276   6.089  17.164 -0.7580  0.2174  0.3670
 4305TIP3   OH234405   2.943   0.952  12.820 -0.4980 -0.6720 -0.5658
 4305TIP3    H134406   2.903   0.867  12.804 -1.7705 -0.0687 -0.7370
 4305TIP3    H234407   2.971   0.982  12.733 -0.6435 -0.6429 -0.6041
 4306TIP3   OH234408   6.006   0.969   1.866  0.2874 -0.0013  0.6491
 4306TIP3    H134409   5.959   1.047   1.836  0.9261 -0.2942 -1.2885
 4306TIP3    H234410   5.949   0.929   1.931 -1.4046  0.5134 -0.4683
 4307TIP3   OH234411   6.723   5.217  15.918 -0.4393  0.3605  0.6687
 4307TIP3    H134412   6.756   5.301  15.951 -1.3565  0.7023  0.7466
 4307TIP3    H234413   6.792   5.186  15.858  0.2496  0.7944  1.2227
 4308TIP3   OH234414   2.072   5.927  11.844 -0.4677 -0.0886 -0.0017
 4308TIP3    H134415   2.080   6.013  11.804  0.0938  0.0125  0.3335
 4308TIP3    H234416   1.979   5.905  11.835 -0.7528  0.8609  0.5712
 4309TIP3   OH234417   1.454   3.967   2.914 -0.2108  0.0023  0.0483
 4309TIP3    H134418   1.499   3.908   2.975 -0.4731  1.2776  1.5390
 4309TIP3    H234419   1.415   4.034   2.970  1.1313  2.3211 -1.6377
 4310TIP3   OH234420   1.136   2.024  13.633 -0.0800  0.2811  0.4046
 4310TIP3    H134421   1.223   2.026  13.674 -0.2518  0.4223  0.7712
 4310TIP3    H234422   1.152   2.048  13.542  0.9090 -4.0213 -0.7786
 4311TIP3   OH234423   6.738   0.868   5.840 -0.3615  0.0778  0.5233
 4311TIP3    H134424   6.702   0.917   5.767 -1.5761 -0.3023  0.8482
 4311TIP3    H234425   6.821   0.833   5.807 -0.2645  0.9661 -0.2329
 4312TIP3   OH234426   1.938   1.151   4.422 -0.4931 -0.3271 -0.0921
 4312TIP3    H134427   1.947   1.152   4.518 -0.9120  1.7158 -0.0257
 4312TIP3    H234428   2.025   1.126   4.391  0.0123  0.2054  0.8262
 4313TIP3   OH234429   2.109   4.422  14.610 -0.3685 -0.2380 -0.0814
 4313TIP3    H134430   2.193   4.416  14.657  0.7074 -0.4290 -1.9250
 4313TIP3    H234431   2.086   4.514  14.612  0.9283  0.1402 -1.2189
 4314TIP3   OH234432   2.483   2.720  14.562  0.0519  0.0853  0.3596
 4314TIP3    H134433   2.466   2.793  14.622  1.7699  0.1895  0.7711
 4314TIP3    H234434   2.396   2.686  14.541 -0.8192  2.2817  0.0971
 4315TIP3   OH234435   2.199   4.366   4.266  0.4212  0.1558  0.4025
 4315TIP3    H134436   2.280   4.320   4.289 -0.0532 -0.3151  1.1923
 4315TIP3    H234437   2.215   4.457   4.290  1.1944  0.3316 -0.7118
 4316TIP3   OH234438   1.158   2.148  15.207  0.4246  0.1025  0.1227
 4316TIP3    H134439   1.168   2.053  15.212 -0.2300  0.0212 -0.0311
 4316TIP3    H234440   1.240   2.178  15.167  0.1979 -0.5055 -0.8290
 4317TIP3   OH234441   3.892   6.274  11.226  0.9636 -0.2814 -0.0088
 4317TIP3    H134442   3.973   6.237  11.191  0.9718  0.0421 -0.3412
 4317TIP3    H234443   3.849   6.313  11.150  0.3007 -0.8046  0.0999
 4318TIP3   OH234444   5.790   5.893  15.609  0.2155  0.2931  0.2500
 4318TIP3    H134445   5.884   5.907  15.616  0.2885 -0.5308  1.1744
 4318TIP3    H234446   5.752   5.976  15.639  0.6380  0.5586  0.0651
 4319TIP3   OH234447   1.109   0.954  11.600  0.2658  0.2691  0.2267
 4319TIP3    H134448   1.023   0.979  11.569  0.1335 -0.4757 -0.0196
 4319TIP3    H234449   1.170   1.003  11.545  0.0949 -2.2855 -2.4658
 4320TIP3   OH234450   1.053   4.413   4.464  0.0816 -1.0250 -0.1261
 4320TIP3    H134451   1.085   4.355   4.394  1.3332  0.7716 -1.1318
 4320TIP3    H234452   1.112   4.398   4.537  0.2293 -1.2214 -0.2851
 4321TIP3   OH234453   5.423   4.271  12.235  0.6841  0.0549  0.1844
 4321TIP3    H134454   5.360   4.284  12.306  0.4400 -0.5906  0.0952
 4321TIP3    H234455   5.436   4.359  12.199 -2.7293 -0.1420 -1.9549
 4322TIP3   OH234456   0.525   1.870  14.631 -0.3505 -0.1410  0.3903
 4322TIP3    H134457   0.545   1.941  14.570  0.3020  2.4669  3.3926
 4322TIP3    H234458   0.610   1.831  14.651 -0.3933 -0.1200  0.6149
 4323TIP3   OH234459   4.284   3.500  15.422 -0.2167  0.2202  0.1497
 4323TIP3    H134460   4.329   3.555  15.358 -1.6251 -1.2381 -2.2104
 4323TIP3    H234461   4.251   3.562  15.488 -1.2455  2.2003 -2.0820
 4324TIP3   OH234462   2.018   2.201  13.854 -0.0142 -0.0754  0.7435
 4324TIP3    H134463   2.088   2.196  13.789 -0.4434 -0.1479  0.2811
 4324TIP3    H234464   2.015   2.293  13.879  1.3700 -0.3287  2.0331
 4325TIP3   OH234465   4.758   5.129  11.956 -0.6324 -0.0566  0.4486
 4325TIP3    H134466   4.668   5.122  11.987 -1.1488 -1.5738 -1.2478
 4325TIP3    H234467   4.755   5.102  11.864  1.7246 -1.4521  0.6713
 4326TIP3   OH234468   0.436   2.891   1.792 -0.2734 -0.1571  0.2958
 4326TIP3    H134469   0.375   2.965   1.788 -0.2401  0.0106  2.2074
 4326TIP3    H234470   0.508   2.922   1.846  0.5369 -1.0560 -0.2423
 4327TIP3   OH234471   6.151   3.961  11.797 -0.1935  0.4781  1.0159
 4327TIP3    H134472   6.083   3.901  11.768  0.8831 -1.1979  1.8091
 4327TIP3    H234473   6.227   3.938  11.744  0.0761  1.6082  0.8776
 4328TIP3   OH234474   2.935   3.352   4.400 -0.0691  0.4328  0.4238
 4328TIP3    H134475   2.929   3.336   4.306  0.3315 -1.9450  0.7315
 4328TIP3    H234476   3.028   3.337   4.421 -0.5263 -1.2243  1.4747
 4329TIP3   OH234477   3.929   0.152   1.164  0.6024  0.6474  0.2955
 4329TIP3    H134478   3.838   0.183   1.159  0.0252 -0.9496 -0.0152
 4329TIP3    H234479   3.980   0.229   1.186 -0.9608  1.4004  1.5230
 4330TIP3   OH234480   1.321   4.243   0.601 -0.1472  0.7414 -0.4944
 4330TIP3    H134481   1.235   4.240   0.641 -1.3349 -0.2937 -2.9236
 4330TIP3    H234482   1.371   4.173   0.645 -0.2808  1.7564  1.3495
 4331TIP3   OH234483   0.221   0.173  11.175 -0.0421  0.7404  0.3399
 4331TIP3    H134484   0.276   0.107  11.217 -2.3211 -0.7391  1.1382
 4331TIP3    H234485   0.211   0.241  11.242 -3.3488 -1.4337  2.3628
 4332TIP3   OH234486   0.016   4.653   2.833 -0.7839 -0.3813 -0.6177
 4332TIP3    H134487  -0.022   4.610   2.910 -3.7493  2.1444 -0.4826
 4332TIP3    H234488   0.082   4.712   2.869 -0.4650 -0.9340 -0.2766
 4333TIP3   OH234489   4.230   0.986   5.407  0.0867 -0.6393 -0.4352
 4333TIP3    H134490   4.281   0.925   5.353  0.3186 -1.1382  0.3242
 4333TIP3    H234491   4.188   0.930   5.473  0.4125  0.0269  0.3609
 4334TIP3   OH234492   4.654   0.891  15.006  0.2178  0.1128 -0.0747
 4334TIP3    H134493   4.610   0.951  15.067  0.9796  1.1389 -0.5170
 4334TIP3    H234494   4.708   0.835  15.063  0.5884  0.7708  0.2223
 4335TIP3   OH234495   0.893   2.213  11.213  0.1029 -0.5906 -0.1498
 4335TIP3    H134496   0.808   2.226  11.171  0.1391 -0.8793 -0.3178
 4335TIP3    H234497   0.934   2.299  11.211 -0.0729 -0.5082 -0.3183
 4336TIP3   OH234498   4.217   5.223  10.763  0.3099  0.2087  0.2004
 4336TIP3    H134499   4.312   5.225  10.752  0.4128 -0.1708  0.9587
 4336TIP3    H234500   4.202   5.155  10.830 -0.2908  2.2565  2.2648
 4337TIP3   OH234501   3.431   0.114  11.570  0.2945  0.3356 -0.1043
 4337TIP3    H134502   3.515   0.107  11.525  0.2076  0.6051 -0.3128
 4337TIP3    H234503   3.408   0.207  11.562 -0.2729  0.1591 -0.4928
 4338TIP3   OH234504   4.801   0.465   1.791 -0.4982 -0.0884 -0.0165
 4338TIP3    H134505   4.852   0.502   1.863 -1.1467  1.0941 -0.1272
 4338TIP3    H234506   4.836   0.377   1.779  2.5632  1.1295 -1.0406
 4339TIP3   OH234507   4.939   4.282  15.423  0.3521  0.1609  0.0933
 4339TIP3    H134508   5.003   4.212  15.404 -1.8561 -2.4617  1.5634
 4339TIP3    H234509   4.866   4.265  15.364  0.4074  2.3374 -0.6880
 4340TIP3   OH234510   3.701   1.542  13.387  0.5088  0.2081  0.5401
 4340TIP3    H134511   3.658   1.542  13.302  1.3975  0.3309  0.0826
 4340TIP3    H234512   3.658   1.613  13.435 -2.9560 -2.4231  1.7763
 4341TIP3   OH234513   6.654   1.159   1.861 -0.0053 -0.2123 -0.2134
 4341TIP3    H134514   6.564   1.145   1.832  0.1021 -1.8943  0.1362
 4341TIP3    H234515   6.687   1.071   1.880  1.3939  0.4524  0.6254
 4342TIP3   OH234516   5.526   1.813  14.798  0.5927 -0.2124 -0.0840
 4342TIP3    H134517   5.498   1.726  14.827  0.2911  0.1090  0.5975
 4342TIP3    H234518   5.560   1.799  14.709  0.1608 -0.9532 -0.1368
 4343TIP3   OH234519   5.022   2.127  13.345  0.3192  0.2117  0.6519
 4343TIP3    H134520   5.010   2.166  13.432 -0.9001 -0.4709  0.8270
 4343TIP3    H234521   5.116   2.132  13.328  0.3741  1.8677  1.2822
 4344TIP3   OH234522   2.666   2.599   3.352 -0.1735  0.2109  0.3705
 4344TIP3    H134523   2.644   2.691   3.369  0.3832  0.4931 -0.4078
 4344TIP3    H234524   2.622   2.551   3.422  1.6540  1.2826  2.3891
 4345TIP3   OH234525   0.472   2.202   0.387  0.4200 -0.0666 -0.2176
 4345TIP3    H134526   0.430   2.171   0.307  3.0642  0.1170 -1.8059
 4345TIP3    H234527   0.408   2.261   0.427 -0.9761 -0.1130 -2.2285
 4346TIP3   OH234528   1.155   5.902   5.707 -1.2003 -0.6037 -0.7544
 4346TIP3    H134529   1.069   5.936   5.732 -1.1424 -0.2347 -1.0417
 4346TIP3    H234530   1.204   5.898   5.788 -0.7096  1.4421 -0.8969
 4347TIP3   OH234531   4.231   4.280  10.044 -0.2629 -0.1918  0.0580
 4347TIP3    H134532   4.229   4.313  10.134 -0.8703 -0.3805  0.1137
 4347TIP3    H234533   4.189   4.194  10.049  0.7192 -0.7146 -0.2015
 4348TIP3   OH234534   5.577   1.871  11.416 -0.3424 -0.1982  0.6199
 4348TIP3    H134535   5.532   1.790  11.393 -0.7525  0.0213  0.6406
 4348TIP3    H234536   5.613   1.855  11.504  1.0841 -0.9760 -0.0767
 4349TIP3   OH234537   0.314   6.431   0.205 -0.5479  0.6740 -1.0755
 4349TIP3    H134538   0.393   6.381   0.226 -2.7547 -2.8415 -0.2529
 4349TIP3    H234539   0.311   6.499   0.272  0.8163 -0.3093  0.0666
 4350TIP3   OH234540   3.469   5.611  16.015 -0.1424  0.6376  0.3252
 4350TIP3    H134541   3.419   5.644  15.940 -1.3335  2.7249  1.9268
 4350TIP3    H234542   3.544   5.671  16.021  1.2327 -0.9122 -0.4952
 4351TIP3   OH234543   1.366   3.715   4.520 -0.2918 -0.5148  0.4540
 4351TIP3    H134544   1.324   3.697   4.604 -2.2637 -1.1462 -0.5885
 4351TIP3    H234545   1.351   3.808   4.504 -2.2501 -0.9061 -0.3209
 4352TIP3   OH234546   5.188   5.124   5.141 -0.1570  0.3199 -0.3424
 4352TIP3    H134547   5.098   5.154   5.153 -0.1737  0.4778 -0.8344
 4352TIP3    H234548   5.180   5.030   5.125 -0.0997  0.0164  1.2673
 4353TIP3   OH234549   5.317   5.631   4.248 -0.2617 -0.3446  0.1895
 4353TIP3    H134550   5.369   5.553   4.267 -1.2380 -0.9246  0.5394
 4353TIP3    H234551   5.264   5.608   4.172  1.7760  1.1134 -1.8220
 4354TIP3   OH234552   2.281   3.142   2.992 -0.4049 -0.6153 -1.1514
 4354TIP3    H134553   2.199   3.095   3.007  0.5739 -2.5673 -1.5344
 4354TIP3    H234554   2.347   3.088   3.036  0.3899  2.4282  1.7621
 4355TIP3   OH234555   1.012   4.236   1.260 -0.0132 -0.1042  0.1487
 4355TIP3    H134556   1.076   4.174   1.296  0.5165 -0.6755 -1.6896
 4355TIP3    H234557   0.929   4.188   1.263 -0.3933  0.5492  2.3008
 4356TIP3   OH234558   2.522   5.332   1.240 -0.1340  0.9320  0.3204
 4356TIP3    H134559   2.568   5.412   1.218 -0.3847  1.1561  0.6030
 4356TIP3    H234560   2.568   5.263   1.191 -0.8927  1.4476 -1.1742
 4357TIP3   OH234561   0.060   5.825   6.158  0.0638  0.0118 -0.3644
 4357TIP3    H134562   0.079   5.768   6.232 -1.9663  0.3472  0.4787
 4357TIP3    H234563   0.007   5.896   6.195  2.9896  2.9112 -1.2198
 4358TIP3   OH234564   3.954   1.195   3.991  0.1898 -0.0729  0.0590
 4358TIP3    H134565   3.995   1.270   4.033 -0.5739  0.4660 -0.1288
 4358TIP3    H234566   4.022   1.158   3.935  0.4666  0.7090 -0.1323
 4359TIP3   OH234567   0.192   4.298  13.158 -0.1004  0.2174  0.4250
 4359TIP3    H134568   0.231   4.215  13.131 -0.8722  0.4756 -1.5712
 4359TIP3    H234569   0.178   4.346  13.077 -1.3088  1.5902  1.4030
 4360TIP3   OH234570   4.712   5.407   4.292 -0.2383 -0.0224  0.3564
 4360TIP3    H134571   4.744   5.317   4.294  1.6954  0.6004 -0.5387
 4360TIP3    H234572   4.674   5.416   4.205 -0.1752  0.1104  0.3431
 4361TIP3   OH234573   5.045   2.579   0.284  0.2035 -0.2165  0.5139
 4361TIP3    H134574   5.082   2.589   0.196  0.2758 -2.7404  0.1662
 4361TIP3    H234575   4.950   2.576   0.270  0.1371  0.6263  0.7104
 4362TIP3   OH234576   4.804   0.990  14.339  0.0926  0.3457 -0.2068
 4362TIP3    H134577   4.783   0.931  14.411  0.0235 -0.2890 -0.7389
 4362TIP3    H234578   4.738   0.970  14.272 -0.9841  2.1893  0.2459
 4363TIP3   OH234579   3.151   4.315   3.817 -0.3011  0.2619  0.0848
 4363TIP3    H134580   3.090   4.254   3.775 -0.0175  0.5485 -0.7682
 4363TIP3    H234581   3.235   4.268   3.818 -0.1058  0.5801 -0.4820
 4364TIP3   OH234582   6.467   6.432  16.637  0.1640 -0.1179  0.5682
 4364TIP3    H134583   6.534   6.447  16.570  0.4215  0.9665  1.0419
 4364TIP3    H234584   6.408   6.369  16.597  0.1410  0.7224 -0.8238
 4365TIP3   OH234585   1.762   4.477  16.930 -0.3746  0.2045 -0.0566
 4365TIP3    H134586   1.840   4.531  16.921 -0.0429 -0.1462  0.6390
 4365TIP3    H234587   1.729   4.495  17.018 -1.0758  0.3446 -0.3450
 4366TIP3   OH234588   0.058   3.061  15.225 -0.3578 -0.2790 -0.3917
 4366TIP3    H134589   0.038   3.036  15.134 -0.6999  1.9027 -0.9626
 4366TIP3    H234590  -0.025   3.050  15.271 -0.1465 -1.5422 -0.2787
 4367TIP3   OH234591   6.431   5.391  16.026  0.2933 -0.9772  0.2786
 4367TIP3    H134592   6.363   5.384  15.959  1.1053 -0.9667 -0.5637
 4367TIP3    H234593   6.494   5.453  15.990  0.8830 -1.1812  0.9379
 4368TIP3   OH234594   1.092   0.947   3.329  0.0601  0.6036 -0.0826
 4368TIP3    H134595   0.999   0.965   3.318 -0.5874 -2.4285 -0.5060
 4368TIP3    H234596   1.097   0.888   3.404  1.2975 -1.2798 -1.5550
 4369TIP3   OH234597   4.794   0.215  12.727 -0.1121  0.4742  0.1396
 4369TIP3    H134598   4.737   0.264  12.787  0.3826 -0.6644  1.5965
 4369TIP3    H234599   4.743   0.207  12.647 -2.0590 -0.5425  1.4052
 4370TIP3   OH234600   1.338   3.011   2.678  0.0357  0.5854  0.4363
 4370TIP3    H134601   1.250   3.026   2.643  0.2855  0.1018 -0.4359
 4370TIP3    H234602   1.392   2.998   2.600  0.2059 -2.8969  0.9801
 4371TIP3   OH234603   3.998   6.350  11.493  0.4705  0.1019  0.4077
 4371TIP3    H134604   3.982   6.329  11.401 -1.4059  2.6905  0.0552
 4371TIP3    H234605   4.027   6.441  11.493  0.9706 -0.0016  2.3559
 4372TIP3   OH234606   2.886   0.426   5.787 -0.4976  0.3072 -0.2168
 4372TIP3    H134607   2.925   0.346   5.752  1.2006  0.2600  1.6022
 4372TIP3    H234608   2.959   0.471   5.831 -1.7885  1.9722  0.3271
 4373TIP3   OH234609   5.653   3.412  16.709  0.2924  0.4672  0.0264
 4373TIP3    H134610   5.635   3.463  16.787 -0.4635 -0.3590  0.4099
 4373TIP3    H234611   5.718   3.463  16.661  1.3903  0.6039  1.5811
 4374TIP3   OH234612   5.992   3.659   1.978  0.6311  0.2244 -0.3654
 4374TIP3    H134613   5.947   3.716   1.915  0.2752  1.2222  0.7480
 4374TIP3    H234614   5.992   3.573   1.937  0.0136  0.7528 -1.5275
 4375TIP3   OH234615   1.123   6.084  11.013 -0.0188  0.6262 -0.7401
 4375TIP3    H134616   1.068   6.010  11.036 -0.5128  0.8935 -1.0457
 4375TIP3    H234617   1.062   6.155  10.992  0.4364  0.9744 -0.9327
 4376TIP3   OH234618   3.074   6.353  15.048  0.1460 -0.9908  0.0156
 4376TIP3    H134619   3.009   6.298  15.005  0.0800  0.0898 -1.3405
 4376TIP3    H234620   3.158   6.314  15.024  0.0759 -0.9088 -0.3764
 4377TIP3   OH234621   5.309   2.303   5.868  0.2924  0.2366  0.4526
 4377TIP3    H134622   5.352   2.356   5.936 -1.2873  1.8757  0.2428
 4377TIP3    H234623   5.245   2.362   5.829 -0.9663 -1.6107 -0.3974
 4378TIP3   OH234624   5.411   2.459   6.091 -0.0931 -0.0264  0.4636
 4378TIP3    H134625   5.485   2.447   6.151  0.7334  1.1995 -0.2592
 4378TIP3    H234626   5.354   2.521   6.135 -0.1517 -0.1449  0.5547
 4379TIP3   OH234627   6.396   1.780  11.303  0.1998 -0.5824  0.7228
 4379TIP3    H134628   6.409   1.870  11.333 -0.0911  0.4733 -2.0448
 4379TIP3    H234629   6.484   1.747  11.286  0.2255  0.0635 -0.5150
 4380TIP3   OH234630   3.338   3.024   3.219 -0.4253 -0.2053  0.0915
 4380TIP3    H134631   3.424   3.064   3.206  0.0422 -1.5466 -1.1886
 4380TIP3    H234632   3.343   2.987   3.308  0.4624 -0.5720 -0.0979
 4381TIP3   OH234633   1.406   6.651  14.380 -0.4994 -0.0954  0.0890
 4381TIP3    H134634   1.480   6.664  14.439 -0.8851  1.8760  0.2181
 4381TIP3    H234635   1.399   6.556  14.370  2.3155 -0.3369 -0.3271
 4382TIP3   OH234636   3.596   0.387   2.945  0.2022 -0.4449 -0.0534
 4382TIP3    H134637   3.514   0.342   2.926  1.3806 -2.0905 -1.5161
 4382TIP3    H234638   3.606   0.450   2.873  0.5465 -0.7115 -0.2369
 4383TIP3   OH234639   2.624   0.959   3.048 -0.6070 -0.2006 -0.3171
 4383TIP3    H134640   2.548   1.008   3.016  0.2004  0.5838 -1.0873
 4383TIP3    H234641   2.629   0.982   3.141 -1.4971 -0.5241 -0.1765
 4384TIP3   OH234642   5.469   6.428  17.099  0.4935 -0.2678  0.2276
 4384TIP3    H134643   5.380   6.437  17.134  0.8637  0.6908  0.9865
 4384TIP3    H234644   5.466   6.349  17.046 -0.7248 -0.4386  0.5108
 4385TIP3   OH234645   3.933   2.768  12.630  0.6536  0.2662 -0.0619
 4385TIP3    H134646   3.936   2.797  12.721 -1.3785 -2.4119  1.0306
 4385TIP3    H234647   3.856   2.811  12.594  2.1649  2.3246 -1.0128
 4386TIP3   OH234648   4.868   0.091  17.187 -0.2881  0.1170  0.0039
 4386TIP3    H134649   4.928   0.159  17.157 -1.5981  0.8399 -1.0508
 4386TIP3    H234650   4.849   0.115  17.278 -0.1566  0.7587 -0.1295
 4387TIP3   OH234651   5.349   2.286   3.470 -0.2162 -0.6667 -0.3219
 4387TIP3    H134652   5.325   2.346   3.400 -2.4452 -0.9911  0.0950
 4387TIP3    H234653   5.435   2.316   3.499  0.0075  0.4906 -2.0647
 4388TIP3   OH234654   6.692   2.350   3.368 -0.0533 -0.2519  0.0358
 4388TIP3    H134655   6.714   2.301   3.289 -0.9413 -0.5379 -0.0401
 4388TIP3    H234656   6.620   2.301   3.407  1.8053 -1.4038  2.2553
 4389TIP3   OH234657   2.846   6.489  14.967  0.5200 -0.3812 -0.0042
 4389TIP3    H134658   2.923   6.457  15.012  1.5124 -0.4783 -1.6774
 4389TIP3    H234659   2.878   6.517  14.881 -1.3454 -0.7149 -0.8678
 4390TIP3   OH234660   5.769   2.126  11.499  0.3113  0.3891  0.3937
 4390TIP3    H134661   5.837   2.094  11.558  1.0362  0.3117 -0.4721
 4390TIP3    H234662   5.764   2.061  11.429 -0.8803  0.2266  0.6055
 4391TIP3   OH234663   6.738   0.254  13.267  0.0122  0.2863  0.0464
 4391TIP3    H134664   6.721   0.328  13.209 -1.2574  0.9602  1.2259
 4391TIP3    H234665   6.667   0.193  13.250  0.5032 -0.2133 -0.2159
 4392TIP3   OH234666   0.853   1.694  12.426  0.2122  0.2903 -0.5433
 4392TIP3    H134667   0.923   1.678  12.490 -0.4787  0.9249  0.4095
 4392TIP3    H234668   0.829   1.607  12.395  2.1278  0.1162 -1.7090
 4393TIP3   OH234669   6.312   3.799  16.317 -0.5159  0.1851  0.5259
 4393TIP3    H134670   6.400   3.804  16.356 -0.4318 -1.6290  0.6435
 4393TIP3    H234671   6.316   3.860  16.243  1.1560 -0.5431 -0.0406
 4394TIP3   OH234672   6.553   0.320   4.997 -1.0167  0.1830  0.2504
 4394TIP3    H134673   6.516   0.394   5.045 -0.4828  0.6596 -0.0553
 4394TIP3    H234674   6.547   0.346   4.905  1.8095  1.1618  0.2361
 4395TIP3   OH234675   6.182   0.079  16.077  0.0261 -0.0785 -0.3923
 4395TIP3    H134676   6.176   0.076  16.172 -0.1618  2.0892 -0.2915
 4395TIP3    H234677   6.252   0.017  16.055 -0.6226 -1.3828  1.0452
 4396TIP3   OH234678   3.919   4.283   2.915  0.1475 -0.2000  0.6691
 4396TIP3    H134679   3.854   4.352   2.929  0.4770  0.2195  0.1940
 4396TIP3    H234680   3.988   4.303   2.978  0.5285  0.2815  0.1152
 4397TIP3   OH234681   3.640   3.047  16.680  0.3016  0.1275 -0.4829
 4397TIP3    H134682   3.570   3.020  16.620  0.0959  0.1593 -0.2614
 4397TIP3    H234683   3.663   3.136  16.653 -0.8414  0.7342  0.4164
 4398TIP3   OH234684   2.310   2.113   2.961  0.2643  0.0021  0.3253
 4398TIP3    H134685   2.273   2.197   2.933  1.4347  0.9583  1.5458
 4398TIP3    H234686   2.366   2.086   2.888  2.2884  1.8422  1.0757
 4399TIP3   OH234687   0.831   0.634   6.502  0.2258  0.2669 -0.4108
 4399TIP3    H134688   0.824   0.729   6.513  2.6972  0.2122  3.8241
 4399TIP3    H234689   0.774   0.597   6.569  2.5287 -1.0191  0.9684
 4400TIP3   OH234690   6.453   1.423   3.531  0.3372 -0.1249  0.0961
 4400TIP3    H134691   6.375   1.410   3.586 -0.1957 -0.5244 -0.7249
 4400TIP3    H234692   6.524   1.434   3.594 -0.3060 -0.2021  0.8725
 4401TIP3   OH234693   6.693   4.203   1.684  0.2323 -0.0192  0.3523
 4401TIP3    H134694   6.605   4.165   1.695  0.9442 -1.8958 -0.1881
 4401TIP3    H234695   6.707   4.204   1.590  0.1895  1.8290  0.3201
 4402TIP3   OH234696   5.562   1.488  15.703  0.9336 -0.2016 -0.3916
 4402TIP3    H134697   5.484   1.434  15.690  1.6307 -1.6730  1.0498
 4402TIP3    H234698   5.531   1.578  15.697 -1.1053 -0.7320  1.1733
 4403TIP3   OH234699   4.573   1.665  16.408 -0.2455 -0.4026  0.2552
 4403TIP3    H134700   4.599   1.739  16.354  1.1700 -1.6836 -0.8994
 4403TIP3    H234701   4.655   1.629  16.442 -0.9356 -1.1534  1.2064
 4404TIP3   OH234702   1.320   0.613  11.882 -0.5236  0.5383  0.1270
 4404TIP3    H134703   1.370   0.545  11.837 -1.9533 -0.3190 -0.2130
 4404TIP3    H234704   1.296   0.675  11.814  2.9133  2.9167  0.7630
 4405TIP3   OH234705   2.279   1.187   0.616 -0.5140 -0.0584 -0.0026
 4405TIP3    H134706   2.202   1.243   0.630 -1.0613 -1.1500  1.5974
 4405TIP3    H234707   2.354   1.247   0.624 -1.1319  0.7400 -0.0364
 4406TIP3   OH234708   3.671   1.991  12.844  0.5704 -0.0290 -0.0537
 4406TIP3    H134709   3.702   2.011  12.932 -0.8947 -0.3931  0.5880
 4406TIP3    H234710   3.749   1.966  12.795  1.2392 -1.3565  1.5854
 4407TIP3   OH234711   2.806   5.841   0.816  0.1980 -0.2037 -0.8236
 4407TIP3    H134712   2.820   5.766   0.874 -0.3344  2.7634  3.6634
 4407TIP3    H234713   2.881   5.898   0.833  0.3336  0.6193 -3.7011
 4408TIP3   OH234714   0.013   1.346  11.265  0.6827  0.4972  0.4268
 4408TIP3    H134715  -0.075   1.310  11.247  0.2000  2.1101 -0.7104
 4408TIP3    H234716   0.008   1.436  11.232  1.5724  1.9191  3.8244
 4409TIP3   OH234717   4.701   0.559   0.527  0.2460  0.3416  0.1561
 4409TIP3    H134718   4.767   0.491   0.540  0.8025  0.6261 -1.0574
 4409TIP3    H234719   4.618   0.517   0.551  0.6494 -0.5996 -0.0771
 4410TIP3   OH234720   4.049   5.857   5.666  0.1835  0.5175 -0.5491
 4410TIP3    H134721   4.006   5.846   5.582  0.3902 -0.8421 -0.4941
 4410TIP3    H234722   3.982   5.898   5.722 -0.1725  0.7958 -1.1660
 4411TIP3   OH234723   3.065   1.209   5.882  0.5508 -0.4155  0.6172
 4411TIP3    H134724   3.082   1.213   5.977  0.8087  1.9753  0.5306
 4411TIP3    H234725   3.149   1.233   5.842 -0.2121  1.0942 -0.1305
 4412TIP3   OH234726   6.265   0.439   2.775  0.4124 -0.2649  0.2332
 4412TIP3    H134727   6.280   0.440   2.870 -0.2675 -1.0356  0.3603
 4412TIP3    H234728   6.269   0.531   2.749  1.0224 -0.0784  0.9353
 4413TIP3   OH234729   3.851   1.517  15.308 -0.0103  0.0732  0.5042
 4413TIP3    H134730   3.818   1.430  15.288  0.7794 -0.3147  0.8583
 4413TIP3    H234731   3.818   1.536  15.396  0.5402 -0.2359  0.7812
 4414TIP3   OH234732   5.319   3.677   1.795 -0.4727 -0.1596  0.3609
 4414TIP3    H134733   5.369   3.720   1.864 -0.6727 -0.6762  0.8344
 4414TIP3    H234734   5.246   3.738   1.777 -0.0172  0.3148  0.0826
 4415TIP3   OH234735   4.656   3.513  12.952 -0.0099 -0.1096  0.2152
 4415TIP3    H134736   4.561   3.516  12.961 -0.0623 -0.5753 -0.0911
 4415TIP3    H234737   4.685   3.604  12.958 -0.5940  0.1622 -0.8924
 4416TIP3   OH234738   5.769   0.234   5.611 -0.4076 -0.1995 -0.1589
 4416TIP3    H134739   5.837   0.249   5.677  0.7842 -1.3279 -1.0812
 4416TIP3    H234740   5.779   0.142   5.586 -1.7267 -0.1615 -0.9434
 4417TIP3   OH234741   0.575   0.065  16.917 -0.1615  0.4527  0.5031
 4417TIP3    H134742   0.487   0.102  16.926 -0.7009 -0.4903 -0.6781
 4417TIP3    H234743   0.561  -0.027  16.897  1.1074  0.2426  0.4927
 4418TIP3   OH234744   6.636   6.736  15.191  0.3677  0.3769 -0.3516
 4418TIP3    H134745   6.641   6.641  15.176  1.4598  0.2293  0.7579
 4418TIP3    H234746   6.691   6.774  15.123 -0.9515  0.3255 -1.4924
 4419TIP3   OH234747   2.839   1.458  15.312  0.2871  0.2530 -0.3494
 4419TIP3    H134748   2.929   1.460  15.279  0.5902 -0.1207  0.4332
 4419TIP3    H234749   2.838   1.525  15.380  0.3859 -0.7408  0.6562
 4420TIP3   OH234750   3.509   2.039   4.762 -0.3127  0.3755 -0.1767
 4420TIP3    H134751   3.437   2.052   4.823 -3.5844 -3.7011 -2.5861
 4420TIP3    H234752   3.562   1.971   4.802  0.0775  0.7898  0.0110
 4421TIP3   OH234753   0.698   0.975  11.859 -0.0878 -0.3608  0.0079
 4421TIP3    H134754   0.748   0.928  11.925 -0.2200 -0.1977  0.2256
 4421TIP3    H234755   0.646   1.039  11.908  0.6479  0.5310 -0.3397
 4422TIP3   OH234756   2.285   5.676  15.920 -0.0744 -0.1650 -0.0677
 4422TIP3    H134757   2.293   5.662  16.014 -1.5663  0.9855  0.2704
 4422TIP3    H234758   2.192   5.662  15.901  0.2330 -0.5586 -1.4113
 4423TIP3   OH234759   4.639   2.310   3.956 -0.1333  0.1488 -0.5092
 4423TIP3    H134760   4.592   2.237   3.915 -0.4685  0.5734 -0.8952
 4423TIP3    H234761   4.634   2.292   4.050 -1.6439  0.5158 -0.4945
 4424TIP3   OH234762   0.599   0.997  12.401  0.6811  0.2757  0.4270
 4424TIP3    H134763   0.526   1.059  12.408 -0.3927 -0.9023  0.0882
 4424TIP3    H234764   0.677   1.052  12.402 -0.2655  1.7548 -1.1836
 4425TIP3   OH234765   2.099   1.173   2.374  0.8124 -0.3150 -0.5002
 4425TIP3    H134766   2.136   1.115   2.441  0.5720 -0.8891 -0.8608
 4425TIP3    H234767   2.170   1.186   2.311  1.3906  1.0606  0.3602
 4426TIP3   OH234768   1.548   3.707   1.978 -0.3866 -0.0404  0.0606
 4426TIP3    H134769   1.596   3.722   2.059  0.7837  1.1046 -0.7921
 4426TIP3    H234770   1.503   3.624   1.991  1.3019 -0.8408  1.1801
 4427TIP3   OH234771   3.198   4.091  12.730 -0.4373  0.7434 -0.2090
 4427TIP3    H134772   3.239   4.086  12.816 -2.6284  0.8683  0.9141
 4427TIP3    H234773   3.212   4.004  12.692  1.2967  0.9504 -0.1440
 4428TIP3   OH234774   4.868   2.290   2.863  0.3224  0.2313  0.3614
 4428TIP3    H134775   4.945   2.241   2.890 -0.9222 -1.6574  0.6830
 4428TIP3    H234776   4.806   2.277   2.935 -0.6503  0.8873 -0.3368
 4429TIP3   OH234777   1.539   5.290   3.328  0.4443 -0.2389 -0.4754
 4429TIP3    H134778   1.466   5.339   3.291  1.1958 -0.1933 -1.9570
 4429TIP3    H234779   1.612   5.309   3.269  1.2709 -1.4889  0.1240
 4430TIP3   OH234780   1.769   4.470   3.124  0.7212 -0.4404  0.0442
 4430TIP3    H134781   1.821   4.391   3.130  0.5053 -0.5928 -0.0760
 4430TIP3    H234782   1.775   4.510   3.211 -0.5359 -1.4559  0.6228
 4431TIP3   OH234783   5.004   4.698  11.408 -0.0027  0.3626  0.0252
 4431TIP3    H134784   4.976   4.609  11.389  0.5469  0.7031 -2.7630
 4431TIP3    H234785   5.086   4.688  11.457  0.1878 -0.6622 -0.4954
 4432TIP3   OH234786   4.372   1.053  10.933  0.6382  0.2366  0.1217
 4432TIP3    H134787   4.394   1.143  10.908  0.1472  0.3228 -0.0044
 4432TIP3    H234788   4.305   1.062  11.000  0.5595 -0.0344  0.0823
 4433TIP3   OH234789   3.555   0.378  16.986 -0.6041  0.5931  0.4391
 4433TIP3    H134790   3.581   0.314  16.920 -1.9012  0.2174  0.2620
 4433TIP3    H234791   3.618   0.365  17.058  0.4956  0.6481 -0.4896
 4434TIP3   OH234792   0.503   4.794   3.622  0.2431  0.0126  0.5435
 4434TIP3    H134793   0.496   4.699   3.635 -0.8591 -0.3497 -1.9948
 4434TIP3    H234794   0.595   4.814   3.639  0.6748 -1.6592  0.3896
 4435TIP3   OH234795   5.976   4.307   2.822  0.0844  0.0390 -0.2827
 4435TIP3    H134796   6.007   4.238   2.764 -0.9595 -0.0656 -0.7354
 4435TIP3    H234797   5.913   4.265   2.880 -0.1797  0.5017 -0.2227
 4436TIP3   OH234798   5.693   2.065  13.647 -0.1641  0.6406 -0.4072
 4436TIP3    H134799   5.716   2.154  13.673  0.1060  0.4049  0.1955
 4436TIP3    H234800   5.598   2.062  13.650 -0.1328  0.2542  1.9336
 4437TIP3   OH234801   1.281   5.251  11.957  0.4879  0.1228  0.6209
 4437TIP3    H134802   1.332   5.172  11.942  0.9708  0.5459 -0.0528
 4437TIP3    H234803   1.271   5.257  12.052  2.3270  0.4190  0.8339
 4438TIP3   OH234804   6.057   0.497  12.321  0.1103  0.3957 -0.6972
 4438TIP3    H134805   6.015   0.426  12.370  0.3557  1.1678  0.6664
 4438TIP3    H234806   6.079   0.457  12.237 -1.3300 -0.6435 -0.6210
 4439TIP3   OH234807   4.399   1.595   1.908 -0.1404  0.3577 -0.1519
 4439TIP3    H134808   4.471   1.647   1.872 -0.7123  1.0405 -0.3340
 4439TIP3    H234809   4.432   1.563   1.992  0.5644  0.2218 -0.4780
 4440TIP3   OH234810   5.742   2.864   5.000  0.0673  0.4255  0.0108
 4440TIP3    H134811   5.758   2.948   4.958 -2.5103  0.5583 -0.8982
 4440TIP3    H234812   5.800   2.863   5.076 -0.9471  3.7764  1.0117
 4441TIP3   OH234813   2.065   4.721   3.462 -0.1118 -0.4262 -0.2012
 4441TIP3    H134814   2.062   4.751   3.553 -0.7862  0.4442 -0.4883
 4441TIP3    H234815   2.078   4.801   3.411  0.5298 -0.9411 -0.8624
 4442TIP3   OH234816   4.158   2.814   2.092  0.0195 -0.0103  0.4609
 4442TIP3    H134817   4.194   2.750   2.153 -0.9756 -0.3449  0.7309
 4442TIP3    H234818   4.163   2.771   2.007  0.5335  0.0749  0.4447
 4443TIP3   OH234819   1.329   4.983  14.491  0.1024  0.0426 -1.2497
 4443TIP3    H134820   1.265   5.012  14.556  0.1937 -1.1692 -0.5912
 4443TIP3    H234821   1.283   4.989  14.408 -0.5046  0.2337 -0.9062
 4444TIP3   OH234822   0.709   4.013  16.251  0.0033  0.8476  0.0853
 4444TIP3    H134823   0.768   4.086  16.231 -1.1246  1.7784  0.0604
 4444TIP3    H234824   0.621   4.049  16.242 -0.6369  0.5005  3.5379
 4445TIP3   OH234825   2.194   4.134   3.122 -0.6322  0.1560 -0.0706
 4445TIP3    H134826   2.125   4.078   3.156 -0.3863 -1.0997 -1.5367
 4445TIP3    H234827   2.274   4.082   3.133 -0.1900  0.8062 -0.1652
 4446TIP3   OH234828   1.834   1.569  16.394  0.3860  0.1794 -0.0543
 4446TIP3    H134829   1.841   1.664  16.381  1.8434 -0.0247 -0.9693
 4446TIP3    H234830   1.744   1.556  16.425  0.2838  1.8946  0.4915
 4447TIP3   OH234831   6.652   5.611   0.882  0.0079  0.1473  0.1415
 4447TIP3    H134832   6.577   5.655   0.922  0.2175  0.2440  0.4303
 4447TIP3    H234833   6.690   5.676   0.824  0.3489  0.3725  0.6067
 4448TIP3   OH234834   5.016   5.522   1.061 -0.7586 -0.7010 -0.5957
 4448TIP3    H134835   5.009   5.618   1.054 -0.4825 -0.6735 -0.5163
 4448TIP3    H234836   5.091   5.508   1.119 -0.7916 -0.9663 -0.6178
 4449TIP3   OH234837   0.297   2.425   1.832  0.5640  0.2235  0.0667
 4449TIP3    H134838   0.261   2.372   1.761  0.7949  1.0778 -0.7054
 4449TIP3    H234839   0.361   2.482   1.790  0.2243  1.2150  0.8428
 4450TIP3   OH234840   3.488   4.021  11.551 -0.4186 -0.5006  0.3646
 4450TIP3    H134841   3.448   3.941  11.584 -2.0608  0.7906  1.6664
 4450TIP3    H234842   3.465   4.088  11.615 -2.8910  1.9570 -2.7333
 4451TIP3   OH234843   3.108   4.065   1.752 -0.3083 -0.6967  0.0144
 4451TIP3    H134844   3.178   4.000   1.763 -0.4122 -1.5580 -3.3336
 4451TIP3    H234845   3.152   4.150   1.758  0.8676 -1.2115 -0.9586
 4452TIP3   OH234846   4.219   5.968  16.932  0.0721 -0.1686 -0.5326
 4452TIP3    H134847   4.185   6.030  16.996  0.4044 -1.6535  1.1755
 4452TIP3    H234848   4.175   5.991  16.850  0.1238  2.2246  0.0347
 4453TIP3   OH234849   6.123   6.053   5.426 -0.0367 -0.3826 -0.0853
 4453TIP3    H134850   6.055   6.026   5.365  0.1590  0.0288 -0.5013
 4453TIP3    H234851   6.080   6.116   5.484 -0.1092 -0.4227 -0.0956
 4454TIP3   OH234852   3.903   0.265   0.146 -0.1925 -0.0064  0.2266
 4454TIP3    H134853   3.854   0.287   0.225 -0.8847 -1.3468  0.1975
 4454TIP3    H234854   3.959   0.192   0.172  1.0803  0.8556 -0.0072
 4455TIP3   OH234855   5.807   5.235  14.693  0.8575  0.0763 -0.0096
 4455TIP3    H134856   5.718   5.264  14.714  0.4797 -1.9273  1.3355
 4455TIP3    H234857   5.856   5.246  14.774  1.7321  0.6528 -0.5975
 4456TIP3   OH234858   2.888   2.683   0.709 -0.0074  0.1945  0.0936
 4456TIP3    H134859   2.803   2.688   0.665 -0.8489  0.9547  1.7161
 4456TIP3    H234860   2.909   2.589   0.710 -2.5915 -0.5169  2.7292
 4457TIP3   OH234861   5.742   1.239   0.311 -0.2206 -0.1065  0.1269
 4457TIP3    H134862   5.760   1.209   0.222  2.9142 -0.7620  0.8473
 4457TIP3    H234863   5.771   1.330   0.312 -0.8895  0.1099  0.3200
 4458TIP3   OH234864   3.031   4.466  14.641 -0.0995 -0.3508 -0.2458
 4458TIP3    H134865   2.962   4.497  14.700  1.7894  0.5314  1.6306
 4458TIP3    H234866   3.084   4.544  14.624  0.0065 -0.8330 -2.2916
 4459TIP3   OH234867   2.303   3.811   3.349  1.0215 -0.2048 -0.4728
 4459TIP3    H134868   2.289   3.895   3.304  0.5861  0.5758  1.0607
 4459TIP3    H234869   2.385   3.778   3.312  0.5999  0.3066 -1.9489
 4460TIP3   OH234870   2.400   0.456  16.388 -0.1301 -0.1918  0.3000
 4460TIP3    H134871   2.420   0.547  16.366 -3.7654  1.3854  2.6079
 4460TIP3    H234872   2.485   0.418  16.412  1.4631  2.6961 -0.3098
 4461TIP3   OH234873   1.920   4.866   5.931  0.4653  0.3062 -0.4569
 4461TIP3    H134874   1.883   4.787   5.971 -0.3147  0.1368 -1.4720
 4461TIP3    H234875   1.897   4.859   5.838 -1.4632  2.7255 -0.2736
 4462TIP3   OH234876   4.548   5.359  11.599  0.4859  0.1568 -0.3404
 4462TIP3    H134877   4.518   5.332  11.512  0.6726 -0.6386 -0.1733
 4462TIP3    H234878   4.643   5.365  11.590  0.4242  1.0594 -0.4451
 4463TIP3   OH234879   6.235   3.619  17.130 -1.0096  0.3700 -0.1324
 4463TIP3    H134880   6.155   3.670  17.117 -1.5867 -0.7552 -1.3343
 4463TIP3    H234881   6.205   3.539  17.175 -0.9841 -0.9423 -2.2621
 4464TIP3   OH234882   6.738   6.072   0.204 -0.0952  0.8262  0.5547
 4464TIP3    H134883   6.676   6.099   0.136 -1.0701 -1.6329  0.3714
 4464TIP3    H234884   6.812   6.132   0.194  0.1516  0.1495 -3.1708
 4465TIP3   OH234885   5.152   1.969   0.728  0.0105 -0.5366 -0.5821
 4465TIP3    H134886   5.196   1.884   0.720 -1.2492 -1.2161 -0.5947
 4465TIP3    H234887   5.159   2.008   0.641  0.0363 -0.9169 -0.7515
 4466TIP3   OH234888   3.699   6.733   3.852  0.0472  0.3268 -0.4184
 4466TIP3    H134889   3.783   6.700   3.883 -1.0419 -2.3164 -0.0090
 4466TIP3    H234890   3.690   6.698   3.763 -0.1757  1.5263 -0.8974
 4467TIP3   OH234891   4.798   0.539   2.746 -0.2669  0.0558  0.2088
 4467TIP3    H134892   4.828   0.609   2.688  0.2057 -0.8621 -0.7127
 4467TIP3    H234893   4.703   0.550   2.750 -0.1635  0.9477  0.3613
 4468TIP3   OH234894   1.032   6.414   2.921 -0.0034 -0.2696 -0.5669
 4468TIP3    H134895   1.087   6.380   2.851  1.6985  1.3748 -0.1120
 4468TIP3    H234896   1.093   6.446   2.987 -1.4316  2.1771 -0.2681
 4469TIP3   OH234897   5.703   1.714   3.412  0.3248 -0.0004 -0.3703
 4469TIP3    H134898   5.795   1.688   3.404 -0.0281 -1.1722 -0.6912
 4469TIP3    H234899   5.654   1.635   3.394 -0.7472  0.4309  0.5463
 4470TIP3   OH234900   2.857   5.435  12.983  0.2450 -0.0766  0.1254
 4470TIP3    H134901   2.880   5.517  13.025  1.9554 -0.1475 -0.5826
 4470TIP3    H234902   2.872   5.450  12.889  1.3817 -1.3872  0.0507
 4471TIP3   OH234903   0.802   3.876   1.228 -0.1919  0.0787  0.7542
 4471TIP3    H134904   0.773   3.956   1.272 -1.6133 -0.2311  0.4380
 4471TIP3    H234905   0.778   3.806   1.289  1.6502 -0.1074  1.3351
 4472TIP3   OH234906   4.707   2.364  16.652  0.3842  0.3043 -0.2206
 4472TIP3    H134907   4.789   2.363  16.602  1.1416  1.8129  0.9159
 4472TIP3    H234908   4.716   2.438  16.711 -2.2739  1.1834 -0.7890
 4473TIP3   OH234909   1.480   0.221   2.374 -0.1887 -0.9576 -0.3532
 4473TIP3    H134910   1.426   0.270   2.436  1.2896 -0.2671  0.4389
 4473TIP3    H234911   1.465   0.263   2.289 -0.3319 -0.3079 -0.0114
 4474TIP3   OH234912   2.619   1.176   1.699 -0.4598 -0.1254  0.0813
 4474TIP3    H134913   2.642   1.201   1.788  1.1379  2.1579 -0.8858
 4474TIP3    H234914   2.699   1.190   1.648 -1.5408 -0.6134 -1.8641
 4475TIP3   OH234915   1.368   3.621   5.840  0.3343 -0.7731 -0.2256
 4475TIP3    H134916   1.310   3.595   5.912 -1.5201 -1.6654 -1.9480
 4475TIP3    H234917   1.374   3.716   5.848 -4.7350  0.0204 -2.1507
 4476TIP3   OH234918   0.548   3.865   2.762 -0.4791 -0.7384 -0.8685
 4476TIP3    H134919   0.580   3.825   2.682  0.8578  1.0488 -1.2985
 4476TIP3    H234920   0.610   3.937   2.780 -0.2671 -1.5135  2.1669
 4477TIP3   OH234921   4.078   1.054   0.577  0.1054 -0.3858  0.1403
 4477TIP3    H134922   4.159   1.067   0.626  0.4049  1.8649 -0.8142
 4477TIP3    H234923   4.100   1.080   0.487 -2.2041  2.6351  0.2999
 4478TIP3   OH234924   6.118   4.652  13.809  0.4917  0.0348 -0.1211
 4478TIP3    H134925   6.188   4.691  13.757  0.8298  0.5460  0.6960
 4478TIP3    H234926   6.131   4.557  13.799 -0.1073  0.0946 -1.8114
 4479TIP3   OH234927   5.790   3.103  14.296  0.4337 -0.1336 -0.0834
 4479TIP3    H134928   5.723   3.058  14.244 -1.4236  0.0120  2.0406
 4479TIP3    H234929   5.862   3.040  14.301  0.0838 -0.7098 -1.5555
 4480TIP3   OH234930   5.069   3.850   5.320  0.0035 -0.2182  0.2113
 4480TIP3    H134931   4.986   3.808   5.298 -0.0540  0.9448 -2.1436
 4480TIP3    H234932   5.046   3.943   5.331  0.7982 -0.0900  0.9003
 4481TIP3   OH234933   0.770   5.523   1.597 -0.0625 -0.0889  0.1012
 4481TIP3    H134934   0.796   5.451   1.540  2.3151  0.1961  0.7143
 4481TIP3    H234935   0.691   5.559   1.556  1.5676  0.2060 -3.1308
 4482TIP3   OH234936   0.209   3.437   5.406  0.1448  0.1362 -0.5225
 4482TIP3    H134937   0.255   3.521   5.415  0.8596 -0.0758 -1.9007
 4482TIP3    H234938   0.270   3.372   5.441 -1.1532  0.3252  2.3095
 4483TIP3   OH234939   6.815   6.075   4.887  0.2424 -0.1484 -0.8070
 4483TIP3    H134940   6.893   6.052   4.937  1.4603  0.0696 -2.4942
 4483TIP3    H234941   6.849   6.123   4.812 -1.5914  0.4748 -1.2859
 4484TIP3   OH234942   4.117   4.246  11.696 -0.1674 -0.0777 -0.6724
 4484TIP3    H134943   4.038   4.292  11.668  0.3833  1.2652 -0.1043
 4484TIP3    H234944   4.107   4.237  11.791  0.7811  0.9915 -0.4502
 4485TIP3   OH234945   2.958   4.736  15.772  0.2849  0.2082  0.2805
 4485TIP3    H134946   2.983   4.820  15.810  1.6680 -0.1933  0.3076
 4485TIP3    H234947   2.998   4.736  15.686 -0.3006 -0.1444  0.0027
 4486TIP3   OH234948   6.109   3.931  16.480 -1.1250  0.2041 -0.0755
 4486TIP3    H134949   6.191   3.887  16.460 -0.3871  2.1054 -1.5295
 4486TIP3    H234950   6.131   3.989  16.554 -1.8089 -0.9660  1.0967
 4487TIP3   OH234951   5.843   0.982  14.312  0.2610  0.6052  0.7209
 4487TIP3    H134952   5.905   0.957  14.243  0.3181  0.4882  0.8121
 4487TIP3    H234953   5.862   0.920  14.383 -1.1430 -0.5876  0.1076
 4488TIP3   OH234954   5.156   3.744  12.998 -0.4282 -0.1086 -0.0162
 4488TIP3    H134955   5.209   3.802  12.944  0.2299  0.1211  0.8492
 4488TIP3    H234956   5.180   3.656  12.970  0.1808  0.0000  0.1502
 4489TIP3   OH234957   6.210   2.569  17.114  0.1858 -0.2206 -0.5452
 4489TIP3    H134958   6.142   2.594  17.177 -0.5481 -1.3307 -0.8658
 4489TIP3    H234959   6.290   2.608  17.149 -0.5637  0.9272 -0.0414
 4490TIP3   OH234960   4.301   4.443   0.924  0.7153 -0.4358  0.2222
 4490TIP3    H134961   4.332   4.354   0.937 -1.0122 -1.2684 -0.9908
 4490TIP3    H234962   4.280   4.448   0.831  1.6662  1.5591  0.0652
 4491TIP3   OH234963   0.123   3.587   0.476 -0.7031 -0.3002  0.5738
 4491TIP3    H134964   0.028   3.590   0.467 -0.9184  0.1872  2.5587
 4491TIP3    H234965   0.142   3.641   0.553  1.2448  0.0842 -0.1056
 4492TIP3   OH234966   2.716   2.860  12.431 -0.4568 -0.8419 -0.1823
 4492TIP3    H134967   2.731   2.824  12.343 -1.2908  1.1068 -1.1968
 4492TIP3    H234968   2.729   2.954  12.420  0.4690 -0.6516  2.0624
 4493TIP3   OH234969   3.721   0.188  14.066 -0.6351  0.1269  0.0170
 4493TIP3    H134970   3.804   0.205  14.112  0.3621 -1.5171 -1.0495
 4493TIP3    H234971   3.662   0.158  14.135  0.4355 -1.0357  0.4748
 4494TIP3   OH234972   1.483   5.811   3.250  0.4450 -0.1318  0.4687
 4494TIP3    H134973   1.545   5.746   3.284  0.4802 -0.2331  0.2134
 4494TIP3    H234974   1.434   5.840   3.327  0.2850 -0.6180  0.5578
 4495TIP3   OH234975   4.401   1.308   0.928  0.2220 -0.1502 -0.0824
 4495TIP3    H134976   4.381   1.226   0.971  1.0928 -0.2196  0.2163
 4495TIP3    H234977   4.391   1.375   0.996 -1.1238  0.0811 -0.4878
 4496TIP3   OH234978   2.087   2.605  16.392 -0.3858 -0.6399 -0.0921
 4496TIP3    H134979   2.138   2.681  16.417 -0.4862 -0.9201  0.9987
 4496TIP3    H234980   2.152   2.537  16.375 -0.3646 -1.0505  1.4767
 4497TIP3   OH234981   0.354   0.537   1.329 -0.1513  0.5251 -0.3266
 4497TIP3    H134982   0.262   0.562   1.331 -0.3428 -0.1634 -0.1091
 4497TIP3    H234983   0.366   0.481   1.406 -0.0595 -1.0672 -1.4477
 4498TIP3   OH234984   0.470   4.984  14.981  0.2531 -0.2274 -0.5765
 4498TIP3    H134985   0.457   5.078  14.992 -1.8377 -0.5996  0.8124
 4498TIP3    H234986   0.530   4.959  15.051 -2.5046 -0.4765  1.9231
 4499TIP3   OH234987   5.380   1.640   4.091  0.3678  0.1609 -0.1037
 4499TIP3    H134988   5.436   1.620   4.016 -0.4848 -2.8327 -0.0634
 4499TIP3    H234989   5.291   1.618   4.062 -0.1917  0.4484  1.2763
 4500TIP3   OH234990   2.251   6.407  14.477 -0.3133  0.5388 -0.1337
 4500TIP3    H134991   2.264   6.322  14.433  1.2089  0.2729  0.7621
 4500TIP3    H234992   2.324   6.461  14.446 -1.4948  1.6983 -1.0120
 4501TIP3   OH234993   3.377   0.314   0.529  0.0006  0.5874 -0.0901
 4501TIP3    H134994   3.323   0.393   0.536 -1.8963 -0.7176  0.8569
 4501TIP3    H234995   3.317   0.246   0.500  1.7253 -0.4211 -1.4670
 4502TIP3   OH234996   1.130   1.144  13.173  0.0188  0.4578  0.0955
 4502TIP3    H134997   1.176   1.160  13.255 -1.2386  0.6727  0.7788
 4502TIP3    H234998   1.159   1.214  13.115 -1.6363  2.3598  1.4567
 4503TIP3   OH234999   0.746   5.897   3.042 -0.1193 -0.1375 -0.9668
 4503TIP3    H135000   0.798   5.968   3.005  1.0858 -0.5341 -0.0866
 4503TIP3    H235001   0.809   5.828   3.061 -0.9659 -0.6518  0.0709
 4504TIP3   OH235002   6.118   5.729  14.173  0.1223  0.1659 -0.2835
 4504TIP3    H135003   6.165   5.727  14.090 -0.2641  2.4947 -0.6293
 4504TIP3    H235004   6.169   5.788  14.228 -0.0756 -0.7113  0.8706
 4505TIP3   OH235005   5.693   6.399  15.232  0.4057  0.9809 -0.8227
 4505TIP3    H135006   5.748   6.477  15.239  0.7631  0.7334 -0.7815
 4505TIP3    H235007   5.753   6.331  15.203  0.3056  0.5111  0.0299
 4506TIP3   OH235008   2.813   1.015   3.574  0.7478 -0.3648  0.4729
 4506TIP3    H135009   2.782   1.096   3.532  0.5003 -1.0319 -0.6874
 4506TIP3    H235010   2.794   0.946   3.510  2.6326 -1.1117  0.6440
 4507TIP3   OH235011   2.685   3.392   1.074 -0.4765  0.8062 -0.0998
 4507TIP3    H135012   2.672   3.312   1.022 -2.2835  2.4363 -2.4083
 4507TIP3    H235013   2.773   3.421   1.051 -0.8485  0.9180 -1.4939
 4508TIP3   OH235014   3.738   5.736   1.701  0.2562 -0.0324  0.0527
 4508TIP3    H135015   3.825   5.767   1.727 -0.1468  0.3749  0.9775
 4508TIP3    H235016   3.705   5.691   1.779 -1.0061  1.2341  0.2858
 4509TIP3   OH235017   1.983   4.082  14.734 -0.2716  0.2325 -0.1720
 4509TIP3    H135018   2.067   4.037  14.740  0.5632  1.7941  0.3782
 4509TIP3    H235019   1.968   4.118  14.822 -1.6055 -0.1487 -0.2134
 4510TIP3   OH235020   4.796   6.540  13.206 -0.3017 -0.2228  0.2268
 4510TIP3    H135021   4.870   6.586  13.166  0.4241  0.9505  2.7029
 4510TIP3    H235022   4.725   6.603  13.203 -0.8565 -0.8806 -0.9884
 4511TIP3   OH235023   5.626   6.328   0.900 -0.1871 -0.4096 -0.1403
 4511TIP3    H135024   5.620   6.237   0.929  0.9726 -1.2270 -2.2404
 4511TIP3    H235025   5.535   6.358   0.897 -0.6803 -1.8171 -0.2912
 4512TIP3   OH235026   5.649   2.850   2.583 -0.1786  0.1100  0.4294
 4512TIP3    H135027   5.610   2.854   2.495 -0.1756 -1.0440  0.3682
 4512TIP3    H235028   5.574   2.849   2.642 -0.3881 -3.2647  0.2778
 4513TIP3   OH235029   2.140   4.889   0.413  0.6991  0.2310  0.0374
 4513TIP3    H135030   2.123   4.800   0.383  0.9685 -0.3004  1.4153
 4513TIP3    H235031   2.092   4.944   0.352  0.1934 -0.8733 -0.5860
 4514TIP3   OH235032   2.614   2.488   4.230 -0.8688  0.0547  0.2379
 4514TIP3    H135033   2.702   2.525   4.231 -1.1401  0.7112  0.8222
 4514TIP3    H235034   2.557   2.562   4.251 -1.4074 -0.7243  1.6382
 4515TIP3   OH235035   6.342   5.810   0.678 -0.4256 -0.0404 -0.2030
 4515TIP3    H135036   6.346   5.742   0.745  1.0385 -0.5679 -0.7864
 4515TIP3    H235037   6.378   5.769   0.599 -3.5900  0.0249 -1.8457
 4516TIP3   OH235038   3.413   4.293  12.923 -0.1851  0.5552 -0.0631
 4516TIP3    H135039   3.391   4.201  12.932 -1.2311  0.7245 -0.6517
 4516TIP3    H235040   3.341   4.330  12.871  1.6433  1.0942 -2.4024
 4517TIP3   OH235041   5.206   1.715   0.625  0.8793 -0.1311 -0.7100
 4517TIP3    H135042   5.202   1.733   0.531  0.6372 -1.0095 -0.8727
 4517TIP3    H235043   5.296   1.737   0.649  0.4564  1.8272 -0.7682
 4518TIP3   OH235044   2.662   4.117  15.324  0.1489  0.7276 -0.1469
 4518TIP3    H135045   2.666   4.171  15.245 -3.2967  2.5919  0.7199
 4518TIP3    H235046   2.582   4.065  15.313  0.8231 -0.6293  1.1505
 4519TIP3   OH235047   3.335   5.540   1.442  0.5883  0.4483  0.9143
 4519TIP3    H135048   3.405   5.562   1.504  1.5830  0.5431 -0.1915
 4519TIP3    H235049   3.318   5.622   1.395 -0.1599  0.3831  1.0598
 4520TIP3   OH235050   3.079   1.699  12.081 -0.3041 -0.7050  0.2017
 4520TIP3    H135051   2.992   1.736  12.070  0.3359  0.5488 -0.9361
 4520TIP3    H235052   3.084   1.675  12.174 -1.6044 -0.1690  0.4252
 4521TIP3   OH235053   4.734   6.291   2.010  0.4830 -0.6670 -0.0157
 4521TIP3    H135054   4.823   6.287   1.974  1.0235  0.2173  1.1159
 4521TIP3    H235055   4.719   6.204   2.048  1.1138 -0.6525  0.2914
 4522TIP3   OH235056   1.416   3.358  16.595  0.3918 -0.3058  0.5584
 4522TIP3    H135057   1.351   3.383  16.660 -0.7575 -0.7463 -0.4052
 4522TIP3    H235058   1.408   3.263  16.588  0.5526 -0.2713 -0.1730
 4523TIP3   OH235059   3.390   0.283  12.473 -0.3610  0.2091  0.1051
 4523TIP3    H135060   3.399   0.189  12.484 -2.5883 -0.0383  0.4059
 4523TIP3    H235061   3.448   0.305  12.401  0.8217 -1.2447  0.5694
 4524TIP3   OH235062   1.831   6.312  13.004 -0.5168  0.1739  0.3452
 4524TIP3    H135063   1.746   6.285  13.038 -0.0904 -0.6872  0.7646
 4524TIP3    H235064   1.810   6.368  12.929 -1.4519  0.0416  0.4956
 4525TIP3   OH235065   2.550   2.620   1.915 -0.3562  0.0623 -0.8521
 4525TIP3    H135066   2.519   2.555   1.978 -1.2782  0.8685 -0.4512
 4525TIP3    H235067   2.612   2.572   1.859 -0.4066 -0.9458 -0.0631
 4526TIP3   OH235068   2.005   4.056   3.587 -0.3100  0.2485 -0.5090
 4526TIP3    H135069   2.018   4.139   3.633  0.9022 -0.6976  0.9249
 4526TIP3    H235070   2.092   4.017   3.581 -0.8081 -0.7829 -1.4603
 4527TIP3   OH235071   3.130   1.201   0.343 -0.0795  0.4365 -0.4875
 4527TIP3    H135072   3.221   1.227   0.330  0.4205 -0.7983  0.4190
 4527TIP3    H235073   3.131   1.106   0.336 -1.2969  0.4037 -0.3907
 4528TIP3   OH235074   6.436   1.323   5.824  0.0409  0.0269 -0.2064
 4528TIP3    H135075   6.523   1.356   5.847 -0.8817  3.0318 -0.6501
 4528TIP3    H235076   6.385   1.332   5.905 -0.3856  0.2190 -0.4967
 4529TIP3   OH235077   1.057   4.490   1.337 -0.2679 -0.1367  0.1629
 4529TIP3    H135078   1.139   4.513   1.293  0.0826 -1.4812  0.0487
 4529TIP3    H235079   1.036   4.403   1.303 -2.6568  0.8256 -1.1065
 4530TIP3   OH235080   5.399   2.052  12.887  0.8294 -0.0139 -0.2584
 4530TIP3    H135081   5.439   2.136  12.912  0.7239  0.0111 -0.1771
 4530TIP3    H235082   5.311   2.055  12.923  0.9037 -0.2595 -0.0581
 4531TIP3   OH235083   4.339   6.379  13.569 -0.4782  0.0900  0.6183
 4531TIP3    H135084   4.423   6.422  13.551 -0.5915 -0.5210 -1.7836
 4531TIP3    H235085   4.348   6.344  13.658  1.9031 -0.1454  0.3477
 4532TIP3   OH235086   0.689   6.393  12.518 -0.7228 -0.1555  0.1736
 4532TIP3    H135087   0.656   6.441  12.441 -1.0569 -2.8119 -1.4701
 4532TIP3    H235088   0.781   6.377  12.499 -0.7890 -0.7638  0.3422
 4533TIP3   OH235089   3.190   1.607  15.561 -0.5514  0.4034 -0.4509
 4533TIP3    H135090   3.173   1.557  15.640  2.6135  1.0086  0.7277
 4533TIP3    H235091   3.215   1.542  15.495 -2.8945 -0.0665 -0.9862
 4534TIP3   OH235092   0.950   0.876  12.650  0.0085 -0.1959  0.3099
 4534TIP3    H135093   1.044   0.862  12.640  0.4724  1.7614  1.3901
 4534TIP3    H235094   0.927   0.936  12.578 -0.3156 -0.2739  0.3463
 4535TIP3   OH235095   0.691   4.778  16.619  0.3677  0.1407  0.2090
 4535TIP3    H135096   0.775   4.792  16.573 -1.0193  1.9131 -2.0105
 4535TIP3    H235097   0.654   4.866  16.628 -2.2659 -0.7349 -1.0454
 4536TIP3   OH235098   2.860   2.924   1.521 -0.1852  0.5514 -0.3625
 4536TIP3    H135099   2.804   2.998   1.543 -1.1108 -0.1501 -0.2941
 4536TIP3    H235100   2.815   2.881   1.448 -0.7519 -1.0884  0.8776
 4537TIP3   OH235101   2.956   0.749   3.789 -0.0576  0.2759  0.0557
 4537TIP3    H135102   2.879   0.804   3.776 -0.3418 -0.3949 -1.3397
 4537TIP3    H235103   3.030   0.809   3.781 -0.4094  0.8053  0.7022
 4538TIP3   OH235104   2.544   6.820   1.531  0.1919  0.0334  0.0410
 4538TIP3    H135105   2.584   6.808   1.617  0.8558 -1.7437 -0.4510
 4538TIP3    H235106   2.463   6.867   1.548 -0.1056 -1.0068  1.7656
 4539TIP3   OH235107   1.815   0.268   3.500  0.1338  0.1278 -0.3162
 4539TIP3    H135108   1.910   0.268   3.491  0.1296  0.2126 -0.3602
 4539TIP3    H235109   1.784   0.216   3.427  0.1447  0.1347 -0.3260
 4540TIP3   OH235110   6.185   2.074   2.316  0.3410 -0.9630 -0.1400
 4540TIP3    H135111   6.159   2.138   2.382  0.8179 -0.7528 -0.1474
 4540TIP3    H235112   6.138   2.099   2.237 -1.8569 -2.4250  0.6032
 4541TIP3   OH235113   5.921   1.247   4.950 -0.1048 -0.0934 -0.0014
 4541TIP3    H135114   5.912   1.164   4.997 -1.0356  0.6219  1.1560
 4541TIP3    H235115   6.010   1.276   4.970  0.4263 -1.0526 -0.8732
 4542TIP3   OH235116   3.361   5.104  15.016 -0.4883 -0.0605 -0.1744
 4542TIP3    H135117   3.434   5.163  14.998 -0.2260 -0.6274 -0.9911
 4542TIP3    H235118   3.297   5.159  15.062  0.1898  0.5926 -0.0014
 4543TIP3   OH235119   0.607   3.137  13.036  0.7143  0.1487  0.4743
 4543TIP3    H135120   0.666   3.202  12.998 -0.3492 -0.3783 -2.2918
 4543TIP3    H235121   0.611   3.062  12.976  0.4831 -1.6429  2.5602
 4544TIP3   OH235122   3.497   6.133   2.749  0.3198 -0.3141 -0.1461
 4544TIP3    H135123   3.580   6.159   2.710 -0.3442 -0.8654 -2.0363
 4544TIP3    H235124   3.522   6.084   2.828  1.7565 -0.0785 -0.4206
 4545TIP3   OH235125   4.046   5.701  14.044  0.3238  0.5275 -0.2591
 4545TIP3    H135126   3.991   5.741  13.976 -0.1883  0.4165  0.0846
 4545TIP3    H235127   3.999   5.623  14.070  1.4022 -0.4191 -1.0441
 4546TIP3   OH235128   4.349   4.917  16.388 -0.3605  0.1007  0.1808
 4546TIP3    H135129   4.285   4.866  16.337  0.6197  0.0428 -1.0429
 4546TIP3    H235130   4.315   5.006  16.389 -1.7174 -0.3827  1.7090
 4547TIP3   OH235131   0.621   0.424   4.699  0.3151 -0.2493 -0.1070
 4547TIP3    H135132   0.550   0.469   4.744 -0.4138 -1.2146 -0.2677
 4547TIP3    H235133   0.680   0.494   4.671  0.1879  0.4515  1.3116
 4548TIP3   OH235134   4.525   4.777   2.352  0.3650 -0.2552  0.2315
 4548TIP3    H135135   4.545   4.869   2.338 -0.5528 -0.3234 -1.8372
 4548TIP3    H235136   4.451   4.777   2.413 -0.1062  0.4179 -0.3269
 4549TIP3   OH235137   0.368   4.564   3.824 -0.2668  0.4444 -0.1826
 4549TIP3    H135138   0.300   4.578   3.759 -1.9644  0.3537  1.5038
 4549TIP3    H235139   0.395   4.473   3.812 -0.0339  0.6467 -1.2259
 4550TIP3   OH235140   0.195   0.167   2.720 -0.2795 -0.2141 -0.0159
 4550TIP3    H135141   0.196   0.092   2.661  2.0641 -0.2125 -0.0436
 4550TIP3    H235142   0.251   0.141   2.793 -0.8968  0.8528  0.8715
 4551TIP3   OH235143   4.423   0.740  14.452  0.0009  0.3732 -0.0697
 4551TIP3    H135144   4.396   0.708  14.366 -0.5046 -0.0062  0.2194
 4551TIP3    H235145   4.453   0.662  14.498  2.6257  0.9115 -0.7073
 4552TIP3   OH235146   2.130   3.540   5.607 -0.1190  0.2455 -0.1351
 4552TIP3    H135147   2.182   3.496   5.540  2.3247  1.4519  0.8640
 4552TIP3    H235148   2.104   3.623   5.567  0.6335  0.6019  0.0961
 4553TIP3   OH235149   1.945   1.064  13.146 -0.5046  0.0345 -0.2010
 4553TIP3    H135150   2.006   1.051  13.074 -1.2399  0.4220 -0.9140
 4553TIP3    H235151   1.932   0.977  13.183  0.3699 -0.0699 -0.1260
 4554TIP3   OH235152   3.821   0.491   1.146  0.7760  0.0486 -0.2484
 4554TIP3    H135153   3.749   0.498   1.084  0.4871  0.3986  0.1173
 4554TIP3    H235154   3.900   0.492   1.092  0.4955 -1.1474 -0.7187
 4555TIP3   OH235155   5.986   0.332   5.812 -0.2470  0.3137  0.5199
 4555TIP3    H135156   6.038   0.305   5.887  1.5204 -1.0683 -1.1005
 4555TIP3    H235157   5.936   0.407   5.843  2.6217  1.6909  2.2678
 4556TIP3   OH235158   3.012   4.428  16.974 -0.0335 -0.9726  0.2360
 4556TIP3    H135159   3.098   4.471  16.974 -0.5174  0.0702  1.5542
 4556TIP3    H235160   2.986   4.427  16.882  0.1806  1.2896  0.0836
 4557TIP3   OH235161   0.471   4.097   1.206 -0.0396 -0.5459 -0.1480
 4557TIP3    H135162   0.440   4.183   1.233  1.2906  0.0474 -0.4433
 4557TIP3    H235163   0.396   4.057   1.162 -0.2176  1.0816 -1.3993
 4558TIP3   OH235164   4.717   5.875  16.856  0.4290  0.5921  0.2505
 4558TIP3    H135165   4.797   5.828  16.829  1.0022  1.0013  1.1899
 4558TIP3    H235166   4.700   5.844  16.945 -0.7959  0.0970 -0.1331
 4559TIP3   OH235167   2.590   5.412   4.360 -0.4094  0.2170  0.3886
 4559TIP3    H135168   2.628   5.424   4.447  0.2528 -1.3110  0.3438
 4559TIP3    H235169   2.528   5.340   4.370  0.4819 -0.7297 -0.6205
 4560TIP3   OH235170   0.257   6.494  12.199  0.3903 -0.6994 -0.4180
 4560TIP3    H135171   0.310   6.472  12.123  1.8752 -0.4191  0.4823
 4560TIP3    H235172   0.168   6.467  12.176  0.6452  0.0807 -2.5237
 4561TIP3   OH235173   6.042   6.780   2.321 -0.0704 -0.0701 -0.5518
 4561TIP3    H135174   6.075   6.691   2.332  1.0682  0.0482 -2.6086
 4561TIP3    H235175   6.003   6.781   2.234 -0.2950  1.3914 -0.4669
 4562TIP3   OH235176   2.632   2.091   0.758 -0.1965  0.1228 -0.2376
 4562TIP3    H135177   2.547   2.048   0.773 -0.2241  0.1122 -0.4138
 4562TIP3    H235178   2.661   2.118   0.844 -1.1327  1.5635 -0.3401
 4563TIP3   OH235179   1.786   4.202  13.415  0.5473 -0.4522  0.1453
 4563TIP3    H135180   1.803   4.264  13.486  0.8386  0.3240 -0.5887
 4563TIP3    H235181   1.746   4.127  13.458 -0.9623  0.7275  0.9161
 4564TIP3   OH235182   1.111   3.762  12.007 -0.1139 -0.3884 -0.2173
 4564TIP3    H135183   1.193   3.722  12.035  0.0538  0.1219  0.0365
 4564TIP3    H235184   1.065   3.692  11.960 -0.4754 -1.3294  1.4542
 4565TIP3   OH235185   6.160   2.622   2.116 -0.0306 -0.6171 -0.2194
 4565TIP3    H135186   6.254   2.625   2.097  0.0108 -1.6550 -0.2369
 4565TIP3    H235187   6.154   2.568   2.195 -0.4999  0.6975  0.6878
 4566TIP3   OH235188   5.404   3.710   4.653 -0.6577  0.2232 -0.4570
 4566TIP3    H135189   5.423   3.632   4.600  2.0579  0.2624  0.3307
 4566TIP3    H235190   5.390   3.780   4.589  0.1678 -0.2305 -1.1444
 4567TIP3   OH235191   3.993   1.066   3.692 -0.5299 -0.6028  0.2945
 4567TIP3    H135192   3.935   1.141   3.693 -0.6986 -0.6144 -2.1019
 4567TIP3    H235193   4.059   1.085   3.759 -0.9189  1.3983  0.1667
 4568TIP3   OH235194   6.750   0.642   4.419  0.3229  0.5649 -0.5511
 4568TIP3    H135195   6.696   0.699   4.473  0.8373  0.7571 -0.2308
 4568TIP3    H235196   6.802   0.592   4.482  1.2140  1.0720 -0.8649
 4569TIP3   OH235197   5.659   2.797   2.266 -0.2787 -0.5535  0.6342
 4569TIP3    H135198   5.588   2.850   2.230 -0.7204 -0.7748  1.1626
 4569TIP3    H235199   5.617   2.714   2.289  0.1963 -0.7612  0.7657
 4570TIP3   OH235200   1.981   6.505  16.043  0.1513  0.2720 -0.3173
 4570TIP3    H135201   1.969   6.421  16.088 -0.4857  0.2348 -0.5358
 4570TIP3    H235202   1.961   6.571  16.110  1.9457  0.3010  0.2320
 4571TIP3   OH235203   1.720   2.517   5.077 -0.1897 -0.1236 -0.3937
 4571TIP3    H135204   1.789   2.452   5.091 -0.7500 -0.6439  0.0235
 4571TIP3    H235205   1.763   2.601   5.090  0.6117 -0.3982 -1.2006
 4572TIP3   OH235206   3.454   4.119   4.179  0.1461 -0.3596  0.3305
 4572TIP3    H135207   3.519   4.058   4.145 -1.0609 -1.4367 -0.1301
 4572TIP3    H235208   3.503   4.175   4.240  1.5348 -0.9599 -0.1905
 4573TIP3   OH235209   2.900   5.029   6.690  0.1921  0.3545 -0.1351
 4573TIP3    H135210   2.907   5.052   6.598  1.2798 -0.1920 -0.2096
 4573TIP3    H235211   2.806   5.023   6.707 -0.0593 -2.1079 -1.8829
 4574TIP3   OH235212   5.424   5.915  13.510 -0.8156 -0.3264  0.0157
 4574TIP3    H135213   5.410   6.000  13.468  0.4056 -0.0530  0.1299
 4574TIP3    H235214   5.492   5.873  13.458 -1.5144 -1.3078 -0.1235
 4575TIP3   OH235215   4.555   1.013   6.064 -0.3268 -0.4977  0.4872
 4575TIP3    H135216   4.595   0.990   6.148  0.7346  0.7918  0.3658
 4575TIP3    H235217   4.612   1.081   6.028 -1.4430 -0.1657 -0.7249
 4576TIP3   OH235218   1.940   2.401  11.458 -0.0460  0.3105 -0.4192
 4576TIP3    H135219   1.968   2.345  11.386  1.7848 -0.6042  0.9120
 4576TIP3    H235220   1.849   2.423  11.438  0.0850 -0.7566 -2.4436
 4577TIP3   OH235221   1.967   6.598  10.610 -0.4968 -0.3182  0.4572
 4577TIP3    H135222   2.016   6.517  10.625 -2.5056 -1.6322  0.3505
 4577TIP3    H235223   1.875   6.570  10.608 -1.1502  1.6590 -1.5910
 4578TIP3   OH235224   2.561   1.980  13.905  0.1123 -0.0463 -0.4190
 4578TIP3    H135225   2.636   1.997  13.963  0.3144 -0.7317 -0.4599
 4578TIP3    H235226   2.555   1.884  13.903 -1.0625  0.0109 -0.0396
 4579TIP3   OH235227   3.360   5.410   6.901  0.1127  0.7066  0.6318
 4579TIP3    H135228   3.420   5.449   6.963  0.3220  1.2519  0.1007
 4579TIP3    H235229   3.401   5.424   6.815 -0.1472 -0.0653  0.3742
 4580TIP3   OH235230   3.295   6.467   5.705  0.2971  0.0804  0.4067
 4580TIP3    H135231   3.282   6.432   5.617  0.3271  0.7884  0.1107
 4580TIP3    H235232   3.265   6.558   5.700 -1.3608 -0.3545  1.5907
 4581TIP3   OH235233   4.859   3.200  12.048 -0.0913 -0.3102  0.0379
 4581TIP3    H135234   4.816   3.276  12.011 -0.0214  1.1265  2.6491
 4581TIP3    H235235   4.951   3.209  12.022 -0.2986 -0.1475 -0.6410
 4582TIP3   OH235236   1.541   0.349   3.411 -0.6078 -0.6250  0.1356
 4582TIP3    H135237   1.566   0.409   3.341 -2.4050 -1.5088 -1.3727
 4582TIP3    H235238   1.623   0.319   3.448  0.3640  1.4689 -0.1693
 4583TIP3   OH235239   4.114   5.292  11.116 -0.1489  0.0845 -0.3093
 4583TIP3    H135240   4.208   5.310  11.104 -0.2367  0.7026 -0.0986
 4583TIP3    H235241   4.070   5.367  11.077 -0.4946  1.1024  1.9100
 4584TIP3   OH235242   4.130   6.550  13.528  0.1857 -0.4003  0.0840
 4584TIP3    H135243   4.056   6.527  13.471  1.0926 -2.0411 -0.4953
 4584TIP3    H235244   4.172   6.466  13.547  0.4575  0.2060  2.4565
 4585TIP3   OH235245   1.437   5.074   3.650 -0.3597  0.0576  0.1556
 4585TIP3    H135246   1.492   5.070   3.572  0.6849  1.2613  0.7801
 4585TIP3    H235247   1.482   5.018   3.713  0.2572  1.1300  0.7042
 4586TIP3   OH235248   6.612   1.592   4.003  0.2353 -0.4878  0.6154
 4586TIP3    H135249   6.615   1.682   3.971 -0.5277 -0.1468  1.4477
 4586TIP3    H235250   6.702   1.572   4.027  0.5981 -0.3270 -0.5591
 4587TIP3   OH235251   5.234   3.244   2.150 -0.5576  0.4107 -0.0599
 4587TIP3    H135252   5.261   3.274   2.236 -0.2763  1.0466 -0.3636
 4587TIP3    H235253   5.286   3.296   2.089 -0.2332 -0.5330 -0.6039
 4588TIP3   OH235254   6.423   6.646   3.972  0.1479  0.3951 -0.3000
 4588TIP3    H135255   6.500   6.673   3.922 -0.4632  0.2884 -1.3323
 4588TIP3    H235256   6.455   6.575   4.028  0.9148  0.7221 -0.3057
 4589TIP3   OH235257   4.484   4.017  16.039  0.0098 -0.3839 -0.6121
 4589TIP3    H135258   4.401   4.061  16.022 -0.4532 -0.6458  0.8087
 4589TIP3    H235259   4.495   3.958  15.965 -1.4488 -0.8777 -0.4713
 4590TIP3   OH235260   6.574   3.781   2.943 -0.6229 -0.8594 -0.3467
 4590TIP3    H135261   6.544   3.755   2.856  0.5654 -2.6112 -0.3002
 4590TIP3    H235262   6.620   3.704   2.976 -0.4988 -0.0136  1.5890
 4591TIP3   OH235263   1.508   2.638  14.189  0.0447  0.5738  0.6653
 4591TIP3    H135264   1.564   2.623  14.113 -1.5899 -0.1829 -0.4317
 4591TIP3    H235265   1.512   2.556  14.239 -0.1156  0.5015  0.5605
 4592TIP3   OH235266   4.792   2.615   2.508  0.1147 -0.6979  0.3855
 4592TIP3    H135267   4.884   2.592   2.501  0.0670 -0.5923 -0.6526
 4592TIP3    H235268   4.746   2.531   2.511  0.0955 -0.7652 -1.2587
 4593TIP3   OH235269   1.203   5.561  15.859  0.1893 -0.2372 -0.2232
 4593TIP3    H135270   1.262   5.492  15.889 -0.4032 -1.0114 -0.8162
 4593TIP3    H235271   1.174   5.533  15.772 -0.7782  0.3008 -0.0912
 4594TIP3   OH235272   1.650   2.420   6.585  0.2837  0.0286  0.2234
 4594TIP3    H135273   1.731   2.396   6.630  0.0844 -0.5505  0.2789
 4594TIP3    H235274   1.598   2.465   6.651  0.6324  0.5717  0.1369
 4595TIP3   OH235275   1.573   3.610  16.003 -0.2941 -0.0276 -0.2309
 4595TIP3    H135276   1.606   3.555  16.074  0.6562 -0.0222 -0.6490
 4595TIP3    H235277   1.484   3.633  16.030 -0.3015 -0.8296  0.4868
 4596TIP3   OH235278   4.903   2.047  11.197 -0.4909 -0.1372 -0.1323
 4596TIP3    H135279   4.851   2.028  11.275 -1.3595 -1.4373 -0.9853
 4596TIP3    H235280   4.988   2.076  11.231 -1.3850  0.9780  1.2892
 4597TIP3   OH235281   3.451   5.019   4.325 -0.1045 -0.2854  0.4714
 4597TIP3    H135282   3.405   5.040   4.243  0.5496  5.8858  1.1841
 4597TIP3    H235283   3.543   5.022   4.302  0.0962  1.8469  1.3379
 4598TIP3   OH235284   4.074   4.575   4.414  0.1676  0.0628  0.1169
 4598TIP3    H135285   4.110   4.663   4.417  0.2235  0.0316  2.7638
 4598TIP3    H235286   4.115   4.530   4.488 -2.0746 -1.2717  0.6475
 4599TIP3   OH235287   5.638   4.216   6.586 -0.3130  0.2532 -0.3480
 4599TIP3    H135288   5.560   4.162   6.597  0.2287 -0.2978  0.9925
 4599TIP3    H235289   5.708   4.154   6.566 -0.2203  0.7633 -1.7584
 4600TIP3   OH235290   6.051   5.661  11.397 -0.5171 -0.4209  0.5600
 4600TIP3    H135291   6.034   5.578  11.353  2.8353  0.1974 -2.3760
 4600TIP3    H235292   6.140   5.653  11.432 -1.4434  0.7591  3.5218
 4601TIP3   OH235293   0.795   0.279  14.301  0.0577 -0.4088 -0.4207
 4601TIP3    H135294   0.763   0.207  14.247 -0.6816  0.9118 -1.8016
 4601TIP3    H235295   0.836   0.339  14.240 -0.7446  1.1090  0.4656
 4602TIP3   OH235296   4.838   4.658  15.832 -0.3262 -0.1827 -0.0555
 4602TIP3    H135297   4.755   4.693  15.797 -0.0264 -0.0328 -0.6381
 4602TIP3    H235298   4.840   4.567  15.801 -0.4133 -0.2729  0.2081
 4603TIP3   OH235299   2.851   3.716  12.027 -0.5306 -0.2181 -0.1043
 4603TIP3    H135300   2.857   3.727  11.932 -1.0643  0.9322 -0.0109
 4603TIP3    H235301   2.780   3.653  12.040 -0.6814 -0.1166 -0.4485
 4604TIP3   OH235302   1.584   0.078  12.926  0.1667 -0.4857 -0.5446
 4604TIP3    H135303   1.646   0.005  12.931 -0.0451 -0.7095 -1.1275
 4604TIP3    H235304   1.532   0.071  13.006 -1.0848 -2.0828 -1.4566
 4605TIP3   OH235305   4.790   2.252  14.823 -0.3309 -0.1177 -0.0762
 4605TIP3    H135306   4.735   2.173  14.820 -0.8081  0.2009  0.2034
 4605TIP3    H235307   4.879   2.218  14.824 -0.4005 -0.6251 -2.8140
 4606TIP3   OH235308   2.823   5.505   5.330 -0.0598 -0.2121 -0.5261
 4606TIP3    H135309   2.805   5.531   5.421  1.1733 -0.5322 -0.1641
 4606TIP3    H235310   2.745   5.457   5.303 -1.0328  1.0911 -0.1225
 4607TIP3   OH235311   0.760   2.986   2.993 -0.2013  0.2202  0.1582
 4607TIP3    H135312   0.824   3.001   3.062 -0.1637  2.0974 -0.2328
 4607TIP3    H235313   0.810   2.997   2.912 -0.6740  0.0614 -0.1568
 4608TIP3   OH235314   6.315   0.828   1.007  0.1422  0.6227  0.3009
 4608TIP3    H135315   6.381   0.800   1.070  0.1924  0.7058  0.2851
 4608TIP3    H235316   6.233   0.830   1.056 -0.0407 -0.4828  0.0780
 4609TIP3   OH235317   6.416   0.807  13.560  0.4046  0.4313  0.0602
 4609TIP3    H135318   6.450   0.880  13.613 -1.4247  1.1308  0.3592
 4609TIP3    H235319   6.397   0.739  13.624  1.9509 -0.2644 -0.2003
 4610TIP3   OH235320   3.562   0.159  16.445 -0.6925  0.3332  0.2130
 4610TIP3    H135321   3.517   0.106  16.511  2.3324  0.1267  2.3288
 4610TIP3    H235322   3.608   0.095  16.391 -0.4574  0.6539  0.0330
 4611TIP3   OH235323   0.002   5.188   0.131  0.5330 -0.1994  0.4459
 4611TIP3    H135324   0.007   5.208   0.037 -0.7781 -0.9552  0.1959
 4611TIP3    H235325   0.087   5.149   0.151  0.8699  0.0622 -0.4041
 4612TIP3   OH235326   0.575   3.194  13.435  0.1829 -0.8566 -0.1985
 4612TIP3    H135327   0.572   3.272  13.379 -0.4063  0.6560  1.8115
 4612TIP3    H235328   0.606   3.125  13.377  2.7948  1.2822 -1.6095
 4613TIP3   OH235329   2.746   4.250   4.511 -0.1331 -0.4274  0.2358
 4613TIP3    H135330   2.835   4.215   4.520 -0.8255 -2.0534  1.1904
 4613TIP3    H235331   2.722   4.231   4.421  0.1336 -0.8817  0.2577
 4614TIP3   OH235332   1.904   5.448  12.538  0.7888  0.6785 -0.4712
 4614TIP3    H135333   1.889   5.511  12.468  1.0515  1.1127 -0.1454
 4614TIP3    H235334   1.890   5.362  12.498  0.2893  0.9510 -0.8827
 4615TIP3   OH235335   5.758   1.451  14.129  0.1997 -0.8560 -0.0163
 4615TIP3    H135336   5.808   1.416  14.056  0.5047 -0.6081  0.0743
 4615TIP3    H235337   5.690   1.504  14.088  1.6303  1.0109 -0.1006
 4616TIP3   OH235338   4.849   4.946  12.128 -0.2794  0.3326  0.0035
 4616TIP3    H135339   4.828   4.870  12.073 -3.4475  1.2321 -0.2251
 4616TIP3    H235340   4.819   5.022  12.077  0.4651  1.5303  1.2743
 4617TIP3   OH235341   0.883   0.997   2.796  0.0299  0.1868  0.1116
 4617TIP3    H135342   0.934   1.040   2.727  0.1598 -0.1062  0.0195
 4617TIP3    H235343   0.923   0.910   2.803  0.2430  0.3393  0.8030
 4618TIP3   OH235344   6.362   6.201  14.487  0.1396  0.2107 -0.2854
 4618TIP3    H135345   6.365   6.273  14.550  1.2003 -0.9031  1.0083
 4618TIP3    H235346   6.441   6.211  14.434 -1.0702  1.5228 -1.9626
 4619TIP3   OH235347   5.290   1.363  14.967 -0.0763 -0.4527 -0.3115
 4619TIP3    H135348   5.242   1.382  15.048 -1.8081 -1.4002 -1.0733
 4619TIP3    H235349   5.360   1.303  14.994  0.4426  0.5874  0.7422
 4620TIP3   OH235350   0.132   1.402   2.970 -0.2145  0.0843 -0.3135
 4620TIP3    H135351   0.179   1.471   3.018 -0.1830  0.7144 -1.2310
 4620TIP3    H235352   0.133   1.431   2.879  0.9929 -1.7712 -0.9542
 4621TIP3   OH235353   0.133   2.276  12.448  0.2117  0.3795  0.2803
 4621TIP3    H135354   0.064   2.269  12.382  0.0356 -0.6626  0.5599
 4621TIP3    H235355   0.202   2.326  12.405 -0.2611  0.4652 -0.3917
 4622TIP3   OH235356   6.710   3.949  12.070  0.4240  0.2320  0.2073
 4622TIP3    H135357   6.752   3.911  12.147 -1.4691  0.9785  1.6944
 4622TIP3    H235358   6.616   3.939  12.087 -0.0559  1.4692 -1.4690
 4623TIP3   OH235359   4.792   6.608  11.046 -0.3144 -0.2005 -0.2249
 4623TIP3    H135360   4.834   6.546  10.987 -0.0622 -1.1578  0.9145
 4623TIP3    H235361   4.856   6.678  11.057  0.6127 -1.1579  0.7116
 4624TIP3   OH235362   5.244   1.357   5.167 -0.0564  0.8652  0.5184
 4624TIP3    H135363   5.333   1.368   5.133  0.0212 -0.4624  0.2553
 4624TIP3    H235364   5.257   1.323   5.256 -0.2977  0.7940  0.5257
 4625TIP3   OH235365   1.056   3.999   3.261  0.3299  0.2113  0.0867
 4625TIP3    H135366   1.085   4.087   3.285 -1.6756  1.1632 -0.8090
 4625TIP3    H235367   0.982   3.981   3.318  1.8841 -1.7705  1.6328
 4626TIP3   OH235368   4.449   0.740  10.829  0.6686 -0.6433 -0.5737
 4626TIP3    H135369   4.419   0.830  10.841  1.8094 -0.3921  0.5574
 4626TIP3    H235370   4.406   0.711  10.748  0.5451  1.0214 -1.1333
 4627TIP3   OH235371   5.623   5.469  11.590 -0.1152 -0.1219  0.0379
 4627TIP3    H135372   5.609   5.528  11.516 -2.2436  1.0567  1.2797
 4627TIP3    H235373   5.644   5.385  11.549  0.6962  0.9184 -1.8380
 4628TIP3   OH235374   0.865   3.640   1.966  0.3496  0.0145 -0.0201
 4628TIP3    H135375   0.903   3.728   1.963 -0.0518  0.1912 -2.2856
 4628TIP3    H235376   0.841   3.622   1.875 -1.4155 -1.6467  0.7036
 4629TIP3   OH235377   5.621   3.446   2.726  0.5862 -0.0951 -0.7416
 4629TIP3    H135378   5.538   3.473   2.687  0.1768 -0.3922 -0.1043
 4629TIP3    H235379   5.626   3.352   2.708 -0.1943 -0.5009  0.8883
 4630TIP3   OH235380   1.560   0.554  13.685 -0.2195 -0.1210  0.0480
 4630TIP3    H135381   1.630   0.589  13.740  0.1336 -1.9285  0.8054
 4630TIP3    H235382   1.485   0.545  13.744 -1.1716  1.8391 -0.7635
 4631TIP3   OH235383   5.192   3.455  12.939  0.2126 -0.3002 -0.1537
 4631TIP3    H135384   5.195   3.405  13.021  1.3070  0.4835  0.3099
 4631TIP3    H235385   5.276   3.435  12.896  0.3832  0.6101 -0.2671
 4632TIP3   OH235386   4.431   0.777  13.000 -0.0515 -0.9933 -0.1739
 4632TIP3    H135387   4.496   0.771  13.070  0.1596  0.5377 -0.1893
 4632TIP3    H235388   4.472   0.735  12.925  1.3369  0.7117 -0.4315
 4633TIP3   OH235389   2.605   1.511   5.175  0.3428 -0.4717  0.3689
 4633TIP3    H135390   2.592   1.514   5.080 -0.7754 -0.1273  0.5244
 4633TIP3    H235391   2.529   1.463   5.208  1.1155 -1.2789  1.0307
 4634TIP3   OH235392   3.801   4.346  11.659 -0.4057  0.2774 -0.1354
 4634TIP3    H135393   3.723   4.359  11.605 -0.1848  2.1746 -0.0780
 4634TIP3    H235394   3.768   4.345  11.749 -0.7578 -2.7567 -0.1798
 4635TIP3   OH235395   6.659   3.334   4.361 -0.1709  0.7413 -0.0888
 4635TIP3    H135396   6.587   3.272   4.353 -0.3207  0.7153  1.2557
 4635TIP3    H235397   6.635   3.390   4.434  0.9930  0.9793  0.1387
 4636TIP3   OH235398   5.416   3.225  12.514  0.3355 -0.1159  0.1399
 4636TIP3    H135399   5.441   3.181  12.595  1.3449 -1.9507 -1.0891
 4636TIP3    H235400   5.357   3.163  12.470  1.6436 -0.2360 -1.5551
 4637TIP3   OH235401   3.643   4.094  12.637 -0.5014  0.7537  0.0684
 4637TIP3    H135402   3.609   4.110  12.549  1.5850 -1.3580 -1.2441
 4637TIP3    H235403   3.625   4.001  12.652  1.2090  0.5271  0.8875
 4638TIP3   OH235404   3.017   4.179  14.666  0.0876 -0.5028 -0.1600
 4638TIP3    H135405   3.071   4.169  14.744 -1.5873  0.0528  1.1325
 4638TIP3    H235406   3.010   4.274  14.653  0.0065 -0.5823 -0.7534
 4639TIP3   OH235407   5.628   0.256   2.932 -0.2159 -0.2124  0.5041
 4639TIP3    H135408   5.536   0.284   2.933 -0.0982  0.1873  0.4242
 4639TIP3    H235409   5.649   0.239   3.024 -0.2445  0.1169  0.5728
 4640TIP3   OH235410   2.855   4.602   0.427 -0.0456 -0.0646  0.1930
 4640TIP3    H135411   2.835   4.676   0.369  0.2454 -0.3487 -0.2757
 4640TIP3    H235412   2.951   4.604   0.436 -0.2070  1.2220  2.3320
 4641TIP3   OH235413   2.716   6.008   4.004 -0.3023  0.2633  0.5128
 4641TIP3    H135414   2.708   6.013   4.100  0.0296 -0.0757  0.5606
 4641TIP3    H235415   2.635   5.966   3.976 -0.7898  1.1388  0.5616
 4642TIP3   OH235416   6.317   6.356   0.873  0.2849  0.4148  0.2514
 4642TIP3    H135417   6.331   6.396   0.959 -3.1333 -0.6911  1.4886
 4642TIP3    H235418   6.251   6.411   0.831 -0.9660 -1.1714  0.0260
 4643TIP3   OH235419   3.075   3.351   2.757  0.3353 -0.0312  0.0646
 4643TIP3    H135420   3.081   3.344   2.852 -0.6274  0.1333  0.1440
 4643TIP3    H235421   3.147   3.410   2.733  0.2782  0.3152  0.7338
 4644TIP3   OH235422   3.356   4.528   5.590 -0.1183  0.6069  0.4311
 4644TIP3    H135423   3.274   4.494   5.554 -0.8429  1.2582  1.4223
 4644TIP3    H235424   3.337   4.541   5.683  0.9354  1.3050  0.5555
 4645TIP3   OH235425   5.768   5.092   3.716  0.2301  0.3964  0.0253
 4645TIP3    H135426   5.837   5.117   3.656 -1.2338  1.6058 -1.2477
 4645TIP3    H235427   5.705   5.164   3.712 -0.9713 -0.5077  1.3508
 4646TIP3   OH235428   1.006   5.269  11.670 -0.2037 -0.3413 -0.6911
 4646TIP3    H135429   1.001   5.181  11.707  0.8891  0.3417  1.3092
 4646TIP3    H235430   0.964   5.324  11.736  2.5120  1.0456  0.0426
 4647TIP3   OH235431   3.830   4.801  10.451  0.0007 -0.6412 -0.1773
 4647TIP3    H135432   3.775   4.811  10.529  1.2007  1.4101  0.4975
 4647TIP3    H235433   3.874   4.717  10.464 -1.4193 -1.3492  0.2631
 4648TIP3   OH235434   6.706   5.803  13.238  0.1808 -0.0239  0.1581
 4648TIP3    H135435   6.787   5.809  13.188  0.7212  0.3147  1.0401
 4648TIP3    H235436   6.665   5.722  13.207  0.0367  0.6380 -1.4629
 4649TIP3   OH235437   2.901   1.217   0.753 -0.3028  0.0466  0.5667
 4649TIP3    H135438   2.915   1.172   0.670  1.0773 -1.0186  1.3283
 4649TIP3    H235439   2.828   1.171   0.795 -1.0776  0.6613 -0.0851
 4650TIP3   OH235440   0.401   0.438   3.905 -0.5847 -0.1320  0.2937
 4650TIP3    H135441   0.411   0.346   3.926  1.5412  0.3508  1.6934
 4650TIP3    H235442   0.428   0.485   3.984 -2.0138  1.7143 -0.2229
 4651TIP3   OH235443   2.936   6.109   1.702 -0.2462  0.0655 -0.1498
 4651TIP3    H135444   3.025   6.080   1.683 -0.4364 -1.0448  0.5928
 4651TIP3    H235445   2.911   6.163   1.626 -0.1993 -2.4187 -2.0349
 4652TIP3   OH235446   0.022   1.203   6.233 -0.1649 -0.2079  0.0962
 4652TIP3    H135447   0.021   1.213   6.137 -1.1629  0.5266  0.1606
 4652TIP3    H235448  -0.070   1.206   6.258  0.1371  0.6907  1.1846
 4653TIP3   OH235449   0.545   5.697   1.523  0.4004 -0.2453  0.4272
 4653TIP3    H135450   0.460   5.699   1.480  1.0516 -1.5147 -1.0238
 4653TIP3    H235451   0.540   5.764   1.591 -1.1936  0.8086 -0.6837
 4654TIP3   OH235452   2.816   5.969   1.281  0.6764  0.1460  0.2518
 4654TIP3    H135453   2.770   5.941   1.360 -0.6675  1.5135  0.0045
 4654TIP3    H235454   2.901   5.925   1.285  0.2384 -0.6098  1.9225
 4655TIP3   OH235455   2.065   2.757   4.845  0.4028 -0.0618 -0.2059
 4655TIP3    H135456   2.135   2.760   4.780  1.3096 -1.1435  0.6827
 4655TIP3    H235457   2.103   2.799   4.923  0.0235 -0.5391  0.2412
 4656TIP3   OH235458   2.429   6.624   6.231  0.0078  0.2353  0.1361
 4656TIP3    H135459   2.371   6.557   6.193  0.7584 -0.0875 -0.4581
 4656TIP3    H235460   2.381   6.656   6.307 -0.7390 -0.3810 -0.0591
 4657TIP3   OH235461   2.385   6.320   5.657 -0.0370 -0.8333  0.0894
 4657TIP3    H135462   2.302   6.279   5.681 -1.1320  1.7164  0.9592
 4657TIP3    H235463   2.439   6.313   5.736 -0.4334 -0.1470  0.4314
 4658TIP3   OH235464   1.684   3.765   1.380 -0.4581 -0.1073 -0.2643
 4658TIP3    H135465   1.716   3.694   1.435  1.2603  0.4217 -0.5345
 4658TIP3    H235466   1.599   3.734   1.348  0.0484 -1.8479 -0.0207
 4659TIP3   OH235467   1.287   2.492   1.946 -0.3113 -0.0469 -0.0948
 4659TIP3    H135468   1.224   2.438   1.898 -0.6556 -0.5888  0.9331
 4659TIP3    H235469   1.266   2.582   1.922 -0.4306 -0.3020 -0.9944
 4660TIP3   OH235470   2.370   6.636  10.986  0.1455  0.2839 -0.3669
 4660TIP3    H135471   2.318   6.580  10.928 -1.1026  0.6478  0.3706
 4660TIP3    H235472   2.401   6.707  10.929  3.6100 -2.1573 -1.8723
 4661TIP3   OH235473   6.559   3.517   5.872 -0.0972 -0.6368 -0.5345
 4661TIP3    H135474   6.542   3.435   5.918  0.9565 -0.2478  0.6083
 4661TIP3    H235475   6.483   3.529   5.815 -1.7993 -0.8442  1.5577
 4662TIP3   OH235476   4.575   1.979   6.874  0.7906 -0.4208  0.5148
 4662TIP3    H135477   4.497   1.933   6.844 -0.8126  1.3313  1.7710
 4662TIP3    H235478   4.618   2.009   6.793 -0.5704 -0.2653 -0.1737
 4663TIP3   OH235479   3.318   3.648  12.836  0.1510  0.0406  0.5148
 4663TIP3    H135480   3.267   3.578  12.876  0.3667 -0.4740 -0.0910
 4663TIP3    H235481   3.404   3.609  12.822  0.9353  1.0950  2.1171
 4664TIP3   OH235482   5.693   3.134  16.250  0.1604  0.0888 -0.3275
 4664TIP3    H135483   5.653   3.185  16.320 -1.7314 -1.5907 -0.0854
 4664TIP3    H235484   5.787   3.151  16.258 -0.0907  0.6896  1.9801
 4665TIP3   OH235485   0.132   1.047   6.432 -0.0934  0.5814  0.1573
 4665TIP3    H135486   0.082   1.118   6.392 -0.4488  0.2486  0.0027
 4665TIP3    H235487   0.199   1.025   6.366  1.2032  1.9811  0.9298
 4666TIP3   OH235488   1.766   6.705  13.965  0.4017  0.1881  0.2333
 4666TIP3    H135489   1.745   6.671  14.052  0.8860 -0.2140  0.1987
 4666TIP3    H235490   1.770   6.628  13.909  0.2005  0.4354 -0.1235
 4667TIP3   OH235491   6.741   5.627   4.586  0.0736 -0.4749 -0.2390
 4667TIP3    H135492   6.746   5.595   4.676 -1.9004  1.8271  0.8191
 4667TIP3    H235493   6.699   5.556   4.538  1.4336 -1.8637  0.5460
 4668TIP3   OH235494   6.670   4.217  10.592 -0.3391  0.6867  0.4666
 4668TIP3    H135495   6.586   4.263  10.585 -0.4890  0.1537 -2.0801
 4668TIP3    H235496   6.650   4.126  10.568  1.1084  0.7989 -1.4078
 4669TIP3   OH235497   3.754   3.081  11.585 -0.0193 -0.2558 -0.0473
 4669TIP3    H135498   3.747   3.043  11.673  0.5935  0.8601  0.4954
 4669TIP3    H235499   3.786   3.170  11.599 -1.0982  0.3750 -1.3185
 4670TIP3   OH235500   0.382   4.270   1.728 -0.2260 -0.1369  0.1013
 4670TIP3    H135501   0.289   4.269   1.709  0.3014  1.2333 -3.3446
 4670TIP3    H235502   0.408   4.361   1.718  1.7874 -0.7781 -1.3487
 4671TIP3   OH235503   2.889   4.081   5.563 -0.0754  0.4919 -0.1658
 4671TIP3    H135504   2.847   4.086   5.649 -1.0900  3.1196 -0.6902
 4671TIP3    H235505   2.931   3.995   5.561 -1.2275 -0.2310  2.3728
 4672TIP3   OH235506   6.557   2.794  13.816  0.8328  0.1393  0.1992
 4672TIP3    H135507   6.513   2.719  13.856 -0.3686  0.5716 -0.2733
 4672TIP3    H235508   6.537   2.787  13.723  1.0090  0.8557  0.1039
 4673TIP3   OH235509   3.190   3.186  14.058 -0.3787  0.2731 -0.4119
 4673TIP3    H135510   3.121   3.250  14.074 -0.5509  0.2697 -1.1141
 4673TIP3    H235511   3.143   3.103  14.049 -0.4169  0.4410 -2.0514
 4674TIP3   OH235512   1.661   4.085  14.891 -0.2054 -0.7509  0.1658
 4674TIP3    H135513   1.684   4.125  14.974 -0.9481  1.5707 -0.6744
 4674TIP3    H235514   1.565   4.093  14.887 -0.2800 -1.7980 -0.4610
 4675TIP3   OH235515   2.373   0.954  15.855  0.1531  0.1142 -0.7179
 4675TIP3    H135516   2.386   0.918  15.767 -1.7433  1.1400 -1.4517
 4675TIP3    H235517   2.355   1.047  15.841 -0.2047  0.2907  0.7629
 4676TIP3   OH235518   4.511   0.881   5.059 -0.3268  0.5530 -0.0388
 4676TIP3    H135519   4.445   0.950   5.060 -0.3011  0.7629 -3.3932
 4676TIP3    H235520   4.483   0.822   4.990  1.0813 -1.3897  0.9601
 4677TIP3   OH235521   1.594   3.737   1.703  0.0332  0.0893 -0.1987
 4677TIP3    H135522   1.687   3.740   1.682  0.3546 -0.0143  1.1242
 4677TIP3    H235523   1.591   3.742   1.798 -1.2749 -0.6995 -0.1709
 4678TIP3   OH235524   0.196   1.602   4.897 -0.0503 -0.2466  0.1346
 4678TIP3    H135525   0.206   1.694   4.921  1.1337 -0.5573  0.9026
 4678TIP3    H235526   0.112   1.576   4.934 -0.0552  0.3297  0.5348
 4679TIP3   OH235527   4.080   4.038  14.048 -0.3142 -0.3195  0.1583
 4679TIP3    H135528   4.137   3.990  13.989 -0.4089 -0.8505  0.4976
 4679TIP3    H235529   4.101   4.006  14.135 -0.7221 -0.1041  0.3428
 4680TIP3   OH235530   6.562   0.316  17.063 -0.0240  0.1282  0.0374
 4680TIP3    H135531   6.538   0.405  17.089  1.3220  0.4677  0.1910
 4680TIP3    H235532   6.482   0.279  17.027 -1.0361  0.8375  1.4726
 4681TIP3   OH235533   1.020   1.265   0.176  0.3380 -0.4206  0.0198
 4681TIP3    H135534   1.031   1.183   0.128 -0.3005  0.0584 -0.9949
 4681TIP3    H235535   1.102   1.277   0.223  1.6952 -0.1096 -2.2661
 4682TIP3   OH235536   6.190   4.516  16.520  0.1464 -0.1457 -0.2291
 4682TIP3    H135537   6.190   4.421  16.534  0.4746  0.0017  0.9188
 4682TIP3    H235538   6.234   4.551  16.598 -1.3892  1.0584  0.1435
 4683TIP3   OH235539   2.040   5.855  14.213 -0.3629  0.3991 -0.5061
 4683TIP3    H135540   2.128   5.832  14.183  0.1059 -1.5521  2.0098
 4683TIP3    H235541   1.982   5.824  14.144  0.7423 -1.9233 -0.4728
 4684TIP3   OH235542   2.049   5.990  13.038  0.5442  0.3861  0.8056
 4684TIP3    H135543   2.063   5.919  12.976 -2.9434 -1.3131  1.7282
 4684TIP3    H235544   2.042   6.068  12.983  0.8124 -0.5400 -0.6138
 4685TIP3   OH235545   6.378   0.644  13.807 -0.1282 -0.8262  0.2073
 4685TIP3    H135546   6.426   0.563  13.822  0.9970 -0.1574  0.3692
 4685TIP3    H235547   6.326   0.656  13.887  1.3632 -0.2984  1.1355
 4686TIP3   OH235548   3.985   3.792  12.029 -0.1322  0.1345 -0.0290
 4686TIP3    H135549   3.941   3.877  12.022 -0.5185 -0.0923 -0.4037
 4686TIP3    H235550   3.988   3.773  12.123  0.5483  0.8677  0.1091
 4687TIP3   OH235551   3.414   1.244   0.340  0.3047  0.7365  0.0796
 4687TIP3    H135552   3.424   1.312   0.407 -1.9613  0.0663  1.2067
 4687TIP3    H235553   3.490   1.188   0.350 -0.2979  0.2574  2.6444
 4688TIP3   OH235554   4.089   1.071  11.855  0.3524  0.5772  0.3074
 4688TIP3    H135555   4.072   1.022  11.774  2.2744 -1.7742  1.2209
 4688TIP3    H235556   4.161   1.130  11.833 -1.1389  2.2495 -0.4386
 4689TIP3   OH235557   4.575   1.492  11.041 -0.0559 -0.7111  0.0426
 4689TIP3    H135558   4.563   1.412  10.989  0.1631 -1.4003  1.0096
 4689TIP3    H235559   4.611   1.555  10.980 -0.8310 -1.1496 -0.9042
 4690TIP3   OH235560   5.131   4.942   6.403 -0.0488 -0.1408 -0.0921
 4690TIP3    H135561   5.211   4.902   6.438  1.8232  2.4306 -1.0566
 4690TIP3    H235562   5.137   4.928   6.309 -0.3093  0.7592 -0.2508
 4691TIP3   OH235563   4.829   3.591   0.406  0.1161  0.0413  0.2798
 4691TIP3    H135564   4.896   3.625   0.465  0.2135 -1.4248  1.0738
 4691TIP3    H235565   4.747   3.598   0.455  0.1208 -0.7049  0.4141
 4692TIP3   OH235566   0.052   5.632   2.074 -0.5330 -0.2174 -0.1566
 4692TIP3    H135567   0.134   5.612   2.119  0.2192  1.0364 -0.8851
 4692TIP3    H235568   0.006   5.548   2.068  1.3913 -1.2836 -1.0812
 4693TIP3   OH235569   4.397   1.034  12.930 -0.1189 -0.2806  0.5582
 4693TIP3    H135570   4.417   0.948  12.968 -2.6543 -0.5920  1.3633
 4693TIP3    H235571   4.353   1.013  12.848  2.4484  0.3732 -1.1276
 4694TIP3   OH235572   2.087   0.169  16.694  0.8395 -0.5357  0.1857
 4694TIP3    H135573   2.181   0.185  16.696  0.8024 -0.3662  0.7796
 4694TIP3    H235574   2.063   0.177  16.602  1.5615 -1.5164 -0.1008
 4695TIP3   OH235575   0.010   4.227   0.444  0.1842  0.1067  0.2314
 4695TIP3    H135576  -0.073   4.210   0.488  0.2810 -1.8000 -0.2170
 4695TIP3    H235577  -0.006   4.305   0.391 -1.5734 -0.6088 -0.3809
 4696TIP3   OH235578   5.049   4.334   3.972 -0.9777  0.8673  0.3754
 4696TIP3    H135579   5.018   4.392   3.903 -1.7173 -1.3131 -1.1992
 4696TIP3    H235580   4.975   4.278   3.993 -0.2114  0.2751  1.6467
 4697TIP3   OH235581   3.637   2.073   0.962  0.3726 -0.0448 -0.7835
 4697TIP3    H135582   3.572   2.129   1.004  1.5256 -0.9373  2.4881
 4697TIP3    H235583   3.720   2.120   0.972  0.9130 -1.0048 -0.6104
 4698TIP3   OH235584   1.628   0.579   0.127  0.3126  0.3197  0.1200
 4698TIP3    H135585   1.674   0.626   0.196  1.2981 -0.5280  0.0564
 4698TIP3    H235586   1.566   0.643   0.092  1.0259  1.3005  0.6055
 4699TIP3   OH235587   2.066   2.021  16.375 -0.3559 -0.6518  0.7161
 4699TIP3    H135588   2.034   1.950  16.431 -1.5394 -2.2633 -1.7876
 4699TIP3    H235589   2.159   2.004  16.365 -0.5767 -1.7557  0.3536
 4700TIP3   OH235590   2.780   2.668   5.114  0.2835 -0.0577  0.5226
 4700TIP3    H135591   2.686   2.671   5.134  0.2782  0.2032  0.4644
 4700TIP3    H235592   2.783   2.663   5.018  0.2963 -1.8354  0.5782
 4701TIP3   OH235593   1.661   1.004   1.169  0.2714  0.3151  1.2827
 4701TIP3    H135594   1.608   1.009   1.089  1.4533 -0.7287  0.3884
 4701TIP3    H235595   1.711   1.085   1.169  0.2640  0.3232  0.9563
 4702TIP3   OH235596   3.272   6.168   0.806 -0.3576  0.2651  0.5935
 4702TIP3    H135597   3.352   6.118   0.819 -0.6505 -0.0457  1.1934
 4702TIP3    H235598   3.288   6.217   0.724  0.7850  0.8748  1.1540
 4703TIP3   OH235599   0.909   3.347  15.477 -0.6666  0.0203 -0.0096
 4703TIP3    H135600   0.972   3.312  15.415  0.7456  3.9290 -1.1070
 4703TIP3    H235601   0.941   3.317  15.563  0.2516 -1.4391 -0.8238
 4704TIP3   OH235602   1.595   6.333   5.661  0.1121 -0.0374  0.0242
 4704TIP3    H135603   1.544   6.413   5.649 -1.1154 -0.7493  0.2224
 4704TIP3    H235604   1.638   6.318   5.577 -1.1983 -0.1798 -0.6559
 4705TIP3   OH235605   0.060   0.922  16.314 -0.5030  0.1473  0.0884
 4705TIP3    H135606   0.148   0.933  16.349 -0.8935  2.1901  0.5700
 4705TIP3    H235607   0.058   0.978  16.236 -0.9959 -0.9130 -0.6913
 4706TIP3   OH235608   5.755   5.912  12.518 -0.6077 -0.5655 -0.1273
 4706TIP3    H135609   5.806   5.832  12.508 -0.4896 -0.2707 -2.3486
 4706TIP3    H235610   5.665   5.882  12.535 -0.5312 -1.1843 -0.7728
 4707TIP3   OH235611   4.124   4.159   0.552 -0.1117 -0.2016  0.4345
 4707TIP3    H135612   4.171   4.157   0.469  0.7921  0.2472  0.9119
 4707TIP3    H235613   4.116   4.253   0.572 -1.0633 -0.2802  0.4487
 4708TIP3   OH235614   5.173   3.326  10.551 -0.1623 -0.3637  0.4243
 4708TIP3    H135615   5.095   3.315  10.605  0.4324  0.6063  1.5102
 4708TIP3    H235616   5.190   3.239  10.516 -1.6660 -0.6157  0.2359
 4709TIP3   OH235617   1.912   5.351  14.159 -0.4435 -0.1640 -0.4797
 4709TIP3    H135618   1.957   5.436  14.162 -1.2066  0.2458 -0.4889
 4709TIP3    H235619   1.916   5.319  14.249 -0.0318 -0.1859 -0.5039
 4710TIP3   OH235620   3.814   2.597  16.965 -0.2290  0.0499  0.1962
 4710TIP3    H135621   3.735   2.650  16.972  0.2551  0.8573 -0.2730
 4710TIP3    H235622   3.832   2.593  16.871  1.1290  1.1776  0.3767
 4711TIP3   OH235623   1.460   0.544   1.260 -0.5034  0.4804  0.7033
 4711TIP3    H135624   1.538   0.592   1.233  0.2910 -1.2528 -0.2769
 4711TIP3    H235625   1.494   0.474   1.317 -1.7070  1.5389  2.8316
 4712TIP3   OH235626   1.399   1.297   0.519  0.2394  0.8803 -0.2817
 4712TIP3    H135627   1.425   1.384   0.549 -1.0321  1.5646 -1.0631
 4712TIP3    H235628   1.303   1.300   0.516  0.2132 -0.1156 -1.5268
 4713TIP3   OH235629   1.906   2.136  11.911 -0.6290 -0.0511 -0.4460
 4713TIP3    H135630   1.825   2.180  11.886  0.2262  1.6201 -0.4497
 4713TIP3    H235631   1.877   2.056  11.956 -2.3266  1.2919  1.0144
 4714TIP3   OH235632   0.947   5.617   3.748 -0.1776 -0.3283 -0.7104
 4714TIP3    H135633   0.884   5.632   3.818 -2.0502 -1.3798 -2.0708
 4714TIP3    H235634   1.032   5.629   3.789 -1.2452  1.1834  1.2023
 4715TIP3   OH235635   5.952   1.810   5.706 -0.2070  0.1580  0.4809
 4715TIP3    H135636   5.956   1.731   5.760  1.9041  0.6388  1.1176
 4715TIP3    H235637   6.041   1.823   5.675 -1.2723  0.0748 -2.9948
 4716TIP3   OH235638   4.808   0.694   1.632 -0.3349 -0.3311 -0.1450
 4716TIP3    H135639   4.898   0.706   1.602 -0.6183  1.8797 -0.2807
 4716TIP3    H235640   4.811   0.615   1.685  1.8504  0.1152  0.4910
 4717TIP3   OH235641   2.948   0.075  15.630 -0.5157 -0.2408 -0.0205
 4717TIP3    H135642   2.997   0.008  15.583 -0.5066 -0.2161 -0.0466
 4717TIP3    H235643   2.935   0.039  15.718  0.1662  0.0591  0.2075
 4718TIP3   OH235644   4.311   2.486   0.022  0.2173  0.5539  0.0605
 4718TIP3    H135645   4.236   2.445   0.065 -1.2817  3.0743  0.0824
 4718TIP3    H235646   4.272   2.538  -0.049  1.9393  1.8996  0.0427
 4719TIP3   OH235647   0.646   4.913  15.201  0.0879 -0.3200 -0.7825
 4719TIP3    H135648   0.650   4.821  15.175 -2.6024 -0.7684  0.1048
 4719TIP3    H235649   0.678   4.914  15.291  2.3721  0.0467 -1.5507
 4720TIP3   OH235650   3.902   6.212  14.140  0.3339 -0.3387 -0.1121
 4720TIP3    H135651   3.967   6.143  14.126 -1.6781 -2.2493 -0.7104
 4720TIP3    H235652   3.833   6.192  14.077 -1.7623  0.3573  1.8350
 4721TIP3   OH235653   5.406   5.519   1.804  0.6773 -0.0075  0.2413
 4721TIP3    H135654   5.484   5.466   1.820 -0.0705 -1.3726 -0.5335
 4721TIP3    H235655   5.356   5.513   1.886  0.0308 -1.5196 -0.2308
 4722TIP3   OH235656   3.914   4.811  15.782 -0.2009  0.1131 -0.3826
 4722TIP3    H135657   3.845   4.869  15.747  0.7033  2.4010  1.3348
 4722TIP3    H235658   3.986   4.820  15.720  0.2441  1.5897  0.3067
 4723TIP3   OH235659   0.794   4.054   0.297  0.3069  0.6486  0.5079
 4723TIP3    H135660   0.706   4.036   0.329  0.1574  2.1105  0.9830
 4723TIP3    H235661   0.852   4.003   0.355  0.0247  2.9750  3.0203
 4724TIP3   OH235662   0.625   0.963   2.380 -0.6823  0.0153  0.5026
 4724TIP3    H135663   0.577   1.045   2.382 -3.6912 -1.6055  1.7106
 4724TIP3    H235664   0.604   0.924   2.295 -1.3523 -0.5594  0.9126
 4725TIP3   OH235665   3.834   1.538   4.763  0.2751 -0.2176 -0.4616
 4725TIP3    H135666   3.754   1.556   4.812  1.1785 -0.0622  1.0241
 4725TIP3    H235667   3.814   1.564   4.673 -1.3876 -0.3580 -0.1640
 4726TIP3   OH235668   0.791   2.346  16.435 -0.1658  0.3892  0.1732
 4726TIP3    H135669   0.767   2.319  16.524 -0.7135 -2.0557 -0.6472
 4726TIP3    H235670   0.710   2.383  16.399 -0.8088 -1.3326 -0.2385
 4727TIP3   OH235671   5.879   1.797  15.216  0.0527 -0.2170  0.7508
 4727TIP3    H135672   5.953   1.850  15.186  0.8887 -0.1139  2.8167
 4727TIP3    H235673   5.845   1.844  15.293 -1.7048 -0.6645  0.3074
 4728TIP3   OH235674   5.943   5.928   2.513  0.4254 -0.3521 -0.4072
 4728TIP3    H135675   5.903   6.015   2.523 -0.5174 -0.8696  0.4926
 4728TIP3    H235676   5.910   5.897   2.428 -0.1399 -0.2821 -0.2193
 4729TIP3   OH235677   6.387   6.649   5.004  0.0926  0.4747  0.1045
 4729TIP3    H135678   6.314   6.708   5.021  0.0770  0.2030  1.0453
 4729TIP3    H235679   6.390   6.592   5.081  1.8956  1.0979  0.5475
 4730TIP3   OH235680   3.361   1.201   3.306 -0.3621  0.3760 -0.0845
 4730TIP3    H135681   3.274   1.239   3.293 -0.2264 -0.1912 -3.4575
 4730TIP3    H235682   3.362   1.177   3.399 -2.9245  2.4169  0.6096
 4731TIP3   OH235683   3.409   2.925   5.857 -0.5000 -0.5319 -0.2577
 4731TIP3    H135684   3.432   3.004   5.906 -0.9234  0.4183 -1.5258
 4731TIP3    H235685   3.466   2.928   5.780 -1.6715 -0.5614 -1.1455
 4732TIP3   OH235686   3.446   3.859  15.758 -0.3790  0.1543  0.0888
 4732TIP3    H135687   3.360   3.826  15.786 -0.1224 -0.6736 -0.0752
 4732TIP3    H235688   3.505   3.833  15.829 -0.5515  2.3542  1.1176
 4733TIP3   OH235689   5.733   6.760   1.302 -0.2137  0.0153  0.7064
 4733TIP3    H135690   5.814   6.766   1.252  0.5903  0.1440  1.9764
 4733TIP3    H235691   5.761   6.744   1.392 -1.5773  0.4956  1.2525
 4734TIP3   OH235692   5.044   5.111  11.526  0.5747  0.2576  0.5738
 4734TIP3    H135693   5.063   5.106  11.620 -0.3544 -1.4465  0.7131
 4734TIP3    H235694   4.951   5.135  11.521  0.6196  0.3454  0.0942
 4735TIP3   OH235695   4.664   4.919  15.913  0.6572 -0.2442  0.3763
 4735TIP3    H135696   4.758   4.915  15.895  0.8985  0.0225  1.4742
 4735TIP3    H235697   4.648   5.010  15.938  0.2402 -0.4363  0.8466
 4736TIP3   OH235698   6.809   6.642   1.440 -0.0173 -0.4265  0.8099
 4736TIP3    H135699   6.782   6.663   1.351 -1.6495  1.6780  1.6817
 4736TIP3    H235700   6.893   6.686   1.450 -0.1767 -0.0362  0.4962
 4737TIP3   OH235701   6.372   1.956  12.491  0.1386  0.2797 -0.3049
 4737TIP3    H135702   6.328   1.900  12.428 -1.2496  1.0895 -0.0914
 4737TIP3    H235703   6.372   1.906  12.572 -0.6384  0.3785 -0.2412
 4738TIP3   OH235704   6.435   5.574  13.097 -0.0785 -0.1248 -0.1581
 4738TIP3    H135705   6.429   5.482  13.124 -1.9545 -0.1706 -0.5919
 4738TIP3    H235706   6.404   5.574  13.006  0.5170  0.8607 -0.3763
 4739TIP3   OH235707   5.145   5.748  11.518 -0.2264  0.4135  0.9319
 4739TIP3    H135708   5.158   5.704  11.602 -3.2938  0.4363  1.5696
 4739TIP3    H235709   5.067   5.802  11.532  0.7555  2.5519 -1.1618
 4740TIP3   OH235710   4.440   0.597   0.107 -0.1370 -0.2034  0.9803
 4740TIP3    H135711   4.476   0.527   0.162 -1.4873 -1.7322  0.0088
 4740TIP3    H235712   4.515   0.633   0.060  0.4380 -1.8083  0.6321
 4741TIP3   OH235713   3.286   2.679  12.496  0.2113 -0.9322  0.0075
 4741TIP3    H135714   3.324   2.629  12.568 -0.2614  1.9439  2.4869
 4741TIP3    H235715   3.361   2.710  12.446  0.7422 -0.9699  0.7630
 4742TIP3   OH235716   5.088   4.067   5.113 -0.2770 -0.1870  0.3722
 4742TIP3    H135717   5.047   4.079   5.199 -0.6852 -3.1857  0.7019
 4742TIP3    H235718   5.015   4.045   5.055  0.2767 -0.6267 -0.1671
 4743TIP3   OH235719   3.286   3.452  11.992  0.5247 -0.6251 -0.2830
 4743TIP3    H135720   3.317   3.391  12.059 -0.0376  0.5563  1.1059
 4743TIP3    H235721   3.191   3.455  12.003  0.5263  0.3833 -0.4159
 4744TIP3   OH235722   4.640   1.982  15.983 -0.4438 -0.7618  0.4497
 4744TIP3    H135723   4.571   2.040  16.014  0.7643  1.2397 -0.4427
 4744TIP3    H235724   4.602   1.937  15.907 -0.6618  0.5905 -0.2600
 4745TIP3   OH235725   4.501   2.600   4.329 -0.1332 -0.4225 -0.2313
 4745TIP3    H135726   4.527   2.557   4.410 -0.8029  0.3322  0.4055
 4745TIP3    H235727   4.579   2.597   4.274  0.6757 -0.0210  0.8466
 4746TIP3   OH235728   5.974   3.117   4.185  0.1173 -0.1329  0.1177
 4746TIP3    H135729   5.893   3.069   4.200  0.5187 -1.6002 -1.9351
 4746TIP3    H235730   6.038   3.050   4.159  2.1380  0.9151  2.0088
 4747TIP3   OH235731   5.504   2.510   1.352  0.0252 -0.2375  0.3294
 4747TIP3    H135732   5.448   2.586   1.366  0.9139  0.8348 -1.5687
 4747TIP3    H235733   5.586   2.546   1.317  0.1174 -2.1040 -1.5859
 4748TIP3   OH235734   2.487   3.185   4.304 -0.3751  0.3238  0.4583
 4748TIP3    H135735   2.396   3.156   4.312  0.1652 -2.8688 -2.4366
 4748TIP3    H235736   2.538   3.120   4.352  0.5341  0.0424 -0.8261
 4749TIP3   OH235737   0.960   4.072   2.225  0.6432 -0.4767 -0.0161
 4749TIP3    H135738   0.963   3.976   2.223 -1.3474 -0.5786 -0.5216
 4749TIP3    H235739   0.914   4.093   2.307  2.5274  0.1474  0.9293
 4750TIP3   OH235740   2.519   4.518   5.276 -0.2938  0.1936 -0.0104
 4750TIP3    H135741   2.586   4.506   5.208 -0.2493  0.3272  0.0090
 4750TIP3    H235742   2.472   4.435   5.278 -0.2799  0.1814 -0.1882
 4751TIP3   OH235743   1.638   6.801   1.830 -0.2059 -0.1410  0.0109
 4751TIP3    H135744   1.709   6.821   1.891 -0.0410 -0.7456  0.0223
 4751TIP3    H235745   1.565   6.855   1.859  0.1044  0.1319  0.2872
 4752TIP3   OH235746   3.900   0.379  15.231  0.1117  0.3239 -0.3085
 4752TIP3    H135747   3.915   0.474  15.237 -1.0364  0.5043 -0.0007
 4752TIP3    H235748   3.806   0.369  15.247  0.3540 -0.9448  0.4344
 4753TIP3   OH235749   2.740   6.654   3.687  0.7659  0.4399  0.5702
 4753TIP3    H135750   2.791   6.615   3.758 -0.8934 -0.2170  1.4266
 4753TIP3    H235751   2.658   6.681   3.727 -0.2179  0.0328 -1.0918
 4754TIP3   OH235752   6.012   3.173   0.673 -0.0236 -0.2743  0.2148
 4754TIP3    H135753   5.947   3.230   0.715  0.2233  0.1733  0.0000
 4754TIP3    H235754   6.093   3.191   0.720  0.0069 -0.6231  0.2982
 4755TIP3   OH235755   0.749   4.769   2.504 -0.3249  0.0836  0.2730
 4755TIP3    H135756   0.694   4.697   2.474 -0.0287  0.6141 -1.6876
 4755TIP3    H235757   0.716   4.845   2.456  0.8747  0.7927  0.5346
 4756TIP3   OH235758   2.681   2.223   6.587  0.1080 -0.5600 -0.6733
 4756TIP3    H135759   2.705   2.132   6.570  0.4079 -0.5731 -0.2039
 4756TIP3    H235760   2.726   2.272   6.518  0.6973 -0.6831 -0.3895
 4757TIP3   OH235761   0.306   5.643   3.229 -0.2204  0.1808 -0.2862
 4757TIP3    H135762   0.389   5.682   3.200 -0.5876  1.4566  0.3260
 4757TIP3    H235763   0.329   5.598   3.310  0.0359 -0.2036 -0.5644
 4758TIP3   OH235764   2.895   5.895  12.016  0.7892 -0.0055  0.2764
 4758TIP3    H135765   2.887   5.957  11.943  0.8969  0.4345  0.6275
 4758TIP3    H235766   2.816   5.841  12.011  0.2212  0.7779  0.5140
 4759TIP3   OH235767   2.669   0.460  13.823 -0.3484 -0.0084  0.0495
 4759TIP3    H135768   2.645   0.481  13.914 -1.5946  1.5499 -0.5929
 4759TIP3    H235769   2.749   0.408  13.831  1.1785  2.4049  1.9710
 4760TIP3   OH235770   2.300   0.011  13.681 -0.1866 -0.1364  0.0182
 4760TIP3    H135771   2.213   0.043  13.704 -0.0876 -0.6490  1.1607
 4760TIP3    H235772   2.285  -0.078  13.649 -0.1500  0.0284 -0.4707
 4761TIP3   OH235773   0.980   6.471   4.366 -0.0535  0.8150 -0.4314
 4761TIP3    H135774   0.925   6.401   4.401  0.4909 -1.1205 -3.0947
 4761TIP3    H235775   0.994   6.446   4.274  3.5870  2.2712 -0.4329
 4762TIP3   OH235776   5.217   3.840   4.448 -0.1224 -0.0988  0.6651
 4762TIP3    H135777   5.271   3.891   4.388 -0.1804  0.5893  1.1765
 4762TIP3    H235778   5.233   3.749   4.425 -1.4905  0.1573 -1.5759
 4763TIP3   OH235779   3.004   4.598  11.603 -0.6164  0.4569 -0.2998
 4763TIP3    H135780   3.018   4.649  11.682 -0.6170 -0.7353  0.4887
 4763TIP3    H235781   2.940   4.532  11.627 -0.3401 -0.1638 -1.1873
 4764TIP3   OH235782   5.074   0.661   3.300  0.3204  0.3166 -0.2935
 4764TIP3    H135783   4.997   0.606   3.286 -0.0889  0.7576  0.1609
 4764TIP3    H235784   5.129   0.647   3.223 -1.2401  1.7049 -1.7399
 4765TIP3   OH235785   0.339   0.581   3.682 -0.3451 -0.6080 -0.2257
 4765TIP3    H135786   0.364   0.540   3.765 -0.0331 -0.4120 -0.2240
 4765TIP3    H235787   0.404   0.650   3.668 -0.5199 -0.5023 -0.5284
 4766TIP3   OH235788   2.197   3.893   6.439 -0.5370 -0.4899 -0.1918
 4766TIP3    H135789   2.290   3.905   6.459 -0.4720  1.1760 -1.2824
 4766TIP3    H235790   2.157   3.975   6.466 -1.9782 -1.6944  1.5758
 4767TIP3   OH235791   6.768   2.100  10.628  0.6055 -0.3940 -0.3773
 4767TIP3    H135792   6.708   2.062  10.564  1.3008  0.1074 -1.3519
 4767TIP3    H235793   6.715   2.162  10.678  0.1398 -0.5067 -0.7277
 4768TIP3   OH235794   0.980   6.003  16.551 -0.1755  0.3290  0.4982
 4768TIP3    H135795   1.076   5.999  16.547 -0.1326  0.4154  1.2925
 4768TIP3    H235796   0.961   6.030  16.641 -0.9968 -1.6874  0.9807
 4769TIP3   OH235797   4.207   4.198  15.063 -0.6011 -0.1119  0.1747
 4769TIP3    H135798   4.303   4.190  15.059 -0.6441 -0.4869 -0.1900
 4769TIP3    H235799   4.186   4.268  15.001 -0.4467  1.0379  1.3747
 4770TIP3   OH235800   2.829   1.606  16.908 -0.4808  0.3398  0.3249
 4770TIP3    H135801   2.739   1.576  16.920 -0.8994  1.2394 -0.4286
 4770TIP3    H235802   2.830   1.646  16.821  1.0199 -0.9388 -0.2887
 4771TIP3   OH235803   4.817   0.344  13.617 -0.4530  0.0681  0.1167
 4771TIP3    H135804   4.732   0.307  13.595  0.1798 -0.2763 -1.8631
 4771TIP3    H235805   4.843   0.298  13.698 -1.6375 -0.6066  0.1337
 4772TIP3   OH235806   2.287   5.407  11.881 -0.0612  0.0384  0.0454
 4772TIP3    H135807   2.370   5.381  11.842  0.4113  1.4424  0.0650
 4772TIP3    H235808   2.274   5.345  11.952  1.2059  0.0632  0.3245
 4773TIP3   OH235809   3.776   5.286  17.230 -0.4363  0.0782  0.4154
 4773TIP3    H135810   3.758   5.209  17.177  0.2903 -1.1095  1.8176
 4773TIP3    H235811   3.849   5.329  17.186 -1.1273  0.2239 -0.6141
 4774TIP3   OH235812   5.510   4.702   3.568 -0.1070 -0.2739 -0.2965
 4774TIP3    H135813   5.448   4.739   3.505 -0.5629  1.3459  1.0509
 4774TIP3    H235814   5.487   4.743   3.651 -0.2073 -3.1448  1.1998
 4775TIP3   OH235815   6.253   5.549   4.487  0.2046  0.0359 -0.3559
 4775TIP3    H135816   6.328   5.609   4.489  0.7740 -0.6406 -1.0014
 4775TIP3    H235817   6.292   5.462   4.492 -0.3906 -0.4154 -2.5906
 4776TIP3   OH235818   2.778   4.612  13.527  0.2420 -0.0011  0.3254
 4776TIP3    H135819   2.821   4.693  13.555  1.3249 -0.0333 -1.1122
 4776TIP3    H235820   2.690   4.639  13.499  1.1224  1.0391 -1.7091
 4777TIP3   OH235821   2.091   0.134  16.389  0.1746 -0.9614  0.6531
 4777TIP3    H135822   2.055   0.060  16.340  0.0761 -0.1943 -0.4594
 4777TIP3    H235823   2.054   0.211  16.347  1.9945 -0.1943  0.3520
 4778TIP3   OH235824   3.508   2.365   2.692 -0.5940  0.2231 -0.0894
 4778TIP3    H135825   3.490   2.452   2.658 -2.0743  0.6827  1.7037
 4778TIP3    H235826   3.502   2.375   2.787  1.7506 -1.3114  0.2909
 4779TIP3   OH235827   2.712   1.082  15.856  0.0593 -0.6152  0.3137
 4779TIP3    H135828   2.733   1.011  15.915 -0.5260 -1.3857 -0.3881
 4779TIP3    H235829   2.651   1.138  15.905  1.0500 -0.1993  1.1139
 4780TIP3   OH235830   3.193   0.817   2.699 -0.1633  0.2051  0.3348
 4780TIP3    H135831   3.158   0.749   2.642  0.8582 -0.1788  0.1479
 4780TIP3    H235832   3.238   0.878   2.641  2.0320 -0.8861  0.7867
 4781TIP3   OH235833   0.807   3.408  15.845 -0.5578 -0.0328 -0.1596
 4781TIP3    H135834   0.898   3.408  15.817 -0.6320  1.6167 -0.5205
 4781TIP3    H235835   0.809   3.374  15.934  0.6324  1.4219  0.4011
 4782TIP3   OH235836   2.583   6.289   3.751 -0.4051  0.4329 -0.0756
 4782TIP3    H135837   2.632   6.328   3.823  1.4591  1.6125 -1.8539
 4782TIP3    H235838   2.507   6.347   3.739 -1.9094 -0.9349  2.1603
 4783TIP3   OH235839   0.735   0.442   3.444  0.6053 -0.1055 -0.0250
 4783TIP3    H135840   0.691   0.460   3.527  0.0938  1.5607 -0.6142
 4783TIP3    H235841   0.828   0.457   3.462  0.3580  1.6148 -0.0649
 4784TIP3   OH235842   3.169   1.494  12.775 -0.2589 -0.6239  0.1813
 4784TIP3    H135843   3.114   1.418  12.755  1.8457 -1.5053 -3.1303
 4784TIP3    H235844   3.125   1.567  12.732 -1.0931 -0.3805  1.4027
 4785TIP3   OH235845   5.235   2.195   0.456  0.1213  0.1497 -0.2676
 4785TIP3    H135846   5.221   2.101   0.452 -0.6753  0.2976 -1.2463
 4785TIP3    H235847   5.329   2.207   0.442  0.9113 -0.6687  3.2390
 4786TIP3   OH235848   3.794   4.205  12.282 -0.2296 -0.4097  0.1617
 4786TIP3    H135849   3.781   4.279  12.340 -0.5378  1.7625 -2.4802
 4786TIP3    H235850   3.872   4.161  12.315 -0.1953  0.9014  1.9454
 4787TIP3   OH235851   1.998   5.986  11.563  0.2371 -0.5017  0.1846
 4787TIP3    H135852   2.002   6.078  11.588  3.9239 -0.9722  2.1323
 4787TIP3    H235853   1.949   5.944  11.634 -1.2666 -0.1497 -0.6006
 4788TIP3   OH235854   2.955   6.726  12.040 -0.0695  0.4424  0.6595
 4788TIP3    H135855   2.889   6.659  12.052 -0.3256  0.8726  1.7823
 4788TIP3    H235856   3.036   6.678  12.022 -0.4726 -0.1099  0.2970
 4789TIP3   OH235857   5.020   5.634  17.098  0.1839 -0.0213  0.6363
 4789TIP3    H135858   5.048   5.693  17.168  0.2009 -0.2486  0.8212
 4789TIP3    H235859   5.011   5.548  17.140  0.5097 -0.2264  0.2945
 4790TIP3   OH235860   3.285   1.863   5.220  0.3210  0.2698  0.5379
 4790TIP3    H135861   3.354   1.808   5.257 -1.8719 -1.7597  1.9613
 4790TIP3    H235862   3.264   1.925   5.289 -0.1142  0.0223  0.6360
 4791TIP3   OH235863   1.564   3.023   4.796  0.3517 -0.2545  0.3858
 4791TIP3    H135864   1.497   3.047   4.860 -0.2255 -1.1526  0.1441
 4791TIP3    H235865   1.582   2.931   4.815  0.2424 -0.4994 -0.6714
 4792TIP3   OH235866   4.388   4.591  17.255  0.4386 -0.0942  0.2632
 4792TIP3    H135867   4.425   4.581  17.167 -0.2635 -1.0685  0.0657
 4792TIP3    H235868   4.342   4.675  17.253  0.7079  0.0459 -0.1935
 4793TIP3   OH235869   4.663   2.668  15.748 -0.0265  0.1346 -0.1597
 4793TIP3    H135870   4.710   2.606  15.692  0.0492  0.4934 -0.4982
 4793TIP3    H235871   4.710   2.664  15.831 -1.1916 -1.6978  0.4719
 4794TIP3   OH235872   3.036   5.597  10.902  0.2721  0.4363 -0.1012
 4794TIP3    H135873   2.958   5.633  10.859  0.3900  0.8770  0.0547
 4794TIP3    H235874   3.039   5.506  10.872 -1.7244 -0.3705  1.8069
 4795TIP3   OH235875   5.073   6.638   3.491  0.1422  0.1531  0.3781
 4795TIP3    H135876   5.135   6.614   3.421  0.6222 -0.1542  0.9056
 4795TIP3    H235877   5.123   6.697   3.547 -0.7132  1.6264 -0.3548
 4796TIP3   OH235878   5.491   5.601   3.952  0.5403 -0.0691 -0.0503
 4796TIP3    H135879   5.553   5.540   3.992 -0.8870 -1.5308  0.0423
 4796TIP3    H235880   5.538   5.639   3.879  2.8747  1.8711  2.2939
 4797TIP3   OH235881   4.993   1.376   4.478  0.1775 -0.1486 -0.0156
 4797TIP3    H135882   4.942   1.401   4.555 -0.6712  1.6641 -1.0850
 4797TIP3    H235883   5.081   1.359   4.513 -0.2091  0.4965  1.3755
 4798TIP3   OH235884   3.941   4.187  10.838  0.4412 -0.4149 -0.2966
 4798TIP3    H135885   3.899   4.241  10.905  1.6524  2.1848 -1.5025
 4798TIP3    H235886   3.868   4.154  10.786 -0.3655  2.4128 -1.1728
 4799TIP3   OH235887   5.308   4.272  15.870  0.0754  0.0090  0.0812
 4799TIP3    H135888   5.346   4.343  15.922  0.9389  1.1879 -1.9940
 4799TIP3    H235889   5.244   4.316  15.813 -0.6445 -1.1690 -0.0548
 4800TIP3   OH235890   5.320   3.697   5.830  0.1151  0.0202  0.3276
 4800TIP3    H135891   5.349   3.703   5.739 -0.9190 -0.6239 -0.0616
 4800TIP3    H235892   5.239   3.646   5.826 -0.7233  1.1890  1.4394
 4801TIP3   OH235893   1.268   1.885  15.337 -0.4930  0.0537  0.1469
 4801TIP3    H135894   1.259   1.820  15.267 -1.7571 -1.5989  1.7267
 4801TIP3    H235895   1.355   1.921  15.326 -1.1726  1.0016 -3.1834
 4802TIP3   OH235896   1.577   4.048   4.226 -0.2171 -0.8186  0.0816
 4802TIP3    H135897   1.601   4.050   4.134 -0.5103 -0.4534  0.0093
 4802TIP3    H235898   1.660   4.038   4.273  0.2000  1.1449 -0.1300
 4803TIP3   OH235899   2.395   3.949  13.497  0.2884  0.8178  0.0076
 4803TIP3    H135900   2.387   3.982  13.586  0.1695 -0.6830  0.5730
 4803TIP3    H235901   2.472   3.994  13.462  0.4250  1.3134  0.9151
 4804TIP3   OH235902   0.817   0.673   5.991  0.0328 -0.6024  0.6227
 4804TIP3    H135903   0.790   0.589   6.029  0.1062 -0.3745  1.2031
 4804TIP3    H235904   0.776   0.738   6.048 -0.0740 -0.2452  0.1383
 4805TIP3   OH235905   6.718   0.484  16.577 -0.0064 -0.2274 -0.2499
 4805TIP3    H135906   6.674   0.399  16.581  0.8755 -0.6539  1.0727
 4805TIP3    H235907   6.768   0.482  16.495  0.4756 -1.2340  0.0558
 4806TIP3   OH235908   2.170   2.127  11.924  0.3150 -0.1459 -0.0065
 4806TIP3    H135909   2.075   2.132  11.919  0.2080 -1.4918  0.4853
 4806TIP3    H235910   2.200   2.178  11.848 -0.7874 -0.0103 -0.3730
 4807TIP3   OH235911   4.555   1.180  15.500 -0.8249 -0.9967  0.0297
 4807TIP3    H135912   4.624   1.134  15.547  0.5313 -1.0922 -1.9399
 4807TIP3    H235913   4.569   1.273  15.521 -0.3263 -1.0490 -0.0696
 4808TIP3   OH235914   2.892   5.050   5.160  0.2626  0.1715 -0.0181
 4808TIP3    H135915   2.972   5.004   5.131  0.3180 -0.3713  0.9396
 4808TIP3    H235916   2.925   5.123   5.212  0.1384  0.4546 -0.3302
 4809TIP3   OH235917   5.275   6.031   0.243  0.4179 -0.3793 -0.0894
 4809TIP3    H135918   5.305   6.043   0.333 -0.8257  0.9151  0.1881
 4809TIP3    H235919   5.185   6.000   0.252  0.3335 -0.3785 -0.8803
 4810TIP3   OH235920   2.367   2.511   0.970  0.1818  0.7083  0.2837
 4810TIP3    H135921   2.331   2.488   1.055  2.0979  0.7248  1.1512
 4810TIP3    H235922   2.341   2.602   0.957 -3.3719 -0.3422 -0.9867
 4811TIP3   OH235923   6.504   2.069  16.278  0.1251  0.2730 -0.2965
 4811TIP3    H135924   6.585   2.115  16.296 -0.0352  0.2078  0.6370
 4811TIP3    H235925   6.466   2.115  16.204  1.8368 -0.7469 -1.8981
 4812TIP3   OH235926   2.375   3.139   1.858 -0.4758  0.1801 -0.1522
 4812TIP3    H135927   2.322   3.184   1.923  0.6405  0.1653  0.7995
 4812TIP3    H235928   2.388   3.051   1.894  0.6322  0.3503 -0.0866
 4813TIP3   OH235929   6.677   5.989   6.567  0.3384 -0.3253  0.5580
 4813TIP3    H135930   6.770   6.011   6.570  0.0643  1.1470 -0.4206
 4813TIP3    H235931   6.644   6.035   6.489 -1.2447 -0.6575  0.9890
 4814TIP3   OH235932   2.526   4.215  11.713 -0.0441  0.3425  0.1019
 4814TIP3    H135933   2.509   4.143  11.773 -0.4879 -0.2811 -0.7583
 4814TIP3    H235934   2.582   4.275  11.763  1.0024 -0.9730  0.5477
 4815TIP3   OH235935   1.065   5.874  12.317  0.4513 -0.5405 -0.6137
 4815TIP3    H135936   1.032   5.926  12.389 -2.3557 -1.9652 -0.7535
 4815TIP3    H235937   1.093   5.939  12.252  1.4104  0.7375  0.9839
 4816TIP3   OH235938   0.579   4.719  11.437  0.0421 -0.1021  0.1076
 4816TIP3    H135939   0.658   4.774  11.432 -0.3616  0.3763 -1.1674
 4816TIP3    H235940   0.613   4.630  11.448  0.7728  0.0747 -0.6372
 4817TIP3   OH235941   2.711   4.741  14.203  0.3892 -0.8060  0.2930
 4817TIP3    H135942   2.788   4.740  14.145 -0.4461 -0.6059 -0.8506
 4817TIP3    H235943   2.724   4.817  14.259  0.5467 -0.1816 -0.5711
 4818TIP3   OH235944   4.926   3.263  12.676 -0.1974 -0.0528 -0.7963
 4818TIP3    H135945   4.999   3.201  12.670 -1.0975 -1.2624  0.1012
 4818TIP3    H235946   4.967   3.349  12.673  1.1531 -0.6891 -1.4845
 4819TIP3   OH235947   0.705   4.673  12.466 -0.9643 -0.0364  0.1711
 4819TIP3    H135948   0.676   4.633  12.548 -0.3674 -0.4033  0.2136
 4819TIP3    H235949   0.709   4.600  12.404  1.1154 -0.2744  0.5133
 4820TIP3   OH235950   2.015   3.705   2.942 -0.0145  0.1024  0.5773
 4820TIP3    H135951   2.064   3.627   2.966 -0.2893 -0.2931 -0.1328
 4820TIP3    H235952   1.955   3.719   3.016  1.4842  0.8974  1.7042
 4821TIP3   OH235953   5.608   0.933   3.169  0.7060 -0.3250  0.3650
 4821TIP3    H135954   5.575   0.949   3.080 -1.3435  1.6660  1.4017
 4821TIP3    H235955   5.591   0.839   3.183 -0.7668 -0.2492 -0.6467
 4822TIP3   OH235956   1.000   0.443   3.514 -0.2791  0.1372 -0.6392
 4822TIP3    H135957   1.089   0.415   3.495 -0.3675 -0.4453 -0.2287
 4822TIP3    H235958   0.983   0.409   3.602 -0.3323  1.6400 -0.0370
 4823TIP3   OH235959   4.176   5.392   5.061 -0.1372 -0.8059 -0.4140
 4823TIP3    H135960   4.140   5.326   5.120  0.5500 -2.2060 -1.5100
 4823TIP3    H235961   4.112   5.463   5.063 -0.1010 -0.7348  2.0479
 4824TIP3   OH235962   6.034   1.979   6.445 -0.0560  1.0817 -0.0009
 4824TIP3    H135963   5.941   1.971   6.467 -0.0722 -0.1215 -0.4593
 4824TIP3    H235964   6.045   2.072   6.423 -0.9045  1.4629  1.1037
 4825TIP3   OH235965   4.025   2.436  15.166  0.7171 -0.0622  0.3679
 4825TIP3    H135966   4.096   2.390  15.210  0.6220 -0.2671  0.3071
 4825TIP3    H235967   3.958   2.369  15.152  1.3010 -0.3304 -1.3414
 4826TIP3   OH235968   0.390   6.071  13.660  0.0788 -0.3318  0.4931
 4826TIP3    H135969   0.368   5.997  13.604  1.7975 -1.6240  1.4447
 4826TIP3    H235970   0.375   6.148  13.604 -0.6094 -1.4443 -0.9092
 4827TIP3   OH235971   0.128   0.254   5.300  0.4854 -0.1715  0.2788
 4827TIP3    H135972   0.169   0.201   5.231  0.2175  2.0542 -1.7187
 4827TIP3    H235973   0.038   0.224   5.302  0.2833  0.2688 -0.9789
 4828TIP3   OH235974   0.807   5.771   4.569 -0.1243 -0.2184  0.0687
 4828TIP3    H135975   0.756   5.743   4.646  1.0417  1.0544  1.3542
 4828TIP3    H235976   0.741   5.808   4.510 -0.9708 -0.6705  0.6988
 4829TIP3   OH235977   1.239   3.349  15.400 -0.2352  0.5639 -0.2331
 4829TIP3    H135978   1.201   3.427  15.440  1.5750  1.4229 -0.1260
 4829TIP3    H235979   1.331   3.350  15.427 -0.2819 -1.9233  0.2552
 4830TIP3   OH235980   0.211   2.546   5.673  0.3704 -0.2585  0.3950
 4830TIP3    H135981   0.196   2.607   5.601  1.1441 -1.8984 -1.2261
 4830TIP3    H235982   0.128   2.545   5.721  0.1347  1.5380  0.0942
 4831TIP3   OH235983   2.929   2.463   3.775  0.3287 -0.3613 -0.4199
 4831TIP3    H135984   2.911   2.380   3.731  0.9561 -0.7484  0.0481
 4831TIP3    H235985   2.842   2.494   3.802  0.0230 -0.5394 -1.1505
 4832TIP3   OH235986   0.127   2.301  14.766  0.0835  0.0604  0.3001
 4832TIP3    H135987   0.170   2.350  14.836  2.2442 -0.6372 -0.4379
 4832TIP3    H235988   0.143   2.209  14.788 -0.2701 -0.1931 -0.4698
 4833TIP3   OH235989   4.284   2.721   0.554 -0.7653  0.1486  0.0487
 4833TIP3    H135990   4.319   2.804   0.586 -0.7799  0.8793 -1.6908
 4833TIP3    H235991   4.235   2.685   0.628  1.9999  0.0103  1.9622
 4834TIP3   OH235992   1.882   5.742   1.913  0.0532  0.1460  0.5816
 4834TIP3    H135993   1.857   5.830   1.886 -0.6426 -0.4510 -0.8608
 4834TIP3    H235994   1.800   5.693   1.912  0.7580 -1.1109 -1.1715
 4835TIP3   OH235995   5.326   5.634  14.773 -0.3231  0.2827  0.1680
 4835TIP3    H135996   5.334   5.566  14.706 -0.8674  0.9776 -0.6209
 4835TIP3    H235997   5.382   5.705  14.741 -0.0295  0.3500  0.8141
 4836TIP3   OH235998   4.211   2.179   4.303 -0.2447 -0.3715  0.0395
 4836TIP3    H135999   4.133   2.192   4.249  1.1244 -0.3428 -2.0937
 4836TIP3    H236000   4.223   2.084   4.304  0.1875 -0.3317 -0.4669
 4837TIP3   OH236001   2.948   1.890  13.529  0.0497  0.2838 -0.1142
 4837TIP3    H136002   2.876   1.943  13.493  3.4719  3.3473 -3.2490
 4837TIP3    H236003   2.987   1.848  13.453  1.7548 -1.1169  1.4509
 4838TIP3   OH236004   5.338   2.065  12.601  0.2082  0.2743 -0.1586
 4838TIP3    H136005   5.311   2.155  12.615 -2.3201 -0.4785  0.3031
 4838TIP3    H236006   5.348   2.029  12.689 -0.1227 -0.2391 -0.3238
 4839TIP3   OH236007   4.479   1.064   1.289  0.2870  0.2661  0.0660
 4839TIP3    H136008   4.523   1.034   1.209 -1.3913 -1.2901 -0.3428
 4839TIP3    H236009   4.540   1.127   1.328  1.7001  0.1257 -1.7778
 4840TIP3   OH236010   3.622   4.112   0.165 -0.5629 -0.0851  0.3474
 4840TIP3    H136011   3.579   4.034   0.200 -1.9897  0.3326 -0.3973
 4840TIP3    H236012   3.611   4.104   0.070  0.2886  0.4683  0.1939
 4841TIP3   OH236013   1.631   5.735  11.553 -0.6672  0.9304  0.7408
 4841TIP3    H136014   1.657   5.725  11.461 -0.7622  2.5297  0.5192
 4841TIP3    H236015   1.571   5.662  11.568 -0.9121  0.8311 -0.5740
 4842TIP3   OH236016   0.489   2.460   0.083 -0.0975 -0.0555  0.8408
 4842TIP3    H136017   0.487   2.515   0.161 -0.7124 -0.5128  1.1585
 4842TIP3    H236018   0.556   2.500   0.027  2.4956 -1.3588  2.8021
 4843TIP3   OH236019   5.235   3.413  16.714  0.8603  1.0529  0.3891
 4843TIP3    H136020   5.228   3.489  16.772  0.8544  0.8816  0.6119
 4843TIP3    H236021   5.235   3.451  16.626 -1.4186  1.1924  0.3948
 4844TIP3   OH236022   1.108   5.013  15.179  0.0305  0.1475  0.1592
 4844TIP3    H136023   1.129   4.943  15.117  0.0223  0.8639 -0.6706
 4844TIP3    H236024   1.031   5.056  15.143  0.7767  1.3884 -0.0443
 4845TIP3   OH236025   1.194   1.895  17.094  0.2932  0.0245  0.2571
 4845TIP3    H136026   1.286   1.921  17.094  0.5163 -0.5781 -2.2061
 4845TIP3    H236027   1.196   1.801  17.114  0.1285  0.1630  0.9596
 4846TIP3   OH236028   0.998   2.091  12.125 -0.3681 -0.1189 -0.6162
 4846TIP3    H136029   1.026   2.015  12.176 -1.1085  0.4872  0.7550
 4846TIP3    H236030   1.024   2.167  12.177 -1.0683  0.5369 -1.1886
 4847TIP3   OH236031   2.902   6.326  13.930 -0.0740  0.0868  0.2892
 4847TIP3    H136032   2.811   6.310  13.957  1.0338 -1.9472  3.2967
 4847TIP3    H236033   2.914   6.420  13.942 -1.3227  0.1296  1.4164
 4848TIP3   OH236034   3.679   2.781  13.027  0.1263 -0.0350 -0.1606
 4848TIP3    H136035   3.637   2.782  12.941 -1.5667 -0.3150  0.6375
 4848TIP3    H236036   3.607   2.790  13.090  1.3724  0.7466  1.2312
 4849TIP3   OH236037   4.593   6.342  16.859  0.4191 -0.4633 -0.1771
 4849TIP3    H136038   4.528   6.282  16.896 -1.6179  1.9421  0.4999
 4849TIP3    H236039   4.579   6.424  16.907  2.8670  0.6488 -1.1979
 4850TIP3   OH236040   0.187   4.617  14.849 -0.3006 -0.1001  0.7290
 4850TIP3    H136041   0.147   4.547  14.901 -0.1358 -0.8529 -0.1493
 4850TIP3    H236042   0.112   4.670  14.819 -0.5076 -0.5189  0.5049
 4851TIP3   OH236043   6.469   4.400   4.061  0.0823  0.4380 -0.0234
 4851TIP3    H136044   6.526   4.462   4.016  1.4956 -0.6042  0.2500
 4851TIP3    H236045   6.443   4.445   4.141  0.0963  1.1245 -0.3986
 4852TIP3   OH236046   3.459   0.606   0.244 -0.0309  0.2048  0.1840
 4852TIP3    H136047   3.507   0.647   0.317 -1.0244  0.5182  0.6756
 4852TIP3    H236048   3.483   0.658   0.167  1.0758 -0.1605  0.2570
 4853TIP3   OH236049   3.506   5.044   1.614 -0.1927  0.3815  0.1256
 4853TIP3    H136050   3.430   5.012   1.662 -0.3365  0.9509  0.2881
 4853TIP3    H236051   3.552   5.100   1.677  1.3435 -1.3584  0.6180
 4854TIP3   OH236052   3.199   2.545  13.238  0.5985  0.0535 -0.2243
 4854TIP3    H136053   3.185   2.454  13.211 -1.6823  0.5252 -0.7964
 4854TIP3    H236054   3.242   2.538  13.323  1.8842 -1.5125 -0.9373
 4855TIP3   OH236055   4.167   4.982   3.118  0.3750 -0.1138  0.2332
 4855TIP3    H136056   4.117   5.064   3.114 -0.1462 -0.4366 -2.8930
 4855TIP3    H236057   4.126   4.932   3.189 -0.4234  1.6318  1.0577
 4856TIP3   OH236058   6.279   3.751   5.186  0.1812 -0.2496 -0.5651
 4856TIP3    H136059   6.318   3.823   5.237 -1.0814 -0.6764  1.0919
 4856TIP3    H236060   6.246   3.793   5.107  0.7205  0.7488 -0.2768
 4857TIP3   OH236061   4.145   6.533  12.992 -0.3173 -0.5440  0.2763
 4857TIP3    H136062   4.064   6.568  12.954 -0.0225 -0.6947 -0.5094
 4857TIP3    H236063   4.136   6.438  12.982  0.5418 -0.5160 -1.0866
 4858TIP3   OH236064   4.043   4.390   0.040 -0.0454  0.5656  0.0374
 4858TIP3    H136065   4.011   4.408  -0.049  2.3050  1.3523 -0.7112
 4858TIP3    H236066   4.120   4.335   0.027  0.2306  0.5478  1.6197
 4859TIP3   OH236067   4.634   2.102  12.539 -0.5896 -0.1991  0.1192
 4859TIP3    H136068   4.705   2.072  12.482 -1.4408 -0.2995 -0.9142
 4859TIP3    H236069   4.578   2.154  12.482 -0.4699  1.3060  1.3074
 4860TIP3   OH236070   2.681   0.145   0.924  0.0010 -0.2587  0.6318
 4860TIP3    H136071   2.653   0.113   1.010 -1.0387 -0.7239  0.1308
 4860TIP3    H236072   2.757   0.092   0.902 -0.5254 -1.0532  0.6890
 4861TIP3   OH236073   3.168   6.556   1.623  0.3000 -0.3577  0.1646
 4861TIP3    H136074   3.127   6.510   1.697 -1.5746  1.1766  0.1577
 4861TIP3    H236075   3.225   6.621   1.665  0.5071 -0.5901  0.2410
 4862TIP3   OH236076   2.879   2.986  15.923  0.1266 -0.0325 -0.1383
 4862TIP3    H136077   2.804   2.936  15.890 -2.1837  2.3349  1.1904
 4862TIP3    H236078   2.884   3.062  15.866  3.3483 -1.3530 -1.8842
 4863TIP3   OH236079   2.822   3.362  13.387 -0.3923  0.4676 -0.1874
 4863TIP3    H136080   2.835   3.430  13.453 -0.6041  0.5847 -0.2645
 4863TIP3    H236081   2.796   3.409  13.308  0.1544  0.3499 -0.4399
 4864TIP3   OH236082   4.674   3.776  12.963  0.0629 -0.0201 -0.3255
 4864TIP3    H136083   4.763   3.765  12.931  0.4638  0.3059  0.6572
 4864TIP3    H236084   4.657   3.870  12.958  0.0818  0.0212  0.2602
 4865TIP3   OH236085   0.620   6.396  16.032 -0.2711 -0.0403  0.3748
 4865TIP3    H136086   0.699   6.382  15.980 -1.1243 -0.3196 -0.8729
 4865TIP3    H236087   0.580   6.310  16.040 -0.0600 -0.0429  1.6942
 4866TIP3   OH236088   5.656   6.488   0.037  0.3789  0.2521  0.3331
 4866TIP3    H136089   5.588   6.456  -0.023  1.4435 -2.6515  0.5225
 4866TIP3    H236090   5.723   6.525  -0.021  0.1541 -0.0148 -0.1059
 4867TIP3   OH236091   3.257   2.411   4.672 -0.5394 -0.4712 -0.1366
 4867TIP3    H136092   3.170   2.371   4.669 -0.6213 -0.4571  1.1792
 4867TIP3    H236093   3.241   2.501   4.701 -0.2955  0.3936 -2.4620
 4868TIP3   OH236094   3.066   2.027   0.884 -0.3372  0.3063  0.3940
 4868TIP3    H136095   3.131   2.081   0.838 -2.1595  1.4275 -1.0233
 4868TIP3    H236096   3.006   2.090   0.924 -1.2502 -0.6742  0.6175
 4869TIP3   OH236097   4.512   5.101  14.966  0.7037 -0.4011  0.1065
 4869TIP3    H136098   4.529   5.191  14.995 -2.5943 -0.3892  2.6067
 4869TIP3    H236099   4.434   5.108  14.911  0.7445 -1.7215 -0.1514
 4870TIP3   OH236100   4.268   1.121   0.736 -0.1068  0.0162 -0.0564
 4870TIP3    H136101   4.230   1.203   0.769 -2.0530 -0.7553 -0.2579
 4870TIP3    H236102   4.315   1.085   0.812 -1.0539  0.2698  0.6673
 4871TIP3   OH236103   5.395   3.904   1.501 -0.3097 -0.4706  0.0175
 4871TIP3    H136104   5.349   3.826   1.470 -0.4473 -0.6545  0.6523
 4871TIP3    H236105   5.328   3.957   1.543 -0.3201  0.2740 -0.9222
 4872TIP3   OH236106   1.155   5.099  11.455 -0.1818  0.2249  0.0374
 4872TIP3    H136107   1.230   5.153  11.482  0.3203 -0.4405 -0.0021
 4872TIP3    H236108   1.149   5.032  11.523 -0.3197 -0.1220 -0.3144
 4873TIP3   OH236109   6.793   4.669  15.600 -0.3577 -0.1858  0.2987
 4873TIP3    H136110   6.841   4.586  15.600 -1.0892 -0.6457 -0.7865
 4873TIP3    H236111   6.702   4.643  15.582 -0.2401  0.9979 -2.5540
 4874TIP3   OH236112   2.595   5.233  13.299  0.0467 -0.1577 -0.2524
 4874TIP3    H136113   2.630   5.322  13.303 -1.6769  0.5774 -0.8046
 4874TIP3    H236114   2.573   5.212  13.389  2.5394 -0.9630  0.2582
 4875TIP3   OH236115   1.451   4.170   3.368 -0.2724 -0.0859 -0.0625
 4875TIP3    H136116   1.444   4.190   3.274  0.2117  3.1023  0.4694
 4875TIP3    H236117   1.502   4.089   3.371  0.5249  0.2169 -2.5432
 4876TIP3   OH236118   1.184   0.446   0.456  0.6124 -0.1977 -0.0802
 4876TIP3    H136119   1.254   0.511   0.446  0.5323  0.0540  0.8569
 4876TIP3    H236120   1.224   0.376   0.508  0.0224  0.2255  0.9841
 4877TIP3   OH236121   4.888   0.589  12.977 -0.7186 -0.4446  0.0444
 4877TIP3    H136122   4.908   0.532  12.903  0.2549 -0.4877  0.3209
 4877TIP3    H236123   4.887   0.677  12.941 -2.6293 -0.6426 -0.4648
 4878TIP3   OH236124   4.705   5.709   4.366 -0.4771  0.0395 -0.4337
 4878TIP3    H136125   4.748   5.628   4.339  0.9074  1.4829 -2.9988
 4878TIP3    H236126   4.729   5.721   4.457  3.0413 -0.2485 -1.1926
 4879TIP3   OH236127   1.809   1.650  13.667 -0.6676  0.1815 -0.1397
 4879TIP3    H136128   1.752   1.718  13.703 -0.5100 -0.8278  2.2687
 4879TIP3    H236129   1.749   1.588  13.626 -0.8400  1.5321 -2.0232
 4880TIP3   OH236130   1.803   1.710   5.421 -0.3860 -0.4311 -0.6151
 4880TIP3    H136131   1.711   1.697   5.398 -0.6037  0.5256 -0.2955
 4880TIP3    H236132   1.809   1.683   5.513 -0.1960 -1.1197 -0.8185
 4881TIP3   OH236133   0.095   4.287  10.714  0.1595  0.3955 -0.0737
 4881TIP3    H136134   0.007   4.289  10.678  1.3961  3.0156 -3.4866
 4881TIP3    H236135   0.144   4.231  10.653  1.4150  1.3240  0.0390
 4882TIP3   OH236136   2.522   5.678  15.777  0.7083  0.6204 -0.0771
 4882TIP3    H136137   2.439   5.694  15.822 -0.8867  0.9902 -2.9150
 4882TIP3    H236138   2.575   5.629  15.840 -2.1818 -0.8428  1.4013
 4883TIP3   OH236139   1.085   1.823  13.134 -0.2329 -0.0712  0.1817
 4883TIP3    H136140   1.085   1.889  13.065  0.4576 -1.3622 -1.1249
 4883TIP3    H236141   1.146   1.756  13.103 -1.6249 -1.8038  0.9593
 4884TIP3   OH236142   1.168   4.517  11.000  0.4077 -0.0658 -0.4205
 4884TIP3    H136143   1.181   4.548  10.910 -0.5081  0.1737 -0.4827
 4884TIP3    H236144   1.081   4.550  11.024  1.5437  1.8230  1.3713
 4885TIP3   OH236145   0.911   0.923  15.795  0.2640 -0.0998  0.4658
 4885TIP3    H136146   0.968   0.851  15.769 -1.0445 -0.5206 -1.3982
 4885TIP3    H236147   0.893   0.971  15.714  1.3870  2.6062  1.6774
 4886TIP3   OH236148   1.004   5.716  14.625 -0.0016 -0.3873 -0.2375
 4886TIP3    H136149   1.070   5.682  14.686 -0.2376 -0.5890 -0.0916
 4886TIP3    H236150   1.054   5.761  14.557  0.2373  0.9355  0.7587
 4887TIP3   OH236151   1.725   0.307   1.057 -0.2537  0.4379 -0.4150
 4887TIP3    H136152   1.642   0.350   1.079  0.5949  2.0227 -0.0989
 4887TIP3    H236153   1.727   0.305   0.961  0.8081  3.7206 -0.6244
 4888TIP3   OH236154   1.191   0.688   4.385 -0.0528  0.1649 -0.0765
 4888TIP3    H136155   1.267   0.708   4.331  1.0602  0.1872  1.4262
 4888TIP3    H236156   1.228   0.655   4.467 -1.6837 -3.3524 -0.5709
 4889TIP3   OH236157   6.145   6.505  16.936 -0.2200  0.1738 -0.4243
 4889TIP3    H136158   6.198   6.535  16.863  1.2792 -1.8282 -0.2525
 4889TIP3    H236159   6.209   6.476  17.001 -1.5338 -0.2793  0.7034
 4890TIP3   OH236160   0.908   4.355   2.720 -0.1396 -0.7697 -0.0734
 4890TIP3    H136161   0.977   4.321   2.663  0.8473  0.0711  0.5744
 4890TIP3    H236162   0.891   4.443   2.687  1.2556  0.1698  1.5559
 4891TIP3   OH236163   3.592   6.747  16.759 -0.3622 -0.3602 -0.0488
 4891TIP3    H136164   3.567   6.703  16.677  0.9999  0.8346 -1.1551
 4891TIP3    H236165   3.544   6.829  16.757  3.0120  1.8153 -2.0366
 4892TIP3   OH236166   6.385   1.579   5.177 -0.0576 -0.6033  0.1667
 4892TIP3    H136167   6.473   1.610   5.201 -0.3750 -0.1022  0.7242
 4892TIP3    H236168   6.368   1.508   5.239  0.4892 -1.6191 -0.8196
 4893TIP3   OH236169   4.379   5.634   5.814  0.0157  0.0377 -0.2004
 4893TIP3    H136170   4.428   5.555   5.837 -1.2755 -0.4150  1.1139
 4893TIP3    H236171   4.411   5.656   5.726  0.6891 -1.7141 -0.4475
 4894TIP3   OH236172   3.311   1.417   4.910 -0.5249  0.0055  0.3821
 4894TIP3    H136173   3.309   1.323   4.889  0.4743  0.3687 -1.6418
 4894TIP3    H236174   3.403   1.441   4.899 -1.0513  1.5614 -0.8995
 4895TIP3   OH236175   1.150   5.322   2.838  0.0286  0.0089 -0.2178
 4895TIP3    H136176   1.068   5.363   2.865 -1.2202  0.2340 -3.8242
 4895TIP3    H236177   1.190   5.385   2.778  2.0578 -0.8198  0.1697
 4896TIP3   OH236178   1.986   6.596  14.209  0.2836 -0.2944 -0.3352
 4896TIP3    H136179   1.891   6.603  14.208  0.2940 -0.1498 -0.4577
 4896TIP3    H236180   2.009   6.564  14.121  0.5144  2.1786 -1.2788
 4897TIP3   OH236181   2.450   6.656   1.358 -0.3384  0.3359  0.5353
 4897TIP3    H136182   2.494   6.573   1.375  2.5678  1.8122  0.7390
 4897TIP3    H236183   2.480   6.714   1.428 -0.1123  2.3242 -1.1263
 4898TIP3   OH236184   3.089   1.804  16.338  0.4075 -0.7995  0.5917
 4898TIP3    H136185   3.053   1.768  16.257  1.3767 -1.4568  0.4315
 4898TIP3    H236186   3.013   1.833  16.388 -0.2252 -0.7861 -0.3679
 4899TIP3   OH236187   3.946   1.039   5.824  0.0921  0.3671  0.2806
 4899TIP3    H136188   4.001   1.118   5.822 -0.2027  0.5701 -1.9035
 4899TIP3    H236189   3.985   0.985   5.893  1.2588  1.7389  0.7520
 4900TIP3   OH236190   4.396   4.049   2.465 -0.6834 -0.3234 -0.1203
 4900TIP3    H136191   4.413   4.065   2.372 -0.7108 -1.2118 -0.2917
 4900TIP3    H236192   4.473   4.001   2.495 -0.9626 -0.5981  0.1575
 4901TIP3   OH236193   1.748   4.288  12.470  0.2313  0.4445 -0.4435
 4901TIP3    H136194   1.692   4.360  12.443 -0.1892  0.6662  0.9027
 4901TIP3    H236195   1.698   4.209  12.449 -0.7974  0.6450  1.0488
 4902TIP3   OH236196   5.820   2.872  16.441  0.1125  0.3753  0.0762
 4902TIP3    H136197   5.869   2.836  16.367  0.5280  2.0513 -0.5056
 4902TIP3    H236198   5.756   2.804  16.462  0.6429 -0.5556 -1.1595
 4903TIP3   OH236199   1.106   2.611   4.447 -0.2857  0.6953 -0.5395
 4903TIP3    H136200   1.169   2.628   4.377 -0.2401 -0.6390 -0.8622
 4903TIP3    H236201   1.073   2.523   4.428  1.1956 -0.5739  2.1707
 4904TIP3   OH236202   3.002   5.126  14.241  0.6530  0.3919 -0.1925
 4904TIP3    H136203   2.980   5.123  14.334 -1.8523  1.2570 -0.6836
 4904TIP3    H236204   3.008   5.219  14.220  0.1040  0.2312 -1.1195
 4905TIP3   OH236205   2.394   5.182   2.273 -0.2773 -0.2821 -0.4354
 4905TIP3    H136206   2.308   5.158   2.237 -0.8671 -1.0379  1.3589
 4905TIP3    H236207   2.456   5.128   2.225 -0.6090  1.1482 -2.6200
 4906TIP3   OH236208   3.889   1.647   2.799 -0.3726  0.3877 -0.0335
 4906TIP3    H136209   3.981   1.653   2.773 -0.0355  0.6207  1.1361
 4906TIP3    H236210   3.853   1.733   2.777  0.9813  2.2554  3.9665
 4907TIP3   OH236211   0.587   4.554  11.165  0.5044  0.7879  0.2976
 4907TIP3    H136212   0.497   4.580  11.145  1.1665  1.6844 -1.8120
 4907TIP3    H236213   0.634   4.636  11.176  1.2952  0.3446  0.2791
 4908TIP3   OH236214   5.826   0.780  17.199  0.4889 -0.0819 -0.1518
 4908TIP3    H136215   5.880   0.838  17.145  1.2399 -0.9732 -0.3690
 4908TIP3    H236216   5.840   0.810  17.289  0.6177  0.2743 -0.2891
 4909TIP3   OH236217   3.210   4.056   0.425 -0.4142 -0.3340 -0.7287
 4909TIP3    H136218   3.186   4.142   0.390 -0.3446  1.1115  2.4346
 4909TIP3    H236219   3.271   4.020   0.361  0.3736  2.4369 -1.6752
 4910TIP3   OH236220   4.695   4.732   5.636  0.4708 -0.3384 -0.3127
 4910TIP3    H136221   4.761   4.791   5.599  0.7294 -0.6027 -0.2811
 4910TIP3    H236222   4.728   4.644   5.616 -0.6460 -0.4759 -1.6367
 4911TIP3   OH236223   2.504   2.675   5.140  0.0434 -0.7667  0.6503
 4911TIP3    H136224   2.442   2.677   5.066  1.2823 -0.3802 -0.4129
 4911TIP3    H236225   2.478   2.750   5.194  1.1813  1.0716 -1.1903
 4912TIP3   OH236226   3.726   6.090   0.011 -0.0316  0.2803 -0.0191
 4912TIP3    H136227   3.726   5.995   0.010 -1.4266  0.2177  1.6505
 4912TIP3    H236228   3.640   6.115  -0.023 -0.0919  0.9018  0.5597
 4913TIP3   OH236229   0.351   0.105   2.314 -0.1898 -0.0312  0.0325
 4913TIP3    H136230   0.405   0.152   2.250 -0.6622  2.7720  1.5344
 4913TIP3    H236231   0.278   0.164   2.332 -1.1691 -1.6343  1.6108
 4914TIP3   OH236232   0.859   0.762  11.497  0.0181 -0.3201 -0.7125
 4914TIP3    H136233   0.804   0.702  11.548 -1.5662  0.5842 -1.3033
 4914TIP3    H236234   0.949   0.733  11.516 -0.6281 -1.7927  0.3390
 4915TIP3   OH236235   4.021   3.631   2.426  0.1151  0.1714 -0.3789
 4915TIP3    H136236   4.072   3.613   2.346  1.7878  1.6189  0.2895
 4915TIP3    H236237   4.052   3.565   2.489  0.6679  0.6016 -0.1902
 4916TIP3   OH236238   1.148   4.474  11.807 -0.3716  0.7382  0.1244
 4916TIP3    H136239   1.134   4.477  11.712  0.8211  0.0055 -0.0897
 4916TIP3    H236240   1.222   4.534  11.822  0.4756 -0.3363  0.3683
 4917TIP3   OH236241   5.614   3.946  11.991  0.1564 -0.5475 -0.2678
 4917TIP3    H136242   5.524   3.959  11.962  0.0231  0.1986  0.4464
 4917TIP3    H236243   5.615   3.978  12.081  0.9543 -1.2735 -0.0057
 4918TIP3   OH236244   6.714   3.926   1.793 -0.1771  0.5134  0.5581
 4918TIP3    H136245   6.701   4.019   1.814  1.3764  0.3943  2.2781
 4918TIP3    H236246   6.799   3.923   1.751 -1.1887  0.0921 -1.6073
 4919TIP3   OH236247   2.140   4.709   4.252  0.4141  0.3497  0.6908
 4919TIP3    H136248   2.169   4.688   4.341 -0.4794  0.4235  1.0121
 4919TIP3    H236249   2.070   4.773   4.265  1.4785  1.7557 -0.1570
 4920TIP3   OH236250   1.016   4.231   0.275  0.1214  0.3198  0.2137
 4920TIP3    H136251   0.954   4.163   0.248 -0.2725  1.0859 -0.9221
 4920TIP3    H236252   1.091   4.183   0.309  0.6742 -0.7880 -2.3330
 4921TIP3   OH236253   5.205   0.794   2.634 -0.7039 -0.7509  0.2719
 4921TIP3    H136254   5.234   0.705   2.611 -0.5023 -0.8641  0.9417
 4921TIP3    H236255   5.170   0.785   2.722  2.3056  0.4379  1.7249
 4922TIP3   OH236256   2.325   1.260  12.510  0.2891 -0.1888 -0.3167
 4922TIP3    H136257   2.315   1.327  12.442 -2.8442 -1.1332 -0.9680
 4922TIP3    H236258   2.341   1.179  12.461 -0.2487 -0.5972  0.1693
 4923TIP3   OH236259   4.173   4.728   1.685  0.4995 -0.3275  0.0857
 4923TIP3    H136260   4.264   4.703   1.699  0.2717 -1.2824 -0.1101
 4923TIP3    H236261   4.176   4.824   1.676  1.3030 -0.2028  1.4330
 4924TIP3   OH236262   3.399   5.747  12.073  0.0495  0.2423 -0.2035
 4924TIP3    H136263   3.486   5.748  12.031  1.7354 -1.6753  2.8608
 4924TIP3    H236264   3.351   5.817  12.029  3.3839  1.9241 -1.5958
 4925TIP3   OH236265   1.676   5.363   3.083 -0.3553  0.2663  0.3267
 4925TIP3    H136266   1.705   5.429   3.146 -0.5975 -0.6933  1.4969
 4925TIP3    H236267   1.592   5.395   3.050 -2.2864 -1.0210  3.5320
 4926TIP3   OH236268   4.296   1.532  15.678 -0.4974 -0.0890 -0.4025
 4926TIP3    H136269   4.314   1.626  15.669  1.3343 -0.5640 -2.7464
 4926TIP3    H236270   4.374   1.497  15.720 -1.2230 -0.6045  0.5651
 4927TIP3   OH236271   4.811   1.014   0.755  0.9078  0.2718 -0.2870
 4927TIP3    H136272   4.903   1.027   0.732  1.3641 -0.7094  0.9165
 4927TIP3    H236273   4.776   0.962   0.682  1.0020  1.5474 -1.2820
 4928TIP3   OH236274   2.582   2.696   5.667 -0.3975 -0.2370 -0.0462
 4928TIP3    H136275   2.657   2.723   5.720 -0.1141  1.5888 -1.2697
 4928TIP3    H236276   2.597   2.604   5.649 -1.0592 -1.3059  3.8624
 4929TIP3   OH236277   1.436   2.685   2.565 -0.3052 -0.3510 -0.2882
 4929TIP3    H136278   1.395   2.688   2.478  0.2499  0.5529 -0.5353
 4929TIP3    H236279   1.368   2.716   2.624 -1.0959 -2.1157 -0.2026
 4930TIP3   OH236280   1.511   2.409   4.944  0.6140 -0.3856  0.0138
 4930TIP3    H136281   1.590   2.432   4.993  1.3676  0.7691 -1.6484
 4930TIP3    H236282   1.439   2.444   4.997  1.4237  1.2132  0.1108
 4931TIP3   OH236283   0.968   4.293  16.372  0.7831  0.2479  0.6528
 4931TIP3    H136284   0.993   4.386  16.371 -0.9029  0.7235  0.0834
 4931TIP3    H236285   0.907   4.286  16.446  0.5718 -0.3254  0.4250
 4932TIP3   OH236286   3.394   3.516  15.890 -0.1924  0.2470  0.0842
 4932TIP3    H136287   3.419   3.434  15.849 -0.9567  1.1124 -2.2720
 4932TIP3    H236288   3.474   3.569  15.890 -0.2751  0.3831 -0.7082
 4933TIP3   OH236289   3.033   2.326  15.448  0.2712  0.2239  0.4729
 4933TIP3    H136290   3.008   2.396  15.509  2.5360  1.0496  0.5606
 4933TIP3    H236291   2.950   2.291  15.416 -0.9543  1.5393  2.0209
 4934TIP3   OH236292   3.920   4.649   2.526  0.1907 -0.4587  0.3860
 4934TIP3    H136293   3.940   4.689   2.441  1.0059  0.2353  0.8817
 4934TIP3    H236294   3.973   4.699   2.589 -1.0662 -0.3833  1.4242
 4935TIP3   OH236295   0.966   5.597   0.277  0.2899 -0.1510  0.2827
 4935TIP3    H136296   0.998   5.545   0.204 -2.5584 -2.0651  0.2462
 4935TIP3    H236297   1.043   5.613   0.331  2.0875 -0.4042 -2.0623
 4936TIP3   OH236298   1.811   1.382   1.560 -0.1345  0.1946 -0.3941
 4936TIP3    H136299   1.775   1.321   1.624  0.2054 -0.2411 -0.6202
 4936TIP3    H236300   1.821   1.464   1.608  2.8508 -0.8395  0.9643
 4937TIP3   OH236301   6.521   5.351   0.056  0.6441 -0.3429 -0.1857
 4937TIP3    H136302   6.492   5.275   0.004 -1.4552  0.5695 -0.4530
 4937TIP3    H236303   6.604   5.377   0.017  0.6099 -1.5391 -1.1096
 4938TIP3   OH236304   2.629   6.403  17.148 -0.2371  0.0381  0.8149
 4938TIP3    H136305   2.613   6.331  17.209 -0.1577 -0.4741  0.2337
 4938TIP3    H236306   2.684   6.464  17.198 -0.1703 -0.3726  1.2564
 4939TIP3   OH236307   5.475   1.291   2.175 -0.0950 -0.0968 -0.2708
 4939TIP3    H136308   5.516   1.356   2.118  1.0743  0.1895  0.8495
 4939TIP3    H236309   5.403   1.337   2.217  0.0215  0.1474 -0.3390
 4940TIP3   OH236310   4.836   1.635  14.488 -0.2093 -0.2785  0.2384
 4940TIP3    H136311   4.928   1.635  14.463 -0.2738 -0.2268  0.0043
 4940TIP3    H236312   4.814   1.542  14.500 -0.5372 -0.4091 -1.2066
 4941TIP3   OH236313   0.676   2.946  13.804  0.1362  0.1201 -0.1450
 4941TIP3    H136314   0.596   2.997  13.801 -0.4987 -0.8584 -0.1734
 4941TIP3    H236315   0.742   3.002  13.763 -0.6092  0.7829 -0.4547
 4942TIP3   OH236316   0.651   1.660  16.964  0.7777 -0.1971  0.5219
 4942TIP3    H136317   0.573   1.626  17.009  0.7228 -1.2148 -0.3048
 4942TIP3    H236318   0.719   1.595  16.983  0.9504 -0.2374 -0.2296
 4943TIP3   OH236319   4.432   3.536   3.002 -0.5362 -0.1400  0.1683
 4943TIP3    H136320   4.359   3.598   2.999 -0.9340 -0.6206 -0.1517
 4943TIP3    H236321   4.478   3.558   3.084 -0.3492  0.9274 -0.2006
 4944TIP3   OH236322   1.023   1.964   3.342 -0.3640  0.3906  0.5390
 4944TIP3    H136323   1.076   1.885   3.330 -1.1542 -0.1587  0.6251
 4944TIP3    H236324   1.074   2.017   3.403 -0.1953 -0.3959  1.0979
 4945TIP3   OH236325   0.190   6.763  12.337 -0.1660  0.0822 -0.5119
 4945TIP3    H136326   0.191   6.679  12.291  0.3320 -0.2201  0.0295
 4945TIP3    H236327   0.110   6.761  12.389  0.7630 -0.9090  0.9753
 4946TIP3   OH236328   0.001   6.191   2.918  0.1817  0.4142  0.6213
 4946TIP3    H136329  -0.031   6.254   2.982 -0.0659  2.2983 -1.2386
 4946TIP3    H236330   0.097   6.199   2.922  0.2760 -0.9970  2.1383
 4947TIP3   OH236331   5.411   1.688  15.163 -0.0549 -0.2000 -0.3397
 4947TIP3    H136332   5.350   1.625  15.201 -1.6531  0.5579 -1.5070
 4947TIP3    H236333   5.408   1.670  15.069  0.0972  1.0470 -0.6020
 4948TIP3   OH236334   3.446   0.329   0.251  0.0918  0.0515  0.1814
 4948TIP3    H136335   3.443   0.298   0.341  1.2527 -0.6947 -0.0017
 4948TIP3    H236336   3.469   0.422   0.258 -0.1957  0.0896  0.6558
 4949TIP3   OH236337   0.898   5.224   5.968  0.1119 -0.2784 -0.1832
 4949TIP3    H136338   0.979   5.180   5.943  0.3264  0.2388 -0.4153
 4949TIP3    H236339   0.829   5.174   5.925  0.3357 -0.5023 -0.2854
 4950TIP3   OH236340   6.752   1.128   1.588  0.0997  0.3054  0.1257
 4950TIP3    H136341   6.775   1.221   1.591  0.4917  0.2520 -0.7102
 4950TIP3    H236342   6.662   1.124   1.621  0.0653  0.9890  0.1337
 4951TIP3   OH236343   3.580   2.962  13.984  0.4592  0.5257  0.1644
 4951TIP3    H136344   3.585   2.906  14.061 -0.8508  0.1565  0.0087
 4951TIP3    H236345   3.625   2.914  13.915  0.9735  0.5158  0.5080
 4952TIP3   OH236346   6.546   0.533  14.270 -0.1714  0.0789 -0.2348
 4952TIP3    H136347   6.588   0.479  14.337 -1.5749  0.3626  0.9421
 4952TIP3    H236348   6.476   0.477  14.235  0.8459 -0.2364 -1.8401
 4953TIP3   OH236349   1.191   0.227  13.196  0.2553  0.0876  0.4171
 4953TIP3    H136350   1.264   0.166  13.209  1.5551  1.3565 -0.5227
 4953TIP3    H236351   1.165   0.213  13.105  1.1970  1.5103 -0.1158
 4954TIP3   OH236352   1.926   3.504  15.077 -0.5705  0.7916  0.2924
 4954TIP3    H136353   1.958   3.418  15.103 -0.7534  0.8223  0.6358
 4954TIP3    H236354   1.867   3.487  15.004  0.7519  0.8052 -0.8039
 4955TIP3   OH236355   4.366   3.237  15.101 -0.2072 -0.1853  0.0584
 4955TIP3    H136356   4.293   3.223  15.040  1.0321 -1.5010 -1.2131
 4955TIP3    H236357   4.388   3.329  15.092 -1.1500  0.0315 -0.1701
 4956TIP3   OH236358   4.006   4.732   5.274  1.0112  0.4235 -0.5180
 4956TIP3    H136359   4.047   4.742   5.360  0.2455  0.9638 -0.2123
 4956TIP3    H236360   4.000   4.821   5.239  0.8577  0.2586 -0.9207
 4957TIP3   OH236361   6.737   5.550  15.479 -0.1355  0.5372 -0.2395
 4957TIP3    H136362   6.727   5.464  15.519 -2.3432  0.4356 -0.8478
 4957TIP3    H236363   6.648   5.576  15.455  0.2762  3.5350  0.9731
 4958TIP3   OH236364   2.812   5.228   1.214 -0.9570 -0.4086 -0.2939
 4958TIP3    H136365   2.827   5.138   1.185  1.5620 -0.2017  0.1322
 4958TIP3    H236366   2.818   5.223   1.309  1.8454  0.4934 -0.3179
 4959TIP3   OH236367   2.536   4.454  17.137  0.2021  0.4581  0.6197
 4959TIP3    H136368   2.450   4.492  17.155  0.0644 -0.2844  1.6019
 4959TIP3    H236369   2.529   4.364  17.166  1.6428  0.6704  1.7367
 4960TIP3   OH236370   2.546   3.967   4.362  0.3681  0.0836  0.1825
 4960TIP3    H136371   2.484   3.898   4.337  1.9423 -1.7260  0.9921
 4960TIP3    H236372   2.608   3.923   4.420  1.1361  2.3516  1.1934
 4961TIP3   OH236373   6.507   6.149   3.106  0.4894 -0.6613  0.2699
 4961TIP3    H136374   6.592   6.135   3.148  1.1150  0.3546 -0.6008
 4961TIP3    H236375   6.515   6.235   3.065 -0.3422 -1.2809 -1.2689
 4962TIP3   OH236376   1.057   4.705  15.474 -0.5460 -0.1848 -0.4882
 4962TIP3    H136377   0.964   4.687  15.479 -0.1975 -2.3073 -0.7907
 4962TIP3    H236378   1.079   4.746  15.558 -1.7613  0.5013 -0.4920
 4963TIP3   OH236379   0.354   1.146   2.753 -0.1182  0.0250  0.8640
 4963TIP3    H136380   0.285   1.107   2.700  0.4498 -1.3367  1.0953
 4963TIP3    H236381   0.384   1.221   2.702 -0.8982 -0.1156  0.1808
 4964TIP3   OH236382   3.459   4.371   3.711  0.4582 -0.4825  0.1717
 4964TIP3    H136383   3.497   4.452   3.677  1.2119 -0.0670  1.8963
 4964TIP3    H236384   3.404   4.339   3.639  2.5718 -0.1155 -1.7383
 4965TIP3   OH236385   4.369   5.796  16.118  0.2597  0.5203  0.3724
 4965TIP3    H136386   4.454   5.756  16.135  0.0309  0.1878  0.7316
 4965TIP3    H236387   4.349   5.771  16.028 -0.3513 -1.0440  0.9181
 4966TIP3   OH236388   4.054   0.044  12.132 -0.0350 -0.3512  0.4631
 4966TIP3    H136389   3.994   0.106  12.091  1.2832 -0.0906 -1.1831
 4966TIP3    H236390   4.000  -0.033  12.151 -0.8176 -0.3163 -1.4260
 4967TIP3   OH236391   0.970   6.485  15.690  0.9707 -0.1312 -0.1538
 4967TIP3    H136392   0.941   6.562  15.739  0.7025 -0.6700  0.5602
 4967TIP3    H236393   1.065   6.492  15.687  1.2231 -1.2120  2.4582
 4968TIP3   OH236394   6.410   2.268   3.371 -0.6038  0.7247 -0.1715
 4968TIP3    H136395   6.444   2.256   3.282 -1.4828 -1.7483 -0.2666
 4968TIP3    H236396   6.332   2.213   3.374 -1.4814  1.9844  1.6827
 4969TIP3   OH236397   3.876   3.851  10.662 -0.1152 -0.4793 -0.1785
 4969TIP3    H136398   3.824   3.771  10.666 -0.4764 -0.4336 -2.6862
 4969TIP3    H236399   3.822   3.917  10.707 -0.0836 -1.4562  1.3579
 4970TIP3   OH236400   5.428   5.694   1.597 -0.0924  0.5568 -0.5712
 4970TIP3    H136401   5.524   5.699   1.594 -0.0220  1.0232  1.1157
 4970TIP3    H236402   5.409   5.667   1.687 -1.5441  0.0402 -1.0121
 4971TIP3   OH236403   3.757   3.975   5.570  0.0526 -0.0691 -0.2091
 4971TIP3    H136404   3.728   3.999   5.482  0.9797 -2.0169 -1.1326
 4971TIP3    H236405   3.682   3.929   5.608  0.0111 -0.1763 -0.4163
 4972TIP3   OH236406   4.730   2.569  11.287  0.2767 -0.3627  0.3948
 4972TIP3    H136407   4.824   2.555  11.274  0.3503  1.3700 -1.6170
 4972TIP3    H236408   4.705   2.506  11.354  2.5345 -2.0878 -0.2451
 4973TIP3   OH236409   1.144   5.143  10.888  0.8005 -0.2784 -0.0487
 4973TIP3    H136410   1.095   5.174  10.812  0.2727 -1.1041 -0.0595
 4973TIP3    H236411   1.197   5.071  10.854  1.9690  0.5448 -0.0162
 4974TIP3   OH236412   5.402   2.382  10.600  0.0272  0.5962 -0.3521
 4974TIP3    H136413   5.480   2.368  10.652 -0.3944 -0.4905  0.0182
 4974TIP3    H236414   5.432   2.378  10.509  0.4273  0.3931 -0.2124
 4975TIP3   OH236415   6.430   5.175   5.514 -0.1875  0.1912  0.1167
 4975TIP3    H136416   6.408   5.125   5.593 -1.2813  0.3987 -0.0532
 4975TIP3    H236417   6.352   5.226   5.494  0.5099  1.1012 -0.3912
 4976TIP3   OH236418   3.936   3.765  16.478 -0.4735 -0.0503  0.2200
 4976TIP3    H136419   3.994   3.726  16.544 -1.3574  1.2992  1.8685
 4976TIP3    H236420   3.876   3.694  16.454 -1.0157 -0.2091  1.9229
 4977TIP3   OH236421   1.832   4.179  12.809 -0.6205  0.2177 -0.3193
 4977TIP3    H136422   1.884   4.208  12.734  1.0632  0.0224  0.7172
 4977TIP3    H236423   1.820   4.085  12.795  2.3181 -0.4764  1.0602
 4978TIP3   OH236424   3.533   5.809  13.918  0.2992  0.7428 -0.0677
 4978TIP3    H136425   3.506   5.720  13.896  0.2239  0.8821 -0.5494
 4978TIP3    H236426   3.509   5.861  13.842  0.6932  1.1096  0.0548
 4979TIP3   OH236427   4.135   5.445   2.226  0.3419 -0.0751  0.2306
 4979TIP3    H136428   4.065   5.502   2.193 -0.5009 -1.0341  0.3321
 4979TIP3    H236429   4.122   5.445   2.321  1.8195  1.4487  0.4777
 4980TIP3   OH236430   3.651   6.413  16.783 -0.2134  0.1478  0.2895
 4980TIP3    H136431   3.692   6.486  16.830 -1.5475  1.3475 -0.3298
 4980TIP3    H236432   3.577   6.387  16.837 -2.5827  2.4208 -1.5844
 4981TIP3   OH236433   1.514   6.217   2.603  0.1858 -0.2839  0.3611
 4981TIP3    H136434   1.451   6.145   2.593  1.2638 -1.0568 -1.3528
 4981TIP3    H236435   1.597   6.181   2.571  0.6613  1.8214 -0.9879
 4982TIP3   OH236436   3.962   4.708  13.270 -0.2085 -0.0660 -0.3330
 4982TIP3    H136437   3.912   4.646  13.217  0.3322 -1.7174  1.0145
 4982TIP3    H236438   4.048   4.667  13.281 -1.0055 -1.0503  3.7798
 4983TIP3   OH236439   3.986   0.673   3.709  0.2586 -0.0733  0.0542
 4983TIP3    H136440   3.893   0.688   3.721  0.0783  0.5351 -1.8537
 4983TIP3    H236441   3.999   0.582   3.737 -0.6147  0.2636  1.6618
 4984TIP3   OH236442   5.782   3.323   5.115 -0.0591 -0.1407  0.0794
 4984TIP3    H136443   5.814   3.406   5.081 -3.1275 -0.0064 -3.1106
 4984TIP3    H236444   5.857   3.264   5.111  1.3877  1.6762 -0.5964
 4985TIP3   OH236445   0.302   2.152  15.066  0.2274  0.0971 -0.8723
 4985TIP3    H136446   0.311   2.062  15.094 -1.0341  0.3775  0.5895
 4985TIP3    H236447   0.262   2.146  14.979 -2.1296 -0.7806  0.1814
 4986TIP3   OH236448   6.723   0.635  16.998 -0.1954 -0.7107 -0.1375
 4986TIP3    H136449   6.797   0.687  17.030 -0.1942 -1.0971  0.5275
 4986TIP3    H236450   6.744   0.618  16.906 -0.4008  0.7810 -0.4824
 4987TIP3   OH236451   1.350   2.674  16.925 -0.1743 -0.4195 -0.4442
 4987TIP3    H136452   1.314   2.760  16.949  1.2104 -0.3683  1.7559
 4987TIP3    H236453   1.445   2.687  16.924  0.0524 -1.8986 -0.1738
 4988TIP3   OH236454   2.214   5.914   1.978  0.2025 -0.8141 -0.0483
 4988TIP3    H136455   2.241   5.878   2.063 -0.0192 -0.3374  0.2265
 4988TIP3    H236456   2.202   6.007   1.994 -1.0945 -0.9208 -0.2867
 4989TIP3   OH236457   5.032   1.241   3.965  0.3602 -0.4393  0.0103
 4989TIP3    H136458   5.017   1.285   3.881  0.1924  2.0822  1.2707
 4989TIP3    H236459   4.946   1.203   3.988  0.3491 -0.9310 -0.8206
 4990TIP3   OH236460   4.745   5.247  14.680  0.6512  0.6394  0.0719
 4990TIP3    H136461   4.766   5.177  14.742 -0.2861 -1.5491 -1.8890
 4990TIP3    H236462   4.806   5.233  14.608 -1.9888 -0.7165 -2.0809
 4991TIP3   OH236463   3.087   3.782   1.032  0.3630 -0.1294  0.4122
 4991TIP3    H136464   3.001   3.770   0.991  0.6315  1.7427 -0.8037
 4991TIP3    H236465   3.068   3.826   1.115  0.0305 -1.6428  1.1893
 4992TIP3   OH236466   4.099   4.218   1.412  0.0315  0.5148 -0.1086
 4992TIP3    H136467   4.150   4.185   1.338  1.2686  0.5441  0.7035
 4992TIP3    H236468   4.030   4.153   1.424  0.1135  0.2515 -0.9691
 4993TIP3   OH236469   6.566   5.839  11.259 -0.6281 -0.0621  0.6278
 4993TIP3    H136470   6.489   5.835  11.202 -0.3253 -1.9401  0.2948
 4993TIP3    H236471   6.640   5.839  11.199 -0.2867 -2.6933  0.9578
 4994TIP3   OH236472   5.488   6.086  16.586 -0.7685 -0.1626  0.1422
 4994TIP3    H136473   5.506   6.021  16.654  0.4139 -0.0267 -0.0266
 4994TIP3    H236474   5.437   6.154  16.631  1.9913  1.1374  1.5861
 4995TIP3   OH236475   3.716   1.491   5.866 -0.1592  0.1243  0.3283
 4995TIP3    H136476   3.795   1.529   5.904 -0.2353 -0.4815  1.1273
 4995TIP3    H236477   3.746   1.430   5.799  0.2053 -1.7991  2.1321
 4996TIP3   OH236478   3.018   5.632  15.404  0.2838  0.0359 -0.0989
 4996TIP3    H136479   3.008   5.638  15.309  0.1833  0.9697 -0.0395
 4996TIP3    H236480   2.963   5.703  15.438  0.5047 -0.1433  0.6466
 4997TIP3   OH236481   3.088   3.682  12.180  0.3553  0.5481 -0.0640
 4997TIP3    H136482   3.143   3.759  12.186 -1.3727  1.7718  3.3364
 4997TIP3    H236483   3.012   3.710  12.130 -0.0234  0.9465  0.7102
 4998TIP3   OH236484   6.680   3.673  15.451 -0.6156  0.5029 -0.5166
 4998TIP3    H136485   6.742   3.693  15.380 -0.7166  1.6553 -0.2982
 4998TIP3    H236486   6.594   3.680  15.409 -0.7058  1.9070 -0.1311
 4999TIP3   OH236487   1.660   6.272   1.765  0.9349  0.4276 -0.3681
 4999TIP3    H136488   1.584   6.217   1.787  1.5154 -0.3137 -0.1869
 4999TIP3    H236489   1.664   6.336   1.837  0.4091  0.5571 -0.4461
 5000TIP3   OH236490   6.498   1.825   1.447 -0.1823  0.1781 -0.1773
 5000TIP3    H136491   6.500   1.743   1.399  1.8112 -0.3177  0.6389
 5000TIP3    H236492   6.507   1.893   1.380  1.9218 -0.4645 -0.6237
 5001TIP3   OH236493   3.038   5.956   1.926  0.0594  0.1059  0.3023
 5001TIP3    H136494   3.008   5.965   2.016 -0.2004  0.1747  0.2082
 5001TIP3    H236495   2.976   6.007   1.874  1.3673  1.7945  0.2951
 5002TIP3   OH236496   2.895   3.324   0.671 -0.1171 -0.0806 -0.2758
 5002TIP3    H136497   2.818   3.375   0.648 -0.2911 -0.6498 -0.9699
 5002TIP3    H236498   2.888   3.313   0.766 -0.4567  0.5612 -0.2216
 5003TIP3   OH236499   5.830   6.667   4.114 -0.1884  0.6358  0.3790
 5003TIP3    H136500   5.780   6.651   4.193 -3.5781  0.8020 -1.5413
 5003TIP3    H236501   5.789   6.744   4.074  1.2775  0.4616 -1.6173
 5004TIP3   OH236502   0.015   1.437  14.021  0.5016 -0.3745  0.2065
 5004TIP3    H136503  -0.052   1.403  13.961  0.1842  0.9641 -0.2430
 5004TIP3    H236504  -0.034   1.481  14.090  0.8629  1.6074 -0.7174
 5005TIP3   OH236505   1.895   1.100   5.971  0.1454 -0.4853  0.2604
 5005TIP3    H136506   1.985   1.109   6.000 -0.2615 -1.1426  1.8236
 5005TIP3    H236507   1.858   1.033   6.028 -0.8541 -1.5098 -1.5037
 5006TIP3   OH236508   0.403   1.662  14.441 -0.4260  0.2723 -0.5156
 5006TIP3    H136509   0.468   1.684  14.508 -1.3079 -0.1395  0.4969
 5006TIP3    H236510   0.397   1.566  14.444 -0.7305  0.2775 -0.9240
 5007TIP3   OH236511   2.547   2.413  10.619  0.2913  0.1165 -0.1842
 5007TIP3    H136512   2.503   2.487  10.578  0.6324  0.2070 -0.4002
 5007TIP3    H236513   2.479   2.347  10.630  0.1357  0.1933 -0.6591
 5008TIP3   OH236514   1.144   0.269  15.881 -0.0896 -0.2591  0.1596
 5008TIP3    H136515   1.056   0.252  15.848  0.9328  0.2152 -3.1451
 5008TIP3    H236516   1.148   0.365  15.889 -0.6263 -0.3656  2.9878
 5009TIP3   OH236517   0.848   5.729   3.989  0.5667 -0.2302 -0.2506
 5009TIP3    H136518   0.896   5.811   3.993  0.7601 -0.2551 -1.5187
 5009TIP3    H236519   0.816   5.715   4.078  0.6312  1.1486  0.0086
 5010TIP3   OH236520   0.468   4.250  12.407  0.2742  0.2847  0.0237
 5010TIP3    H136521   0.549   4.291  12.377  1.0514  0.0192  1.6500
 5010TIP3    H236522   0.487   4.156  12.408  0.4010  0.2975  1.5680
 5011TIP3   OH236523   1.114   5.049   1.490  0.1463 -0.4605 -0.2008
 5011TIP3    H136524   1.118   4.957   1.463  0.2876 -0.5298  0.0510
 5011TIP3    H236525   1.206   5.074   1.503  0.1896  0.0402 -1.3489
 5012TIP3   OH236526   6.210   2.579  12.598 -0.0271 -0.3688 -0.3052
 5012TIP3    H136527   6.216   2.674  12.604 -2.4007 -0.0975 -1.0611
 5012TIP3    H236528   6.260   2.547  12.673  1.6053  1.4110 -0.5674
 5013TIP3   OH236529   3.737   2.621  11.809 -0.2653  0.1935 -0.4635
 5013TIP3    H136530   3.758   2.564  11.883 -2.1680 -1.9125 -1.4482
 5013TIP3    H236531   3.819   2.628  11.760  0.3407 -0.5817  0.4102
 5014TIP3   OH236532   4.098   5.491   4.285 -0.0646 -0.0699  0.0265
 5014TIP3    H136533   4.031   5.523   4.224  0.1179 -2.6341 -1.6781
 5014TIP3    H236534   4.050   5.475   4.366 -1.1483 -0.1888 -0.6094
 5015TIP3   OH236535   4.959   1.514   1.687 -0.0760 -0.5145  0.2017
 5015TIP3    H136536   4.970   1.563   1.768  0.0777  1.3952 -0.9129
 5015TIP3    H236537   5.019   1.440   1.696  0.4284  0.0252  1.5561
 5016TIP3   OH236538   6.154   2.709  16.210 -0.5820 -0.4672 -0.5309
 5016TIP3    H136539   6.181   2.739  16.297 -0.7913 -0.4699 -0.4642
 5016TIP3    H236540   6.172   2.615  16.210  2.0582 -0.0477 -1.4678
 5017TIP3   OH236541   1.722   6.152   2.205  0.7105 -0.1010 -0.6370
 5017TIP3    H136542   1.806   6.120   2.235  0.3654 -1.1201 -0.7223
 5017TIP3    H236543   1.743   6.222   2.143  1.4600  0.5424  0.3377
 5018TIP3   OH236544   3.010   6.131  15.555  0.4154  0.0638 -0.0329
 5018TIP3    H136545   2.921   6.158  15.579  0.1805 -0.7202  0.0015
 5018TIP3    H236546   3.067   6.193  15.601 -0.1165  0.7685 -0.3112
 5019TIP3   OH236547   2.776   4.826  12.005 -0.1768 -0.2413 -0.2571
 5019TIP3    H136548   2.752   4.849  12.095 -1.9663 -0.3147 -0.6778
 5019TIP3    H236549   2.802   4.734  12.009  2.2756  0.4061  0.5847
 5020TIP3   OH236550   1.988   6.813  15.414 -0.1827 -0.5514 -0.0411
 5020TIP3    H136551   1.916   6.860  15.456  0.4687 -0.4137  0.9602
 5020TIP3    H236552   2.047   6.792  15.486  0.4395 -1.2721 -0.7537
 5021TIP3   OH236553   3.551   0.861  16.802  0.4998  0.0257 -0.3464
 5021TIP3    H136554   3.490   0.861  16.728  2.3332  1.8274 -1.9630
 5021TIP3    H236555   3.623   0.918  16.775  1.4098  0.5451  2.7427
 5022TIP3   OH236556   5.069   4.387   2.039  0.5583  0.1506  0.2577
 5022TIP3    H136557   5.004   4.388   1.968  0.2296  0.1387  0.5587
 5022TIP3    H236558   5.034   4.326   2.103  0.3746  0.9073  0.8826
 5023TIP3   OH236559   1.434   2.967   2.419  0.4591 -0.1276  0.4314
 5023TIP3    H136560   1.525   2.969   2.392  0.3182  0.4036 -0.0434
 5023TIP3    H236561   1.395   2.896   2.368  0.0318  1.3268 -1.3943
 5024TIP3   OH236562   0.249   4.090   3.512  0.0693 -0.3719 -0.1346
 5024TIP3    H136563   0.304   4.151   3.463 -1.3647  0.6310 -0.5623
 5024TIP3    H236564   0.201   4.042   3.444  1.3510 -2.2229  0.1763
 5025TIP3   OH236565   4.060   4.257  11.960 -0.2008  0.1429  0.0541
 5025TIP3    H136566   4.064   4.334  12.016  1.2431 -0.2809  0.5755
 5025TIP3    H236567   3.978   4.214  11.985 -0.4468  0.8882  0.5714
 5026TIP3   OH236568   4.591   5.959   3.687  0.6614  0.4090  0.2422
 5026TIP3    H136569   4.674   5.915   3.706 -0.1606 -1.1568  0.3086
 5026TIP3    H236570   4.548   5.967   3.771 -0.5731 -1.5710 -0.1493
 5027TIP3   OH236571   4.949   0.448   1.192  0.0202  0.5686 -0.2549
 5027TIP3    H136572   5.026   0.492   1.157  0.8618  0.4075  1.2788
 5027TIP3    H236573   4.909   0.514   1.249  0.6696 -0.2393  1.1916
 5028TIP3   OH236574   2.974   3.908   1.474 -0.3221  0.2896  0.4093
 5028TIP3    H136575   2.965   4.002   1.467  1.7131  0.4244 -1.3454
 5028TIP3    H236576   3.067   3.894   1.492 -0.6792 -1.3730  1.2046
 5029TIP3   OH236577   6.389   2.504   2.587  0.1382 -0.2978 -0.1863
 5029TIP3    H136578   6.412   2.568   2.520 -0.6284  1.4862  1.1740
 5029TIP3    H236579   6.294   2.501   2.586  0.0997 -0.0035  1.0086
 5030TIP3   OH236580   0.774   0.218  15.382 -0.0413 -0.8243 -0.0511
 5030TIP3    H136581   0.795   0.309  15.403 -0.6887 -1.0049  1.5009
 5030TIP3    H236582   0.839   0.166  15.430 -1.0547 -1.2269  0.9363
 5031TIP3   OH236583   3.623   1.983  12.282  0.3102  0.5342 -0.3529
 5031TIP3    H136584   3.710   2.019  12.269  1.1839  0.2531  3.5305
 5031TIP3    H236585   3.627   1.895  12.243  1.9153  0.3612  0.1411
 5032TIP3   OH236586   1.893   0.091  16.870 -0.0767  0.2672  0.1764
 5032TIP3    H136587   1.823   0.076  16.807  0.2995 -2.4207  0.2763
 5032TIP3    H236588   1.967   0.121  16.816 -0.8899  1.9301 -0.0787
 5033TIP3   OH236589   5.404   2.229  16.629  0.1670 -0.1119 -0.0270
 5033TIP3    H136590   5.493   2.258  16.611  0.1746  0.4176  0.8149
 5033TIP3    H236591   5.360   2.233  16.545  0.5166  1.1221 -0.1707
 5034TIP3   OH236592   3.090   4.298  16.485  0.6366  0.6589 -0.3554
 5034TIP3    H136593   3.163   4.237  16.501  1.1028  1.2655 -0.1210
 5034TIP3    H236594   3.111   4.374  16.540 -0.6946  0.4299  0.5118
 5035TIP3   OH236595   5.896   0.413  14.807 -0.1256  0.2255 -0.6573
 5035TIP3    H136596   5.916   0.506  14.792 -0.2359 -0.1080 -3.2892
 5035TIP3    H236597   5.837   0.413  14.882  0.2805  2.2288 -0.2782
 5036TIP3   OH236598   5.174   5.258   4.637  0.7231 -0.1785  0.1469
 5036TIP3    H136599   5.202   5.182   4.688 -0.3115 -0.7834 -0.1672
 5036TIP3    H236600   5.252   5.282   4.586  0.8993 -1.3853 -0.1848
 5037TIP3   OH236601   6.337   2.013  16.477 -0.1275  0.0908 -0.4543
 5037TIP3    H136602   6.377   1.931  16.505  1.2407  0.4742 -1.2023
 5037TIP3    H236603   6.395   2.046  16.408 -1.8922  0.5505 -1.7971
 5038TIP3   OH236604   3.317   5.241  15.938  0.7151 -0.5594 -0.2823
 5038TIP3    H136605   3.279   5.325  15.915  0.0943 -0.0589  2.2284
 5038TIP3    H236606   3.248   5.177  15.920  0.4172 -0.2579 -0.2247
 5039TIP3   OH236607   3.261   3.128  11.016  0.0321 -0.1879 -0.4963
 5039TIP3    H136608   3.188   3.069  10.998  0.4006 -0.3690 -1.4673
 5039TIP3    H236609   3.298   3.096  11.098  0.2528 -1.3608 -1.0309
 5040TIP3   OH236610   2.235   1.314  14.834  0.0217  0.2826 -0.0993
 5040TIP3    H136611   2.312   1.300  14.889  0.4424 -0.8582 -0.9343
 5040TIP3    H236612   2.161   1.302  14.893  0.4664  1.0673  0.6410
 5041TIP3   OH236613   5.519   1.789  15.696  0.1932  0.3153 -0.2268
 5041TIP3    H136614   5.574   1.813  15.770 -0.7338 -0.3823  0.7131
 5041TIP3    H236615   5.580   1.765  15.627  1.0716  0.9336  0.3148
 5042TIP3   OH236616   2.267   6.277   4.445 -0.1469  0.2044  0.0915
 5042TIP3    H136617   2.360   6.276   4.421 -0.2688  2.4758 -0.6451
 5042TIP3    H236618   2.246   6.369   4.458 -1.8418 -0.4028  2.2657
 5043TIP3   OH236619   6.364   2.201   3.800 -0.5669 -0.5526 -0.0766
 5043TIP3    H136620   6.381   2.179   3.892 -1.4565  1.1608  0.5307
 5043TIP3    H236621   6.296   2.139   3.773 -0.1046 -1.2508  0.3153
 5044TIP3   OH236622   5.407   5.686   4.937  0.1860  0.5024  0.4382
 5044TIP3    H136623   5.474   5.667   4.870 -0.7781 -0.6854 -0.2260
 5044TIP3    H236624   5.353   5.754   4.897 -0.8225 -0.7135 -0.3338
 5045TIP3   OH236625   5.285   6.579  12.386  0.4423 -0.2682 -0.1363
 5045TIP3    H136626   5.301   6.616  12.299  0.5919 -0.3740 -0.1542
 5045TIP3    H236627   5.372   6.558  12.419  0.5205  1.1892  0.6676
 5046TIP3   OH236628   3.082   4.322   4.091  0.0639 -0.2042  0.0276
 5046TIP3    H136629   3.143   4.316   4.018  0.6182  0.1891  0.4531
 5046TIP3    H236630   3.086   4.413   4.118 -1.3338  0.0294 -0.4546
 5047TIP3   OH236631   5.702   0.283  16.676  0.3054 -0.0824 -0.2141
 5047TIP3    H136632   5.762   0.235  16.733  1.3291  1.5244  0.1496
 5047TIP3    H236633   5.750   0.363  16.654 -2.3615  2.2202  1.6451
 5048TIP3   OH236634   1.952   3.795  16.307  0.1166  0.3526 -0.1369
 5048TIP3    H136635   1.977   3.888  16.299  0.1149  0.3519 -0.1492
 5048TIP3    H236636   1.900   3.777  16.229 -0.2306  0.4519  0.0700
 5049TIP3   OH236637   0.564   3.244  17.057  0.4291 -0.2745 -0.1921
 5049TIP3    H136638   0.530   3.244  16.967 -0.4842 -2.2503  0.0940
 5049TIP3    H236639   0.659   3.238  17.046  0.5492  2.1747 -0.9964
 5050TIP3   OH236640   3.087   0.977  14.234 -0.5083 -0.0596  0.0820
 5050TIP3    H136641   3.003   0.953  14.195 -0.0777 -1.2822 -0.1376
 5050TIP3    H236642   3.066   0.993  14.327 -0.9079 -0.8029  0.1271
 5051TIP3   OH236643   5.822   3.852   4.966  0.8625  0.1063 -0.3074
 5051TIP3    H136644   5.731   3.849   4.994 -0.0239 -1.5494 -2.9919
 5051TIP3    H236645   5.845   3.945   4.968 -0.1323  0.3722  2.4414
 5052TIP3   OH236646   5.248   0.840   2.144 -0.6149  0.0995  0.1630
 5052TIP3    H136647   5.268   0.881   2.228 -0.7011 -0.6080  0.5424
 5052TIP3    H236648   5.319   0.776   2.132 -0.3876  0.4739 -0.4939
 5053TIP3   OH236649   1.076   4.543   5.486 -1.1131  0.0449 -0.4308
 5053TIP3    H136650   1.030   4.488   5.550 -0.1361 -0.0749  0.1854
 5053TIP3    H236651   1.082   4.488   5.407  0.2505 -0.9319  0.3167
 5054TIP3   OH236652   3.241   5.828   3.097  0.5622 -0.1257 -0.4665
 5054TIP3    H136653   3.294   5.907   3.085 -0.1220  0.4028 -0.0813
 5054TIP3    H236654   3.226   5.795   3.008  1.5066 -0.2739 -0.5833
 5055TIP3   OH236655   6.816   0.054   2.374 -0.4246  0.0521 -0.6452
 5055TIP3    H136656   6.751   0.059   2.444  0.4063  2.9793  0.0571
 5055TIP3    H236657   6.775  -0.002   2.308 -1.4383 -2.4292  1.8851
 5056TIP3   OH236658   2.491   5.394   0.229 -0.4218  0.3488  0.6156
 5056TIP3    H136659   2.521   5.371   0.317  1.5074 -0.5572 -0.2201
 5056TIP3    H236660   2.495   5.312   0.180 -2.9417  0.4902  0.0082
 5057TIP3   OH236661   1.012   0.808  15.365 -0.1060  0.1529  0.1550
 5057TIP3    H136662   0.919   0.825  15.376 -0.3149 -0.7851 -0.0627
 5057TIP3    H236663   1.050   0.824  15.451 -0.6548 -0.5775  0.5388
 5058TIP3   OH236664   2.999   1.181  15.839 -0.0865 -0.0498  0.1363
 5058TIP3    H136665   3.063   1.110  15.838 -1.4784 -1.3543  0.3818
 5058TIP3    H236666   2.932   1.152  15.900 -0.3351  1.8410  0.8183
 5059TIP3   OH236667   0.430   3.900   3.215 -0.3108 -0.0498 -0.2481
 5059TIP3    H136668   0.397   3.962   3.149  0.8029 -0.9143 -1.6903
 5059TIP3    H236669   0.357   3.841   3.231 -1.1143  1.0994  0.5199
 5060TIP3   OH236670   5.261   3.931  11.241 -0.1587  0.0433 -0.2789
 5060TIP3    H136671   5.178   3.895  11.274 -0.3742 -0.7122 -1.5884
 5060TIP3    H236672   5.322   3.919  11.314 -0.9067 -0.5218  0.2757
 5061TIP3   OH236673   6.484   4.922  14.067  0.6796 -0.2335 -0.2303
 5061TIP3    H136674   6.417   4.854  14.065  1.0730 -0.6176 -1.7776
 5061TIP3    H236675   6.511   4.931  13.975  3.1633 -0.4986  0.4214
 5062TIP3   OH236676   0.668   0.314  15.128  0.8336  0.3659 -0.0772
 5062TIP3    H136677   0.710   0.316  15.214  2.4541 -0.1465 -0.8102
 5062TIP3    H236678   0.683   0.224  15.097 -0.6449  0.2381 -0.4766
 5063TIP3   OH236679   6.534   4.895  12.755  0.1930 -0.2262  0.1877
 5063TIP3    H136680   6.531   4.933  12.667 -1.2967  0.8165  0.6497
 5063TIP3    H236681   6.575   4.963  12.809 -3.3129  1.2659  1.2049
 5064TIP3   OH236682   2.907   3.829  16.645 -0.6518 -0.4973 -0.5803
 5064TIP3    H136683   2.851   3.792  16.713 -1.0938  0.3490 -0.4761
 5064TIP3    H236684   2.846   3.857  16.576 -0.1243 -3.4228 -2.4391
 5065TIP3   OH236685   1.344   0.513   2.845 -0.1259  0.4463 -0.2305
 5065TIP3    H136686   1.356   0.495   2.752 -0.4757 -0.5635 -0.0921
 5065TIP3    H236687   1.249   0.528   2.854 -0.2298 -0.3831  0.1058
 5066TIP3   OH236688   4.721   4.438   1.150 -0.3880 -0.2540  0.2587
 5066TIP3    H136689   4.691   4.443   1.060 -0.2300 -2.1167  0.0668
 5066TIP3    H236690   4.781   4.513   1.159 -3.2205  2.2109  0.0087
 5067TIP3   OH236691   2.914   0.357  13.898  0.5039  0.0481  0.1716
 5067TIP3    H136692   2.900   0.273  13.940 -1.6597  0.4549  0.3669
 5067TIP3    H236693   2.924   0.420  13.970  3.2427 -0.1078  0.0536
 5068TIP3   OH236694   3.098   6.600  16.667 -0.4235  0.1889  0.4613
 5068TIP3    H136695   3.097   6.688  16.631 -0.6476 -0.5827 -1.5493
 5068TIP3    H236696   3.008   6.568  16.655 -0.7578  0.1827  2.5892
 5069TIP3   OH236697   3.021   4.510  12.024  0.1969 -0.3778  0.3310
 5069TIP3    H136698   2.928   4.518  12.045 -0.0945  1.8378 -1.3666
 5069TIP3    H236699   3.067   4.546  12.100 -0.3918 -0.3156  0.6552
 5070TIP3   OH236700   1.781   0.349   1.702  0.0379 -0.3535  0.3467
 5070TIP3    H136701   1.846   0.279   1.703 -0.5562 -0.9891  2.6762
 5070TIP3    H236702   1.701   0.307   1.671  0.1735 -0.1764 -0.2440
 5071TIP3   OH236703   3.920   0.553   5.939 -0.4352  0.5749 -0.1269
 5071TIP3    H136704   3.935   0.578   6.030 -2.1197 -0.9436  0.6406
 5071TIP3    H236705   4.005   0.522   5.909  0.6787  3.0833  0.1903
 5072TIP3   OH236706   6.621   2.917   2.372 -0.0620  0.2524  0.3564
 5072TIP3    H136707   6.694   2.860   2.348 -0.3382  0.2381 -0.5089
 5072TIP3    H236708   6.548   2.858   2.389 -0.6255  0.3419 -1.5135
 5073TIP3   OH236709   0.727   2.799  17.219 -0.2944  0.9475  0.0326
 5073TIP3    H136710   0.648   2.813  17.272 -0.1236  0.8338  0.3244
 5073TIP3    H236711   0.787   2.753  17.278 -0.1436  0.7063 -0.3027
 5074TIP3   OH236712   5.981   2.519   4.639  0.3868 -0.2095  0.3498
 5074TIP3    H136713   6.050   2.489   4.698  1.2302 -0.4882 -0.7511
 5074TIP3    H236714   5.973   2.449   4.574 -0.7046 -0.0207  0.2575
 5075TIP3   OH236715   0.359   4.266   3.794 -0.0137  0.0362 -0.0223
 5075TIP3    H136716   0.278   4.264   3.743  0.2658  1.0547 -0.5294
 5075TIP3    H236717   0.333   4.232   3.880 -0.5831 -1.2632 -0.6762
 5076TIP3   OH236718   6.706   4.581  15.965  0.1544 -0.6634 -0.1064
 5076TIP3    H136719   6.630   4.588  15.908  0.5351  1.7248 -0.4434
 5076TIP3    H236720   6.678   4.621  16.048  1.0400  0.4044 -0.2931
 5077TIP3   OH236721   1.210   6.649   1.917  0.0022  0.0259 -0.0379
 5077TIP3    H136722   1.292   6.645   1.967 -0.5179 -3.3901  0.8369
 5077TIP3    H236723   1.215   6.576   1.856 -2.5060 -0.6078  0.3598
 5078TIP3   OH236724   4.002   4.892   1.055 -0.4529  0.4930  0.0040
 5078TIP3    H136725   3.907   4.904   1.058 -0.2639  1.9209  0.8358
 5078TIP3    H236726   4.028   4.931   0.972 -0.5835 -0.0004 -0.2789
 5079TIP3   OH236727   4.397   5.863   5.048 -0.2409  0.0780 -0.5242
 5079TIP3    H136728   4.459   5.804   5.005 -1.1989 -0.7302 -0.8347
 5079TIP3    H236729   4.441   5.890   5.128  1.2085  0.8888 -1.5469
 5080TIP3   OH236730   2.415   6.581   5.028 -0.2028 -0.3148  0.6065
 5080TIP3    H136731   2.477   6.522   5.070  0.1078  0.3411  1.0803
 5080TIP3    H236732   2.388   6.641   5.098 -0.2332  0.3364  0.0474
 5081TIP3   OH236733   3.887   1.298   5.029  0.4918 -0.1329 -0.3526
 5081TIP3    H136734   3.855   1.388   5.025 -0.9804 -0.6185 -0.1755
 5081TIP3    H236735   3.808   1.244   5.026  1.2183 -1.3834  1.2661
 5082TIP3   OH236736   0.817   2.322   5.219 -0.1621 -0.1925 -0.0958
 5082TIP3    H136737   0.883   2.282   5.275 -0.3526  1.0071  1.0391
 5082TIP3    H236738   0.736   2.277   5.242 -0.3107  0.5469  0.9131
 5083TIP3   OH236739   4.013   2.130  10.972  0.3224  0.2972 -0.0425
 5083TIP3    H136740   3.946   2.072  10.937  0.3568  0.2490 -0.0282
 5083TIP3    H236741   4.063   2.159  10.896  0.4011  0.1877 -0.0320
 5084TIP3   OH236742   3.311   3.700   3.234  0.0638  0.2790  0.6265
 5084TIP3    H136743   3.403   3.699   3.208  0.3214 -0.3347  1.5370
 5084TIP3    H236744   3.300   3.622   3.289 -0.7723  0.8665  1.3175
 5085TIP3   OH236745   4.799   2.160  14.558 -0.0100 -0.0493  0.3068
 5085TIP3    H136746   4.801   2.227  14.625  0.2175 -0.4709  0.7227
 5085TIP3    H236747   4.711   2.123  14.564 -0.1285  0.1929  0.0903
 5086TIP3   OH236748   3.335   5.757   4.053  0.2453 -0.0346  0.0445
 5086TIP3    H136749   3.252   5.732   4.094  0.1639  1.2193  0.6857
 5086TIP3    H236750   3.310   5.805   3.974  0.3857 -0.9346 -0.5560
 5087TIP3   OH236751   5.636   5.911  13.761 -0.4810 -0.7871 -0.0029
 5087TIP3    H136752   5.632   5.856  13.683  1.8688  0.1812 -0.8955
 5087TIP3    H236753   5.635   6.001  13.727  1.2154 -0.3463  1.0014
 5088TIP3   OH236754   5.714   3.695  14.525 -0.3234  0.4709 -0.3571
 5088TIP3    H136755   5.776   3.701  14.598 -0.2266  0.1899 -0.4169
 5088TIP3    H236756   5.637   3.653  14.562  0.1595 -0.7522 -0.6930
 5089TIP3   OH236757   6.659   6.285  14.735  0.0562  0.0380 -0.0791
 5089TIP3    H136758   6.674   6.364  14.788 -1.0971  0.6063 -0.5711
 5089TIP3    H236759   6.565   6.285  14.718  0.2584 -0.6662 -1.3107
 5090TIP3   OH236760   2.004   1.752   4.113  0.3955  0.0345 -0.6112
 5090TIP3    H136761   2.056   1.697   4.055 -1.9812 -0.7527 -2.1155
 5090TIP3    H236762   1.925   1.772   4.063 -1.7086 -0.5218  2.2597
 5091TIP3   OH236763   0.794   2.268   4.732  0.7657  0.1161 -0.0654
 5091TIP3    H136764   0.721   2.292   4.789  1.0054 -1.0422  0.7976
 5091TIP3    H236765   0.754   2.215   4.663  0.4871  1.4380 -0.9370
 5092TIP3   OH236766   4.325   5.099  12.376  0.6931 -0.3746 -0.6931
 5092TIP3    H136767   4.382   5.148  12.436 -0.0003  0.0736 -0.3901
 5092TIP3    H236768   4.268   5.166  12.338 -0.9188 -1.0405  0.4457
 5093TIP3   OH236769   4.930   2.057  15.607  0.1489  0.1945 -0.5140
 5093TIP3    H136770   4.928   2.047  15.702  0.8244  2.9223 -0.1344
 5093TIP3    H236771   4.842   2.088  15.584  0.4641  1.1104 -0.5258
 5094TIP3   OH236772   4.663   6.324  13.439 -0.8265  0.1551  0.3205
 5094TIP3    H136773   4.723   6.271  13.491  0.5345  1.4980  0.1879
 5094TIP3    H236774   4.674   6.291  13.350  0.6174  1.1158  0.1052
 5095TIP3   OH236775   5.056   0.665   5.650 -0.0177 -0.2072  0.0193
 5095TIP3    H136776   5.146   0.684   5.679 -0.5725 -0.8145  2.3495
 5095TIP3    H236777   5.001   0.716   5.709 -1.2240  0.8525 -1.9614
 5096TIP3   OH236778   0.708   0.857  14.815 -0.4116  0.1224 -0.6419
 5096TIP3    H136779   0.753   0.830  14.895 -0.8183  2.2232  0.3643
 5096TIP3    H236780   0.774   0.907  14.767 -0.7424  0.5350 -0.6669
 5097TIP3   OH236781   2.379   0.388  12.263  0.0214  0.8042  0.0277
 5097TIP3    H136782   2.416   0.438  12.336  0.5087  0.2669  0.1630
 5097TIP3    H236783   2.372   0.298  12.297 -0.5541  0.7194 -0.3060
 5098TIP3   OH236784   6.709   4.627   1.173  0.2486 -0.2029  0.1887
 5098TIP3    H136785   6.680   4.543   1.208  0.5688 -0.8771 -1.1336
 5098TIP3    H236786   6.631   4.665   1.133  0.2697 -0.1868  0.1627
 5099TIP3   OH236787   4.425   1.899   5.797  0.8609 -0.1857 -0.1097
 5099TIP3    H136788   4.450   1.887   5.889  0.1830  1.2543  0.2953
 5099TIP3    H236789   4.462   1.823   5.752  0.4810 -1.3851  1.4804
 5100TIP3   OH236790   1.386   4.588  15.152 -0.6517 -0.1185 -0.4759
 5100TIP3    H136791   1.292   4.600  15.141 -0.6244 -0.1286 -0.7274
 5100TIP3    H236792   1.415   4.664  15.202 -0.7920 -0.1167 -0.3969
 5101TIP3   OH236793   5.790   1.734   1.641 -0.4180  0.0982 -0.0280
 5101TIP3    H136794   5.853   1.678   1.596  2.2581  1.9094  1.2319
 5101TIP3    H236795   5.720   1.748   1.577 -0.1790 -2.9071 -1.0953
 5102TIP3   OH236796   1.375   0.917   4.620  0.0626 -0.7037  0.3927
 5102TIP3    H136797   1.316   0.906   4.545  1.6018  0.4149 -1.0546
 5102TIP3    H236798   1.449   0.859   4.601  1.5739  1.3063 -0.2193
 5103TIP3   OH236799   2.624   5.766   5.263 -0.0052  0.6307 -0.5550
 5103TIP3    H136800   2.697   5.737   5.319  0.4216  0.8429 -0.9988
 5103TIP3    H236801   2.632   5.861   5.259 -1.5129  0.8693  1.0392
 5104TIP3   OH236802   0.505   4.132  11.586  0.4453  0.3436 -0.1155
 5104TIP3    H136803   0.549   4.125  11.501 -2.6146  0.5694 -1.8778
 5104TIP3    H236804   0.438   4.199  11.573 -1.0862 -0.6431  2.0302
 5105TIP3   OH236805   5.238   4.357  11.911 -0.8655 -0.3614 -0.2165
 5105TIP3    H136806   5.241   4.448  11.940  3.4289 -0.4677  0.1971
 5105TIP3    H236807   5.195   4.310  11.983 -0.3198  0.9045  0.9754
 5106TIP3   OH236808   2.033   0.766   3.486  0.0500  0.2246 -0.1244
 5106TIP3    H136809   2.074   0.829   3.426  0.6174 -1.4257 -1.5674
 5106TIP3    H236810   1.988   0.705   3.428  0.7293 -1.5322  1.1292
 5107TIP3   OH236811   4.327   1.645  13.427  0.7036 -0.1238 -0.1795
 5107TIP3    H136812   4.266   1.620  13.496 -0.0670 -1.5425 -1.3158
 5107TIP3    H236813   4.322   1.573  13.363  0.1537  1.8612 -2.5026
 5108TIP3   OH236814   6.684   6.604   1.939  0.0550 -0.5086 -0.0301
 5108TIP3    H136815   6.734   6.535   1.983 -0.5900 -1.3261 -0.5371
 5108TIP3    H236816   6.736   6.625   1.861  0.8899  0.5062  0.7706
 5109TIP3   OH236817   3.838   2.849   2.662 -0.5809 -0.5321  0.2501
 5109TIP3    H136818   3.853   2.842   2.756 -1.1663  1.5068  0.5441
 5109TIP3    H236819   3.777   2.778   2.642 -2.4721  0.5050  1.9265
 5110TIP3   OH236820   1.709   3.522   0.353  0.6318  0.3610 -0.4197
 5110TIP3    H136821   1.761   3.586   0.401  0.7768  0.2839 -0.4721
 5110TIP3    H236822   1.670   3.467   0.421 -0.5421  1.2943 -0.3088
 5111TIP3   OH236823   2.018   5.537   3.662 -0.2999  0.1395  0.3508
 5111TIP3    H136824   2.073   5.587   3.722  0.9767 -0.4136 -0.3278
 5111TIP3    H236825   2.011   5.450   3.701  3.6138 -1.4463 -1.9106
 5112TIP3   OH236826   5.153   5.357  16.591 -0.3681 -0.5326 -0.1037
 5112TIP3    H136827   5.170   5.352  16.685 -1.2123  2.0505  0.2484
 5112TIP3    H236828   5.230   5.401  16.555 -0.6571 -0.2793 -0.4162
 5113TIP3   OH236829   5.128   0.322  14.518 -0.4163  0.1214 -0.2444
 5113TIP3    H136830   5.092   0.399  14.473 -2.9207 -2.0594 -2.2668
 5113TIP3    H236831   5.053   0.282  14.562  1.0135 -0.6883  1.5762
 5114TIP3   OH236832   6.148   0.007  10.587  0.0088  0.3717 -0.3931
 5114TIP3    H136833   6.134  -0.056  10.657 -0.0216  0.5804 -0.2101
 5114TIP3    H236834   6.061   0.044  10.570  0.4264  2.4028  1.4384
 5115TIP3   OH236835   2.114   4.236   1.934  0.0187 -0.0652  0.1636
 5115TIP3    H136836   2.192   4.183   1.951  0.2600  0.3713  0.4320
 5115TIP3    H236837   2.135   4.284   1.854  0.0814  0.1601  0.3153
 5116TIP3   OH236838   2.808   3.080   2.001  0.1847 -0.0412 -0.4356
 5116TIP3    H136839   2.718   3.053   1.987  0.4876 -0.6542 -1.3273
 5116TIP3    H236840   2.819   3.156   1.943  0.0926  0.3866  0.0938
 5117TIP3   OH236841   2.116   5.309  16.592  0.5124 -0.0344  0.4319
 5117TIP3    H136842   2.189   5.363  16.560 -0.1685  0.7330  0.1364
 5117TIP3    H236843   2.043   5.332  16.535  0.6815 -2.7721 -1.0430
 5118TIP3   OH236844   1.623   1.984   1.174 -0.6266 -0.4731  0.0058
 5118TIP3    H136845   1.657   1.931   1.102 -1.0051 -0.6752 -0.0320
 5118TIP3    H236846   1.699   2.003   1.228 -0.0861  0.8858 -1.1821
 5119TIP3   OH236847   4.083   4.517   3.639  0.0375  0.0747 -0.6244
 5119TIP3    H136848   4.169   4.541   3.604  0.3289 -0.8853 -0.6147
 5119TIP3    H236849   4.056   4.591   3.693 -0.3618  1.5410 -2.7538
 5120TIP3   OH236850   3.606   6.177   3.620 -0.0847  0.4002  0.1099
 5120TIP3    H136851   3.681   6.226   3.590  0.3533 -0.9682 -1.1581
 5120TIP3    H236852   3.530   6.221   3.581  0.3330 -0.1406 -1.3864
 5121TIP3   OH236853   6.482   6.755  16.929 -0.0655  0.7716  0.5901
 5121TIP3    H136854   6.450   6.834  16.972 -0.3995  0.2637  1.2904
 5121TIP3    H236855   6.415   6.734  16.864 -0.6410  0.3261  1.3117
 5122TIP3   OH236856   5.541   1.919  15.229 -0.7755 -0.1003 -0.6450
 5122TIP3    H136857   5.486   1.842  15.214 -1.5965  0.4537 -0.5282
 5122TIP3    H236858   5.553   1.956  15.141 -0.4933 -0.2773 -0.6834
 5123TIP3   OH236859   3.217   6.194  13.417 -0.1992  0.1940  0.2253
 5123TIP3    H136860   3.151   6.162  13.355  0.8846 -0.6412 -0.5403
 5123TIP3    H236861   3.166   6.235  13.487 -1.4432  2.4227 -1.8375
 5124TIP3   OH236862   4.085   5.741  17.031  0.0993  0.2416  0.1024
 5124TIP3    H136863   4.079   5.741  17.126  0.9649  0.7237  0.1625
 5124TIP3    H236864   4.142   5.815  17.010  0.3413 -0.1782 -0.7581
 5125TIP3   OH236865   4.020   0.507   0.926  0.2493 -0.0588  0.1155
 5125TIP3    H136866   4.097   0.552   0.891  0.5751 -1.0556 -0.5241
 5125TIP3    H236867   3.977   0.470   0.849 -0.8704  0.4757  0.4723
 5126TIP3   OH236868   6.688   2.601   0.037  0.1498 -0.2843  0.2868
 5126TIP3    H136869   6.753   2.585   0.105  1.3038 -0.0205 -0.7112
 5126TIP3    H236870   6.658   2.513   0.011  0.3780 -0.4309  0.5145
 5127TIP3   OH236871   5.616   3.492   1.784  0.0478  0.5395  0.0022
 5127TIP3    H136872   5.669   3.503   1.706  0.8465  0.5680  0.5408
 5127TIP3    H236873   5.530   3.527   1.760  0.1515  0.1303 -1.0034
 5128TIP3   OH236874   5.203   1.956   5.269  0.4197 -0.3176  0.5029
 5128TIP3    H136875   5.132   2.019   5.277 -0.5856 -1.0661 -1.7460
 5128TIP3    H236876   5.253   1.987   5.193  2.8548  0.4435  2.2648
 5129TIP3   OH236877   1.605   5.294  11.651 -0.5860 -0.2320  0.3821
 5129TIP3    H136878   1.633   5.205  11.631 -1.1395 -0.2934 -0.1512
 5129TIP3    H236879   1.674   5.349  11.613 -0.7122 -0.4077 -0.1115
 5130TIP3   OH236880   0.933   6.162   4.818  0.3331 -0.7693 -0.3477
 5130TIP3    H136881   0.867   6.093   4.813  0.5967 -0.9802 -1.1623
 5130TIP3    H236882   0.972   6.152   4.905  0.0714 -1.3707 -0.2919
 5131TIP3   OH236883   4.432   0.518  12.462 -0.6267 -0.7469 -0.4553
 5131TIP3    H136884   4.381   0.453  12.414  1.7012 -3.2960  0.2537
 5131TIP3    H236885   4.495   0.551  12.398  0.6134 -2.0336  0.0478
 5132TIP3   OH236886   1.001   2.687   3.448 -0.3345 -0.0647  0.9142
 5132TIP3    H136887   0.969   2.598   3.464 -0.3742 -0.3998 -0.8866
 5132TIP3    H236888   0.947   2.720   3.377  0.9582  0.6658  0.2318
 5133TIP3   OH236889   0.896   0.158  16.365 -0.1578 -0.5081 -0.1501
 5133TIP3    H136890   0.844   0.079  16.351 -0.1616 -0.2410 -1.9098
 5133TIP3    H236891   0.955   0.161  16.290  2.0836 -0.5071  1.5118
 5134TIP3   OH236892   3.678   1.978  17.087 -0.5745  0.2644 -0.0872
 5134TIP3    H136893   3.700   1.951  16.998 -1.5180 -0.9241  0.0143
 5134TIP3    H236894   3.741   2.047  17.108  0.5522 -0.4182 -1.1528
 5135TIP3   OH236895   4.842   2.010   3.248  0.1224  0.3105 -0.7745
 5135TIP3    H136896   4.825   1.953   3.323  0.0397 -0.7281 -1.5460
 5135TIP3    H236897   4.833   2.099   3.282 -0.3613 -0.1409  0.3335
 5136TIP3   OH236898   3.301   3.631  16.192 -0.1183 -0.7146 -0.5283
 5136TIP3    H136899   3.378   3.674  16.152 -1.2846  2.4465  0.2892
 5136TIP3    H236900   3.335   3.591  16.271  0.8980 -0.3090 -0.7361
 5137TIP3   OH236901   3.846   3.496  13.266  0.1910 -0.1904  0.1935
 5137TIP3    H136902   3.804   3.502  13.351  1.0380 -1.8070  0.7737
 5137TIP3    H236903   3.936   3.524  13.281 -0.3560  2.3147 -0.8300
 5138TIP3   OH236904   5.060   0.977  10.844 -0.0890 -0.2329  0.2011
 5138TIP3    H136905   5.004   1.004  10.917  0.9181 -1.1554  1.3640
 5138TIP3    H236906   5.031   0.889  10.823 -2.8423  1.2210 -3.0576
 5139TIP3   OH236907   5.551   4.751   1.182 -0.1317  0.0567 -0.2443
 5139TIP3    H136908   5.598   4.680   1.139 -0.5641  0.0132 -0.6556
 5139TIP3    H236909   5.501   4.794   1.112 -1.7392 -0.7198  0.3677
 5140TIP3   OH236910   6.191   5.832  12.758 -0.0802  0.4888 -0.1109
 5140TIP3    H136911   6.164   5.905  12.702 -1.3093  0.3179  0.2539
 5140TIP3    H236912   6.265   5.867  12.808  1.7001  0.3679 -2.4707
 5141TIP3   OH236913   6.750   6.801   4.807 -0.1818  0.2959 -0.0276
 5141TIP3    H136914   6.809   6.744   4.757  0.9421 -1.1314  2.7108
 5141TIP3    H236915   6.666   6.755   4.806 -0.1283  0.2061 -0.4763
 5142TIP3   OH236916   6.293   0.908  14.683  0.3013  0.3770 -0.3421
 5142TIP3    H136917   6.289   0.813  14.691 -0.3667  0.3400 -0.9302
 5142TIP3    H236918   6.255   0.926  14.597 -1.0305  1.2641  0.3821
 5143TIP3   OH236919   2.918   5.497  12.711 -0.3047  0.2909 -0.1614
 5143TIP3    H136920   2.964   5.567  12.665  0.3316  0.0277  0.0665
 5143TIP3    H236921   2.911   5.426  12.647 -1.1165  0.6254 -0.4520
 5144TIP3   OH236922   4.003   0.310   6.380  0.0114 -0.4909 -0.5442
 5144TIP3    H136923   4.091   0.282   6.356 -0.9018 -1.8788 -2.5536
 5144TIP3    H236924   3.971   0.357   6.303 -1.3272 -0.8206 -0.2212
 5145TIP3   OH236925   0.576   3.281   1.161  0.9590  0.7243  1.3001
 5145TIP3    H136926   0.618   3.198   1.138  0.3062  0.6074  0.4811
 5145TIP3    H236927   0.547   3.269   1.251 -1.6637 -1.0501  0.3402
 5146TIP3   OH236928   6.824   3.579   4.758 -0.3346  0.1470  0.1095
 5146TIP3    H136929   6.875   3.545   4.831  0.1380  1.2823  0.3335
 5146TIP3    H236930   6.877   3.563   4.681  0.0303  0.6310  0.2520
 5147TIP3   OH236931   3.049   3.396   5.459  0.1559  0.1655 -0.1767
 5147TIP3    H136932   3.142   3.414   5.477  0.5626 -2.0308  0.1782
 5147TIP3    H236933   3.024   3.330   5.523 -1.0913 -0.7177 -1.5009
 5148TIP3   OH236934   0.160   6.371   6.276 -0.0209  0.0708 -0.6344
 5148TIP3    H136935   0.176   6.277   6.269  0.7188  0.0467  0.9328
 5148TIP3    H236936   0.227   6.411   6.220  0.7589 -0.2899  0.0245
 5149TIP3   OH236937   4.065   5.330   3.892 -0.3500  0.4591  0.3913
 5149TIP3    H136938   4.110   5.305   3.812 -0.5425 -0.2600  0.4972
 5149TIP3    H236939   4.021   5.250   3.921 -0.3066  0.7180  1.1989
 5150TIP3   OH236940   0.487   3.206  13.847  0.4042  0.5403 -0.3577
 5150TIP3    H136941   0.414   3.245  13.894  0.8320 -1.0273  1.7349
 5150TIP3    H236942   0.565   3.237  13.892  0.7668 -2.5299  1.4184
 5151TIP3   OH236943   1.896   4.199   2.723 -0.1326 -0.4181  0.2841
 5151TIP3    H136944   1.921   4.155   2.805  0.2448 -0.7184  0.0115
 5151TIP3    H236945   1.895   4.292   2.746  0.8582 -0.4238  0.4151
 5152TIP3   OH236946   1.820   1.769   2.426 -0.7385 -0.2185  0.3752
 5152TIP3    H136947   1.868   1.687   2.422 -0.9888 -0.3198 -2.1489
 5152TIP3    H236948   1.752   1.754   2.492  0.6565 -1.1572  1.6785
 5153TIP3   OH236949   5.117   2.787  14.739  0.1666 -0.0391 -0.1328
 5153TIP3    H136950   5.077   2.771  14.824 -2.4088  1.8915 -0.8148
 5153TIP3    H236951   5.150   2.877  14.745  0.4572 -0.0795 -0.9976
 5154TIP3   OH236952   4.511   3.467   0.170 -0.1820  0.5231 -0.1611
 5154TIP3    H136953   4.477   3.392   0.219 -1.9776  0.7346 -0.9807
 5154TIP3    H236954   4.586   3.433   0.123 -1.5700 -1.1008 -1.3416
 5155TIP3   OH236955   3.756   6.024  15.442  0.2593  0.5482  0.0718
 5155TIP3    H136956   3.841   6.063  15.462 -0.4816  1.7656  0.9750
 5155TIP3    H236957   3.721   6.077  15.371  0.0148  0.3977  0.0765
 5156TIP3   OH236958   6.175   1.459   2.110 -0.3901 -0.1572 -0.8089
 5156TIP3    H136959   6.207   1.529   2.167 -0.2562 -0.1096 -0.9436
 5156TIP3    H236960   6.104   1.499   2.061 -0.6460 -0.2585 -0.5216
 5157TIP3   OH236961   5.936   3.051   5.414  0.2289 -0.3225  0.1318
 5157TIP3    H136962   5.920   2.968   5.460 -1.7711  0.3032  0.6744
 5157TIP3    H236963   5.870   3.111   5.450  1.6537  1.5293 -0.2267
 5158TIP3   OH236964   2.308   5.508   6.110  0.2592 -0.3163 -0.2220
 5158TIP3    H136965   2.249   5.434   6.100  0.0067 -0.4114  1.5832
 5158TIP3    H236966   2.253   5.586   6.097 -0.2601 -0.4088  1.2434
 5159TIP3   OH236967   3.612   2.771   0.352 -0.3076  0.4946  0.4430
 5159TIP3    H136968   3.537   2.713   0.359  0.8134 -0.8183  2.8324
 5159TIP3    H236969   3.588   2.834   0.284 -2.1787 -1.8491 -1.2513
 5160TIP3   OH236970   3.653   3.364  14.972 -0.5761 -0.2850 -0.5114
 5160TIP3    H136971   3.614   3.452  14.969  0.4924  0.2369  0.1168
 5160TIP3    H236972   3.653   3.341  15.064  0.1997 -0.4376 -0.5384
 5161TIP3   OH236973   3.741   3.400   4.184 -0.3325  0.0565 -0.1585
 5161TIP3    H136974   3.820   3.441   4.219  0.6052 -1.5561 -0.2669
 5161TIP3    H236975   3.765   3.376   4.095 -0.3302 -1.9213  0.3268
 5162TIP3   OH236976   5.775   3.509   6.575 -0.3288 -0.4608 -0.0805
 5162TIP3    H136977   5.727   3.427   6.587  0.0287 -0.7123 -0.3285
 5162TIP3    H236978   5.867   3.485   6.587 -0.1616 -0.2359 -0.8281
 5163TIP3   OH236979   4.611   2.418  14.090 -0.2982  0.1977 -0.1147
 5163TIP3    H136980   4.518   2.433  14.076  0.1027  3.3023 -0.2966
 5163TIP3    H236981   4.622   2.422  14.185 -0.3239  0.1546 -0.1105
 5164TIP3   OH236982   5.637   2.524  12.886  1.0982  0.3893  0.4394
 5164TIP3    H136983   5.693   2.599  12.904  2.1389 -0.8134  2.7605
 5164TIP3    H236984   5.674   2.485  12.807 -0.1580  2.8410 -1.4951
 5165TIP3   OH236985   4.036   5.212   3.106  0.2828  0.3563  0.3123
 5165TIP3    H136986   3.993   5.254   3.032 -1.2704  0.1358  1.0416
 5165TIP3    H236987   4.040   5.281   3.173  3.0837  1.0261 -0.4296
 5166TIP3   OH236988   3.315   1.684  16.275  0.4509 -0.7627 -0.9000
 5166TIP3    H136989   3.233   1.714  16.315 -0.0263 -1.1061 -1.5951
 5166TIP3    H236990   3.366   1.764  16.263  1.2780 -0.8198  1.8239
 5167TIP3   OH236991   1.274   2.794  15.638  0.1805 -0.5496  0.2937
 5167TIP3    H136992   1.221   2.719  15.610  0.0481 -0.4294  0.2260
 5167TIP3    H236993   1.332   2.812  15.564 -2.3335  1.8234 -1.2654
 5168TIP3   OH236994   3.382   6.181  16.719 -0.4587 -0.2003  0.3491
 5168TIP3    H136995   3.354   6.210  16.805  3.6882  1.6937  1.2895
 5168TIP3    H236996   3.345   6.246  16.658 -0.5566  0.4691  1.1100
 5169TIP3   OH236997   1.785   5.046  11.931 -0.2643 -0.3029  0.1388
 5169TIP3    H136998   1.819   5.011  12.013  0.0717  0.6213  0.4131
 5169TIP3    H236999   1.807   5.139  11.934 -1.9059  0.1379 -0.1339
 5170TIP3   OH237000   5.046   6.113   0.905  0.1456  0.4859 -0.1241
 5170TIP3    H137001   5.063   6.106   0.811 -0.1019  0.3491 -0.1596
 5170TIP3    H237002   4.951   6.106   0.913  0.1292  0.8950  0.1016
 5171TIP3   OH237003   2.976   3.440  12.579  0.1864 -0.1381  0.0340
 5171TIP3    H137004   3.006   3.512  12.633 -2.9185  0.5950  0.9772
 5171TIP3    H237005   2.997   3.467  12.489 -0.6211  1.8517  0.3919
 5172TIP3   OH237006   6.792   0.318   3.971  0.0017  1.1707  0.1822
 5172TIP3    H137007   6.825   0.263   3.900  1.7137  0.9276  1.1315
 5172TIP3    H237008   6.697   0.320   3.956 -0.0397 -1.3393 -0.3861
 5173TIP3   OH237009   0.701   4.147  15.911  0.0657 -0.4689 -0.4847
 5173TIP3    H137010   0.720   4.136  16.005 -0.5121  0.5973 -0.2313
 5173TIP3    H237011   0.745   4.073  15.869  2.7596  0.5756  0.3216
 5174TIP3   OH237012   2.831   5.851   1.719  0.6148 -0.0496  0.2681
 5174TIP3    H137013   2.850   5.932   1.671 -1.0412 -0.6459 -1.4968
 5174TIP3    H237014   2.912   5.800   1.713  1.6102  1.3392  1.2100
 5175TIP3   OH237015   2.561   3.408   0.059  0.7374 -0.0646 -0.5793
 5175TIP3    H137016   2.561   3.490   0.108  2.9996  0.3803 -1.2137
 5175TIP3    H237017   2.612   3.427  -0.020  0.9100 -1.9309 -0.9623
 5176TIP3   OH237018   4.564   3.646   1.470  0.0768  0.4482 -0.3802
 5176TIP3    H137019   4.528   3.734   1.467 -1.1057 -0.0022  0.0974
 5176TIP3    H237020   4.488   3.588   1.462  0.7357 -0.5305  0.2096
 5177TIP3   OH237021   3.553   1.828  13.227  0.0750  0.1684 -0.4681
 5177TIP3    H137022   3.577   1.760  13.165  0.7308  0.1176 -0.1720
 5177TIP3    H237023   3.636   1.869  13.252 -0.3653  1.5252 -1.1377
 5178TIP3   OH237024   1.934   0.587   3.303  0.7122  0.1011 -0.1465
 5178TIP3    H137025   1.969   0.565   3.217  1.7381  0.7973  0.0737
 5178TIP3    H237026   1.851   0.541   3.307  0.9894 -0.5381 -1.2176
 5179TIP3   OH237027   5.603   4.213   5.983 -0.1323 -0.4889  0.5137
 5179TIP3    H137028   5.573   4.216   6.074  1.9423  1.0007  1.2539
 5179TIP3    H237029   5.561   4.288   5.941  0.0228 -0.3205  0.6569
 5180TIP3   OH237030   0.032   3.498  16.311  0.0966 -0.3046  0.1486
 5180TIP3    H137031  -0.052   3.453  16.300 -0.0248  0.1236 -0.7790
 5180TIP3    H237032   0.043   3.505  16.406 -2.1665  1.9016  0.3435
 5181TIP3   OH237033   0.887   0.179  15.851  0.1502  0.1231  0.1418
 5181TIP3    H137034   0.812   0.166  15.909 -1.1362 -0.7891 -1.6038
 5181TIP3    H237035   0.895   0.096  15.804  1.0307  0.8671 -1.0748
 5182TIP3   OH237036   3.228   0.758  16.237 -0.1673 -0.1817 -0.2796
 5182TIP3    H137037   3.172   0.783  16.311  1.2530  0.9290  0.4703
 5182TIP3    H237038   3.195   0.812  16.164 -1.4975 -1.1993 -0.4814
 5183TIP3   OH237039   3.354   5.841  16.909 -0.3385 -0.5626  0.4533
 5183TIP3    H137040   3.422   5.874  16.850 -2.4942  0.0276 -1.8626
 5183TIP3    H237041   3.376   5.878  16.994  1.1809  1.1223 -0.5982
 5184TIP3   OH237042   1.088   0.120  14.196  0.1629 -0.0411  0.0463
 5184TIP3    H137043   1.029   0.112  14.120 -1.0961  2.2836  0.6858
 5184TIP3    H237044   1.040   0.080  14.268  1.2917 -2.0949 -0.2407
 5185TIP3   OH237045   5.501   0.880  17.148  0.2898  0.3194 -0.1124
 5185TIP3    H137046   5.535   0.829  17.075 -1.2755  0.3540 -0.9281
 5185TIP3    H237047   5.525   0.970  17.128  1.8074  0.0998  0.5940
 5186TIP3   OH237048   6.450   5.801  16.799  0.2326 -0.4477  0.2899
 5186TIP3    H137049   6.447   5.776  16.707  1.1591 -2.3868  0.7317
 5186TIP3    H237050   6.365   5.773  16.834  0.0132 -0.0249  0.0921
 5187TIP3   OH237051   0.318   0.844  16.791  0.1194 -0.1468  0.1889
 5187TIP3    H137052   0.409   0.824  16.810  0.7816  0.5133 -2.0662
 5187TIP3    H237053   0.313   0.939  16.792 -1.0203 -0.1768  2.1488
 5188TIP3   OH237054   1.858   3.008   0.917 -0.3970 -0.0355 -0.1800
 5188TIP3    H137055   1.830   3.077   0.857 -0.2014  0.2534  0.0617
 5188TIP3    H237056   1.924   3.049   0.973 -1.0319 -0.1147  0.6491
 5189TIP3   OH237057   3.976   3.342   5.568 -0.7164 -0.3277  0.5406
 5189TIP3    H137058   3.946   3.287   5.496  1.1534 -0.6713 -0.0320
 5189TIP3    H237059   4.059   3.380   5.537 -0.0006 -0.2669  2.3920
 5190TIP3   OH237060   5.614   4.318  14.763  0.3892 -0.2249 -0.5224
 5190TIP3    H137061   5.589   4.352  14.677  0.8791  0.6909 -0.3211
 5190TIP3    H237062   5.705   4.345  14.774 -0.0875  0.9670  0.8768
 5191TIP3   OH237063   6.782   0.448   2.502 -0.0725  0.2346  0.0840
 5191TIP3    H137064   6.738   0.514   2.450 -0.7392  0.1213  0.4952
 5191TIP3    H237065   6.715   0.382   2.520  0.2666  0.0432  0.6850
 5192TIP3   OH237066   3.268   4.914   4.501  0.2892  0.2509  0.2024
 5192TIP3    H137067   3.317   4.852   4.555  0.4825 -0.6441 -0.9358
 5192TIP3    H237068   3.328   4.936   4.430 -1.1172 -1.4592 -1.6511
 5193TIP3   OH237069   1.336   3.837  11.726  0.2402 -0.0428  0.1842
 5193TIP3    H137070   1.310   3.922  11.760  1.4071  1.2248 -1.9377
 5193TIP3    H237071   1.399   3.804  11.790 -1.5068 -0.1950  1.9345
 5194TIP3   OH237072   4.498   2.693   2.812  0.0372 -0.5245  0.2329
 5194TIP3    H137073   4.406   2.669   2.825  0.0873 -0.0810  1.6735
 5194TIP3    H237074   4.547   2.620   2.850  0.3414 -1.3335 -1.6014
 5195TIP3   OH237075   4.230   2.327   2.759 -0.3692  0.4622  0.1219
 5195TIP3    H137076   4.170   2.354   2.690 -1.1685  0.5378  0.8287
 5195TIP3    H237077   4.256   2.409   2.802 -0.4967  0.3530  0.4097
 5196TIP3   OH237078   0.266   2.655  11.792  0.1899 -0.0211  0.6257
 5196TIP3    H137079   0.313   2.571  11.790  0.2707  0.0155  0.9801
 5196TIP3    H237080   0.310   2.708  11.725  0.7218  0.0477  1.0229
 5197TIP3   OH237081   6.782   4.740  14.739  0.2691 -0.9449  0.0772
 5197TIP3    H137082   6.782   4.779  14.652  0.3366  1.0091  0.9034
 5197TIP3    H237083   6.692   4.708  14.751  0.2653 -1.2361 -0.7009
 5198TIP3   OH237084   5.038   0.168  12.578 -0.4008 -0.3774  0.4768
 5198TIP3    H137085   5.041   0.106  12.505 -1.0522 -0.5423  0.5838
 5198TIP3    H237086   4.945   0.173  12.602 -0.2691  0.1245  0.9103
 5199TIP3   OH237087   1.256   5.071  12.230 -0.0838 -0.0320 -0.0339
 5199TIP3    H137088   1.289   5.106  12.313  1.7312 -1.2545 -0.1752
 5199TIP3    H237089   1.184   5.014  12.255 -0.3397  0.5437  0.5810
 5200TIP3   OH237090   5.167   0.186   3.730 -0.0719  0.6984  0.7326
 5200TIP3    H137091   5.140   0.242   3.658 -0.3847  1.7350  1.6240
 5200TIP3    H237092   5.086   0.163   3.775  0.0511 -0.5013  0.3847
 5201TIP3   OH237093   4.312   1.441  16.712 -0.1840 -0.2124  0.1550
 5201TIP3    H137094   4.317   1.495  16.790  0.4267  1.5065 -1.0260
 5201TIP3    H237095   4.248   1.485  16.656 -1.4201 -1.9925  0.0626
 5202TIP3   OH237096   4.884   3.512  15.501 -0.6262 -0.0297 -0.5431
 5202TIP3    H137097   4.815   3.501  15.434 -0.7293 -0.7421 -0.3249
 5202TIP3    H237098   4.836   3.530  15.581 -0.6249 -1.5176 -0.1798
 5203TIP3   OH237099   4.318   3.319  13.286 -0.1087 -0.1340  0.6374
 5203TIP3    H137100   4.331   3.240  13.233  1.3760 -0.9663  2.1407
 5203TIP3    H237101   4.371   3.386  13.242 -3.1321  0.7751 -1.9425
 5204TIP3   OH237102   4.491   1.512   2.153  0.2739 -0.3094  0.4084
 5204TIP3    H137103   4.585   1.520   2.163  0.1633 -0.0136  1.2790
 5204TIP3    H237104   4.456   1.521   2.242 -0.7971  2.5997 -0.1928
 5205TIP3   OH237105   2.732   0.514  17.208 -0.0086  0.1239  0.1251
 5205TIP3    H137106   2.701   0.586  17.262 -1.8769 -0.0359 -0.6643
 5205TIP3    H237107   2.779   0.556  17.136  0.9342  0.4123  0.8865
 5206TIP3   OH237108   5.300   5.404  14.607  0.0038 -0.2380 -0.2133
 5206TIP3    H137109   5.345   5.396  14.523  1.7942 -0.2695  0.6904
 5206TIP3    H237110   5.359   5.360  14.669 -1.3052 -0.2582  1.0436
 5207TIP3   OH237111   4.474   0.742   0.419 -0.0615  0.1266 -0.0879
 5207TIP3    H137112   4.416   0.748   0.343 -1.8319 -0.5188  1.1413
 5207TIP3    H237113   4.480   0.648   0.437  0.2779  0.2745  0.5891
 5208TIP3   OH237114   4.705   1.471   1.080  0.0352 -0.1392  0.2134
 5208TIP3    H137115   4.756   1.552   1.093  1.8244 -1.2485  0.4468
 5208TIP3    H237116   4.660   1.484   0.997 -0.7588  1.6003  0.8597
 5209TIP3   OH237117   0.514   5.065   2.795 -0.0119 -0.7695 -0.2137
 5209TIP3    H137118   0.433   5.073   2.844 -0.3426 -0.7825 -0.7474
 5209TIP3    H237119   0.487   5.063   2.703  0.7540  2.2721 -0.6200
 5210TIP3   OH237120   2.277   4.731   2.252 -0.2884  0.2442  0.2530
 5210TIP3    H137121   2.318   4.703   2.171 -0.1279 -1.9163  1.0068
 5210TIP3    H237122   2.187   4.753   2.228 -0.1134  0.0617 -0.5957
 5211TIP3   OH237123   5.611   3.143   2.625 -0.9314 -0.5962  0.5004
 5211TIP3    H137124   5.653   3.060   2.604  0.8789  0.5588 -0.7728
 5211TIP3    H237125   5.518   3.128   2.609 -0.6351 -2.3250  0.1811
 5212TIP3   OH237126   5.630   6.812  13.347 -0.8328 -0.0567 -0.2892
 5212TIP3    H137127   5.720   6.781  13.346  0.1486  2.5289 -1.3643
 5212TIP3    H237128   5.583   6.751  13.290  0.5918 -0.5164 -1.0209
 5213TIP3   OH237129   6.257   4.411  11.677 -0.2654 -0.1703 -0.2100
 5213TIP3    H137130   6.255   4.384  11.769  1.1171 -4.0602 -1.1000
 5213TIP3    H237131   6.338   4.462  11.669 -0.4786  0.3331  0.7504
 5214TIP3   OH237132   0.468   1.181   6.518 -0.1049  0.1176  0.2612
 5214TIP3    H137133   0.549   1.228   6.537  1.2009 -2.0947  0.6325
 5214TIP3    H237134   0.480   1.145   6.430 -0.6693 -0.2699  0.3322
 5215TIP3   OH237135   0.927   1.744   4.828  0.5386 -0.2387  0.2815
 5215TIP3    H137136   0.963   1.805   4.892  0.4910  0.0629  0.0234
 5215TIP3    H237137   1.003   1.702   4.789  0.5500 -0.8241  0.9223
 5216TIP3   OH237138   2.883   2.073   4.560 -0.0089  0.6441 -0.3965
 5216TIP3    H137139   2.826   2.088   4.635  3.5219 -0.6608  2.9107
 5216TIP3    H237140   2.925   1.988   4.578  2.2012  0.9995 -3.0641
 5217TIP3   OH237141   0.881   2.206  15.460 -0.0019  0.0620  0.4953
 5217TIP3    H137142   0.973   2.223  15.481 -0.2629 -1.1959  3.0353
 5217TIP3    H237143   0.866   2.116  15.489 -1.8113 -0.0906 -0.7490
 5218TIP3   OH237144   3.113   0.009   2.382  0.2020  0.0134  0.6347
 5218TIP3    H137145   3.062   0.001   2.462  0.9522 -1.4310  1.0099
 5218TIP3    H237146   3.204   0.017   2.412  0.4783 -0.4080 -0.0607
 5219TIP3   OH237147   4.262   0.082   4.225 -0.0124 -0.5113  0.1908
 5219TIP3    H137148   4.190   0.027   4.194 -1.3154 -0.1770  2.4234
 5219TIP3    H237149   4.325   0.021   4.262  0.6077 -0.7572 -1.2039
 5220TIP3   OH237150   1.462   6.648  16.670  0.2228 -0.0705 -0.3513
 5220TIP3    H137151   1.470   6.570  16.615  1.2222  0.6515 -1.2532
 5220TIP3    H237152   1.544   6.695  16.658 -0.1346  0.8462  0.6318
 5221TIP3   OH237153   3.382   4.793  14.241  0.3464  0.1186 -0.1178
 5221TIP3    H137154   3.305   4.835  14.204  0.7915  1.1203  0.0658
 5221TIP3    H237155   3.398   4.839  14.323  2.4328  1.4867 -1.1969
 5222TIP3   OH237156   3.364   5.835  14.574 -0.1912 -0.1092  0.5615
 5222TIP3    H137157   3.366   5.756  14.520  0.5134 -1.2611  2.1913
 5222TIP3    H237158   3.271   5.859  14.577 -0.1997  0.4130 -1.6455
 5223TIP3   OH237159   6.279   0.413   0.130  0.0346  0.1297  0.7309
 5223TIP3    H137160   6.242   0.460   0.055 -0.7661 -0.3162  0.8296
 5223TIP3    H237161   6.341   0.351   0.092 -0.0280  0.2260  0.4725
 5224TIP3   OH237162   5.948   5.556  13.562 -0.1022  0.1369 -0.4609
 5224TIP3    H137163   5.972   5.619  13.631 -2.9198  0.9750 -0.1377
 5224TIP3    H237164   5.979   5.596  13.481 -1.4021  1.7851 -0.2036
 5225TIP3   OH237165   4.794   5.836   0.671 -0.2332 -0.2615 -0.3382
 5225TIP3    H137166   4.880   5.809   0.640  0.5544  1.0396  0.6319
 5225TIP3    H237167   4.773   5.776   0.742  1.3110  1.2451  1.5173
 5226TIP3   OH237168   4.074   6.112   2.149 -0.6573 -0.4060 -0.6314
 5226TIP3    H137169   4.002   6.093   2.209 -0.6169  2.3728  0.4828
 5226TIP3    H237170   4.035   6.168   2.082  0.1215 -0.2687 -0.9787
 5227TIP3   OH237171   0.735   0.194   0.887  0.3691  0.3045 -0.1580
 5227TIP3    H137172   0.724   0.221   0.979 -0.1246 -0.3311 -0.0249
 5227TIP3    H237173   0.781   0.267   0.846  0.4132  0.6831  0.5523
 5228TIP3   OH237174   6.134   3.867   1.156 -0.6930 -0.0457  0.1905
 5228TIP3    H137175   6.042   3.864   1.185 -0.4683  1.2774  1.1499
 5228TIP3    H237176   6.183   3.834   1.231 -0.3934 -1.5357 -0.6127
 5229TIP3   OH237177   3.700   3.821  11.919  0.2559 -0.1857  0.6247
 5229TIP3    H137178   3.624   3.764  11.924  0.2477 -0.2412 -0.0160
 5229TIP3    H237179   3.749   3.790  11.842  0.4660  0.3957  0.5160
 5230TIP3   OH237180   4.281   5.587   1.323 -0.0630  0.2890  0.3865
 5230TIP3    H137181   4.324   5.522   1.378 -3.1908 -1.7484  0.7075
 5230TIP3    H237182   4.310   5.566   1.234 -1.8336 -2.4489  0.3424
 5231TIP3   OH237183   6.057   5.535   5.244  0.2321 -0.0179 -0.5767
 5231TIP3    H137184   6.001   5.537   5.321 -1.9057  0.5069 -2.0361
 5231TIP3    H237185   6.074   5.628   5.225 -1.5885  0.0600 -2.2214
 5232TIP3   OH237186   1.662   2.656  14.872  0.1030 -0.1176 -0.0008
 5232TIP3    H137187   1.665   2.751  14.886  0.7009 -0.2539  0.9489
 5232TIP3    H237188   1.733   2.639  14.810  1.7694 -0.2060  1.8153
 5233TIP3   OH237189   4.335   3.320  16.364 -0.5860  0.0377  0.5112
 5233TIP3    H137190   4.263   3.325  16.301 -0.2769 -0.8426  0.0747
 5233TIP3    H237191   4.397   3.387  16.334  0.2414 -1.3441 -1.0237
 5234TIP3   OH237192   2.604   0.416   2.014  0.1332 -0.7349 -0.0228
 5234TIP3    H137193   2.636   0.503   2.038  0.2121 -0.7420 -0.0986
 5234TIP3    H237194   2.584   0.374   2.097 -0.6359 -0.3744 -0.0235
 5235TIP3   OH237195   6.289   3.884   4.874 -0.7304 -0.1256 -0.0450
 5235TIP3    H137196   6.314   3.968   4.836 -1.8979  0.0442 -0.4907
 5235TIP3    H237197   6.370   3.847   4.907  0.1339  0.2383 -1.6773
 5236TIP3   OH237198   6.628   5.000  13.122  0.0258 -0.0129  0.5737
 5236TIP3    H137199   6.629   5.078  13.067  0.2014 -0.3877  0.0391
 5236TIP3    H237200   6.564   5.020  13.190  2.5330  2.0022  2.5392
 5237TIP3   OH237201   2.579   0.969  12.856  0.5055  0.7211  0.4411
 5237TIP3    H137202   2.552   0.878  12.845  0.1923  0.8344  0.2678
 5237TIP3    H237203   2.554   0.991  12.946 -0.5971  1.0280  0.0739
 5238TIP3   OH237204   4.725   4.815  14.282 -0.1225 -0.2396  0.3709
 5238TIP3    H137205   4.770   4.765  14.214  2.1700  1.0500  0.8351
 5238TIP3    H237206   4.662   4.753  14.320  1.7290 -2.4070  0.1279
 5239TIP3   OH237207   2.921   5.150   5.966  0.1852 -0.4083 -0.3214
 5239TIP3    H137208   2.897   5.226   6.018 -1.0200  0.1952 -1.6840
 5239TIP3    H237209   3.011   5.167   5.938 -0.0231  0.4487 -0.4802
 5240TIP3   OH237210   3.820   6.597   5.061  0.6655 -0.2172 -0.9148
 5240TIP3    H137211   3.780   6.512   5.042 -2.2755  1.2442 -1.8949
 5240TIP3    H237212   3.795   6.653   4.988  2.8351  1.4490 -0.4898
 5241TIP3   OH237213   3.797   2.865  15.147  0.1608  0.2711 -0.0238
 5241TIP3    H137214   3.862   2.826  15.207  1.5203  0.5269 -1.2673
 5241TIP3    H237215   3.817   2.825  15.062 -0.9312  0.8382 -0.5634
 5242TIP3   OH237216   3.197   4.396  16.041  0.3220  0.5007 -0.1195
 5242TIP3    H137217   3.222   4.477  15.996  1.0083  0.1600 -0.3811
 5242TIP3    H237218   3.272   4.338  16.027 -0.4410 -0.4149 -0.5203
 5243TIP3   OH237219   4.943   4.494  14.359 -0.5051 -0.0626  0.5322
 5243TIP3    H137220   4.898   4.522  14.438 -3.5405  0.7133 -1.3036
 5243TIP3    H237221   4.873   4.471  14.298  1.6638 -0.4328 -2.0145
 5244TIP3   OH237222   4.814   6.401   3.971  0.0403  0.5975 -0.1721
 5244TIP3    H137223   4.905   6.372   3.963  0.8265  2.9969 -0.8147
 5244TIP3    H237224   4.783   6.361   4.052  1.2900 -1.1544 -0.5078
 5245TIP3   OH237225   0.966   6.119  13.787  0.0987 -0.4565 -0.0276
 5245TIP3    H137226   0.874   6.103  13.765  0.3640 -2.2986  0.0266
 5245TIP3    H237227   1.004   6.155  13.707 -0.9800  1.9485  0.4425
 5246TIP3   OH237228   6.820   4.544  13.710  0.5467  0.2351  0.1731
 5246TIP3    H137229   6.887   4.536  13.641 -1.8963 -1.4879 -2.2309
 5246TIP3    H237230   6.862   4.508  13.788  3.0137  1.0192 -0.6737
 5247TIP3   OH237231   1.772   4.605  15.399 -0.0548 -0.1255 -0.0015
 5247TIP3    H137232   1.750   4.692  15.366  2.0899  0.6632  0.5202
 5247TIP3    H237233   1.700   4.584  15.459  0.0531  1.8997  0.9254
 5248TIP3   OH237234   6.031   0.350   0.269 -0.1076  0.8698 -0.8149
 5248TIP3    H137235   6.106   0.345   0.209  0.4790 -0.3615 -0.0296
 5248TIP3    H237236   5.984   0.429   0.242 -0.0226  0.2302 -3.0618
 5249TIP3   OH237237   4.967   4.810   4.515 -1.3983  0.1497  0.1388
 5249TIP3    H137238   4.966   4.716   4.536  0.1898 -0.0920 -0.7363
 5249TIP3    H237239   4.874   4.835   4.517 -2.0598 -1.8679 -1.3704
 5250TIP3   OH237240   4.697   3.415  11.933  0.5292 -0.2613 -0.1796
 5250TIP3    H137241   4.610   3.443  11.907 -0.0075 -1.4432  0.2530
 5250TIP3    H237242   4.749   3.419  11.852 -0.5037 -1.6353 -0.9521
 5251TIP3   OH237243   3.048   2.935  12.975  0.4237  0.3656  0.0995
 5251TIP3    H137244   3.078   2.914  13.063  0.3935  0.0342  0.0307
 5251TIP3    H237245   3.031   2.850  12.934  2.8583  0.3565 -1.0770
 5252TIP3   OH237246   5.395   0.074   4.228  1.0544  0.5807 -0.5488
 5252TIP3    H137247   5.304   0.064   4.199  1.5805 -0.4443 -1.9013
 5252TIP3    H237248   5.399   0.024   4.310  0.7061 -0.4801 -1.1584
 5253TIP3   OH237249   3.528   4.574   0.347 -0.0443 -0.4419 -0.5658
 5253TIP3    H137250   3.549   4.533   0.263  1.0936 -0.9460 -0.0643
 5253TIP3    H237251   3.588   4.532   0.409  0.2827  1.0858  0.1996
 5254TIP3   OH237252   2.294   5.827  13.389  0.0899  0.3224 -0.1947
 5254TIP3    H137253   2.298   5.914  13.347  1.9336  0.5276  0.3340
 5254TIP3    H237254   2.339   5.769  13.328 -0.4923 -0.1279 -0.2030
 5255TIP3   OH237255   1.319   5.758   4.549 -0.9264  0.2261 -0.0446
 5255TIP3    H137256   1.282   5.844   4.568 -1.0723  0.5087 -1.4819
 5255TIP3    H237257   1.255   5.717   4.490 -1.1191 -1.0933  1.0268
 5256TIP3   OH237258   4.229   3.612  13.122  0.2038  0.4780  0.5631
 5256TIP3    H137259   4.290   3.557  13.074 -0.1204  0.0909  0.5847
 5256TIP3    H237260   4.283   3.681  13.160  0.4506  0.8114 -0.3861
 5257TIP3   OH237261   3.697   0.753   4.647 -0.1815  0.3023  0.5842
 5257TIP3    H137262   3.772   0.812   4.637 -1.2868  1.7628  0.4621
 5257TIP3    H237263   3.687   0.713   4.560  0.2558  0.3547  0.5077
 5258TIP3   OH237264   2.599   5.393   0.479  0.0327  0.5943 -0.3964
 5258TIP3    H137265   2.679   5.401   0.531 -0.6896  0.4502  0.7852
 5258TIP3    H237266   2.534   5.445   0.528 -1.0551 -0.7797 -0.3336
 5259TIP3   OH237267   0.889   5.034   0.262 -0.6463 -0.2629  0.0940
 5259TIP3    H137268   0.889   5.017   0.168  2.8237 -1.2532  0.1448
 5259TIP3    H237269   0.889   4.947   0.303  0.0554  0.1018  0.9134
 5260TIP3   OH237270   1.890   3.964  12.988  0.4428  0.3008 -0.1101
 5260TIP3    H137271   1.821   3.910  12.950  1.1298 -0.8090  0.1471
 5260TIP3    H237272   1.858   4.054  12.982 -0.1794 -0.0024 -1.7681
 5261TIP3   OH237273   0.378   4.759   6.107 -0.1989  0.2288  0.5236
 5261TIP3    H137274   0.453   4.817   6.098 -0.1277  0.0762  0.1067
 5261TIP3    H237275   0.416   4.671   6.111 -0.4064  0.0476 -0.9161
 5262TIP3   OH237276   4.439   3.134  16.918  0.1118 -0.2415 -0.2589
 5262TIP3    H137277   4.506   3.065  16.917 -1.4350 -1.8298  0.2219
 5262TIP3    H237278   4.456   3.186  16.839  2.6938  0.2394  0.5273
 5263TIP3   OH237279   2.363   0.671  13.399 -0.0325  0.5317  0.2590
 5263TIP3    H137280   2.401   0.598  13.349 -0.9651  0.8305 -0.9433
 5263TIP3    H237281   2.406   0.667  13.484  0.6562 -0.8182 -0.1208
 5264TIP3   OH237282   6.344   0.229  11.022 -0.1951  0.1284 -0.6870
 5264TIP3    H137283   6.344   0.304  11.080  1.5967 -1.5759  1.7301
 5264TIP3    H237284   6.375   0.263  10.938  1.3876  1.9510  0.5596
 5265TIP3   OH237285   3.800   6.319  13.595  0.3767  0.1297 -0.6387
 5265TIP3    H137286   3.870   6.263  13.630  0.3571  0.7459  0.4390
 5265TIP3    H237287   3.760   6.267  13.526  1.9909 -0.1895 -1.3851
 5266TIP3   OH237288   2.163   4.940  12.559  0.5512 -0.1333  0.0608
 5266TIP3    H137289   2.106   4.868  12.536  0.3120 -0.0060  0.2449
 5266TIP3    H237290   2.219   4.953  12.482  1.1462 -1.0377  0.3327
 5267TIP3   OH237291   0.210   2.194  13.346  0.1541 -0.3214 -0.5851
 5267TIP3    H137292   0.227   2.242  13.265 -0.4838  1.2412  0.1528
 5267TIP3    H237293   0.266   2.117  13.341  1.6363  0.7709 -1.6164
 5268TIP3   OH237294   5.769   6.782  16.555 -0.1965 -0.4390 -0.1563
 5268TIP3    H137295   5.764   6.689  16.575 -0.6496 -0.1168  1.3419
 5268TIP3    H237296   5.814   6.820  16.630 -0.6285  0.6420 -0.4281
 5269TIP3   OH237297   6.622   0.858  15.713 -0.5745  0.4733 -0.0703
 5269TIP3    H137298   6.583   0.908  15.785 -1.2272 -0.5714  0.3278
 5269TIP3    H237299   6.584   0.770  15.722 -0.3869  0.2303 -1.4800
 5270TIP3   OH237300   2.609   2.789  12.874  0.0657  0.1049 -0.4444
 5270TIP3    H137301   2.522   2.782  12.911 -0.7587  0.8741 -2.1383
 5270TIP3    H237302   2.610   2.726  12.802  1.8938 -1.9338  1.2048
 5271TIP3   OH237303   6.597   2.663   3.043 -0.7657  0.1331  0.1762
 5271TIP3    H137304   6.560   2.670   2.955  0.4917  1.4483 -0.2822
 5271TIP3    H237305   6.688   2.690   3.033 -0.5969  0.2992  1.8907
 5272TIP3   OH237306   0.442   2.627   4.713  0.5707  0.7334  0.6259
 5272TIP3    H137307   0.364   2.587   4.751  0.1568  2.2001  1.3827
 5272TIP3    H237308   0.421   2.640   4.621 -0.4740  1.9885  1.0144
 5273TIP3   OH237309   1.186   2.922   6.614  0.6393  0.5249  0.0883
 5273TIP3    H137310   1.267   2.975   6.615  0.4471  0.8678 -0.9323
 5273TIP3    H237311   1.217   2.832   6.609  0.9624  0.6006  0.5911
 5274TIP3   OH237312   0.303   2.609   1.170  0.1100 -0.1787 -0.3420
 5274TIP3    H137313   0.353   2.534   1.137  1.5103 -0.1388  1.5071
 5274TIP3    H237314   0.230   2.570   1.217 -0.8944 -0.2663 -1.8946
 5275TIP3   OH237315   3.992   4.033   3.457  0.5031  0.6872  0.1583
 5275TIP3    H137316   3.945   4.077   3.386 -0.2834  1.0834  0.9081
 5275TIP3    H237317   4.072   4.085   3.468  0.7660  0.4625 -0.6064
 5276TIP3   OH237318   5.180   0.274   2.584  0.1475  0.5269 -0.4104
 5276TIP3    H137319   5.157   0.209   2.518  1.7494 -0.2214 -0.2840
 5276TIP3    H237320   5.107   0.273   2.645  0.3088 -1.5366 -0.1640
 5277TIP3   OH237321   0.056   6.555   4.528  0.0808  0.2014 -0.3666
 5277TIP3    H137322  -0.025   6.555   4.476  0.0197  0.0032 -0.2697
 5277TIP3    H237323   0.033   6.510   4.609 -0.1075  1.4036  0.2685
 5278TIP3   OH237324   0.451   0.446  13.036  0.1499  0.0121  0.1338
 5278TIP3    H137325   0.360   0.474  13.027 -0.1171 -0.7672  0.3076
 5278TIP3    H237326   0.458   0.419  13.128 -0.5782 -3.6488 -0.7091
 5279TIP3   OH237327   1.257   6.385  11.739 -0.3613 -0.3108 -0.5862
 5279TIP3    H137328   1.217   6.365  11.823  2.1021  0.2114  0.8097
 5279TIP3    H237329   1.272   6.300  11.698  1.0688 -0.8007  0.8663
 5280TIP3   OH237330   1.731   3.212   0.744 -0.0739 -0.4401 -0.5780
 5280TIP3    H137331   1.706   3.174   0.660 -1.7086 -0.0411 -0.2961
 5280TIP3    H237332   1.649   3.233   0.787  0.7499  0.5427  0.5998
 5281TIP3   OH237333   1.093   1.189  16.233  0.6514 -0.3006  0.1500
 5281TIP3    H137334   1.087   1.122  16.164  0.5272  0.5023 -0.6421
 5281TIP3    H237335   1.176   1.171  16.276 -0.2206 -2.1428  1.2322
 5282TIP3   OH237336   1.663   5.994   3.871 -0.1935 -0.3998  0.0509
 5282TIP3    H137337   1.669   6.040   3.787  2.0451 -0.4639  0.1025
 5282TIP3    H237338   1.709   5.911   3.856 -1.7231 -1.4297  0.7530
 5283TIP3   OH237339   4.577   6.539  13.550  0.0258  0.1594  0.7497
 5283TIP3    H137340   4.616   6.465  13.504 -1.9397 -0.9492  0.7289
 5283TIP3    H237341   4.649   6.600  13.564  1.0864 -0.2814 -2.1304
 5284TIP3   OH237342   5.194   1.068   1.024 -0.2610  0.5537 -0.6099
 5284TIP3    H137343   5.194   1.158   0.990  1.3497  0.0722 -1.9950
 5284TIP3    H237344   5.262   1.023   0.975  1.0490 -0.6879  2.1218
 5285TIP3   OH237345   1.100   1.590  12.228  0.9244 -0.2212  0.4542
 5285TIP3    H137346   1.019   1.600  12.177  1.3146  2.5751  0.2359
 5285TIP3    H237347   1.079   1.522  12.292 -1.1017 -0.6007 -0.5010
 5286TIP3   OH237348   2.745   5.580   6.510  0.3252 -0.2358  0.4911
 5286TIP3    H137349   2.816   5.586   6.573  0.6158  0.0657  0.1415
 5286TIP3    H237350   2.724   5.487   6.505  1.8777 -0.5653 -0.6970
 5287TIP3   OH237351   4.682   5.867  12.046  0.2808  0.5747 -0.1394
 5287TIP3    H137352   4.702   5.909  11.962  0.2492 -0.5092 -0.7138
 5287TIP3    H237353   4.764   5.825  12.072  0.2482  0.7820  0.3076
 5288TIP3   OH237354   4.796   1.233   3.126 -0.0268  0.0926  0.0977
 5288TIP3    H137355   4.702   1.245   3.115  0.0053 -1.0567 -1.9108
 5288TIP3    H237356   4.804   1.174   3.201 -0.8327  0.9234  0.8612
 5289TIP3   OH237357   5.634   4.369  15.831 -0.6722 -0.4638  0.3136
 5289TIP3    H137358   5.640   4.452  15.878  0.7378  0.1528 -0.8506
 5289TIP3    H237359   5.614   4.304  15.898  0.5021  0.4885  1.6416
 5290TIP3   OH237360   2.263   5.951  12.621  0.4595  0.0355  0.8008
 5290TIP3    H137361   2.279   6.045  12.632 -0.6248  0.6437 -1.8720
 5290TIP3    H237362   2.303   5.930  12.537  1.2186 -2.0738  1.6378
 5291TIP3   OH237363   0.780   3.471   0.708 -0.0292  0.6255  0.8204
 5291TIP3    H137364   0.751   3.408   0.773  1.3426 -0.4644  0.4220
 5291TIP3    H237365   0.833   3.534   0.757  2.4427 -1.1459  0.5988
 5292TIP3   OH237366   4.598   1.654   3.293  0.2576  0.4643 -0.5426
 5292TIP3    H137367   4.596   1.682   3.201  1.7453 -1.7616 -1.3133
 5292TIP3    H237368   4.508   1.666   3.323 -0.6052 -0.1015 -2.7287
 5293TIP3   OH237369   3.195   6.045   6.520  0.2755 -0.2815  0.8094
 5293TIP3    H137370   3.144   6.103   6.576 -0.8782 -0.2150 -0.2585
 5293TIP3    H237371   3.271   6.020   6.573  1.2095  2.7262  1.1122
 5294TIP3   OH237372   3.828   4.622  14.403 -0.6244 -0.1632 -0.3446
 5294TIP3    H137373   3.792   4.699  14.360 -0.9262 -0.1618 -0.0922
 5294TIP3    H237374   3.856   4.565  14.331  2.1802  1.3418 -0.5983
 5295TIP3   OH237375   6.798   4.763   1.938 -0.3317 -0.8417 -0.1502
 5295TIP3    H137376   6.807   4.789   1.847 -0.2826 -1.4437 -0.3237
 5295TIP3    H237377   6.705   4.745   1.949 -0.2780 -1.1676 -0.2002
 5296TIP3   OH237378   1.069   0.117   1.844  0.7203  0.0218 -0.2364
 5296TIP3    H137379   1.059   0.032   1.887 -1.9209  0.6886  0.6691
 5296TIP3    H237380   1.072   0.180   1.916 -0.4840  0.9116 -0.9355
 5297TIP3   OH237381   3.501   2.971   2.549  0.3798  0.1007 -0.2573
 5297TIP3    H137382   3.525   2.881   2.525  0.3886 -0.1233  0.5674
 5297TIP3    H237383   3.553   3.026   2.490 -0.3430 -0.4262 -1.4506
 5298TIP3   OH237384   5.272   4.375   0.090 -0.5544  0.8940 -0.1743
 5298TIP3    H137385   5.189   4.407   0.127 -1.2671 -0.7146 -0.3294
 5298TIP3    H237386   5.296   4.300   0.144 -0.2812  0.0746 -1.3967
 5299TIP3   OH237387   0.820   3.003   0.682 -0.3048  1.1151 -0.0519
 5299TIP3    H137388   0.742   3.058   0.679 -1.1649 -0.0192  0.4736
 5299TIP3    H237389   0.840   2.995   0.776 -1.3057 -0.8956  0.0596
 5300TIP3   OH237390   4.705   1.581  14.128 -0.2662  0.1917 -0.0276
 5300TIP3    H137391   4.767   1.653  14.133 -1.6611  1.4685 -0.5240
 5300TIP3    H237392   4.645   1.595  14.201 -0.7226 -0.2818 -0.2985
 5301TIP3   OH237393   1.649   1.229  10.810  0.7249 -0.0361  0.4094
 5301TIP3    H137394   1.573   1.257  10.759  1.1838  1.4339  0.5000
 5301TIP3    H237395   1.723   1.277  10.773  1.8784 -2.2719 -0.4227
 5302TIP3   OH237396   3.858   2.286  12.637 -0.2759  0.0590 -0.4766
 5302TIP3    H137397   3.916   2.257  12.706 -0.5635  0.0655 -0.2278
 5302TIP3    H237398   3.825   2.205  12.597 -1.0015  0.0367  0.1524
 5303TIP3   OH237399   1.881   6.656   3.955  0.4285 -0.3330 -0.0159
 5303TIP3    H137400   1.952   6.592   3.947 -0.5844 -1.7236  1.5541
 5303TIP3    H237401   1.801   6.604   3.952 -0.4526  0.9446  0.5437
 5304TIP3   OH237402   4.181   1.407   0.541 -0.4443  0.4217  0.2468
 5304TIP3    H137403   4.141   1.438   0.460  0.1329 -0.7355 -0.5123
 5304TIP3    H237404   4.232   1.331   0.515 -1.9147 -1.2803  2.0206
 5305TIP3   OH237405   2.219   5.455  15.559 -0.0553  0.3253 -0.2963
 5305TIP3    H137406   2.309   5.458  15.592 -0.1180  0.4118 -0.1342
 5305TIP3    H237407   2.221   5.388  15.490 -0.3596 -1.3030  1.2052
 5306TIP3   OH237408   6.342   1.627  14.874 -0.5950  0.1191 -0.2395
 5306TIP3    H137409   6.360   1.644  14.966 -1.5972 -0.8697  0.1593
 5306TIP3    H237410   6.300   1.541  14.873  1.7624 -1.1566 -1.8527
 5307TIP3   OH237411   0.726   3.359  14.535  0.4447  0.3406  0.1539
 5307TIP3    H137412   0.731   3.445  14.578 -0.6598  0.4423  0.1088
 5307TIP3    H237413   0.633   3.342  14.526  0.6537 -0.6705 -0.2563
 5308TIP3   OH237414   4.087   3.802   1.875  0.4032 -0.5527 -0.0540
 5308TIP3    H137415   4.107   3.795   1.782  1.3235  1.0771 -0.0090
 5308TIP3    H237416   4.172   3.813   1.917 -0.1635  1.4971  0.6715
 5309TIP3   OH237417   5.606   6.261   4.884 -0.2746  0.0736  0.0968
 5309TIP3    H137418   5.669   6.261   4.956 -1.3635 -0.5353  1.0972
 5309TIP3    H237419   5.521   6.274   4.927 -0.9383 -0.1311 -1.1074
 5310TIP3   OH237420   3.655   3.257  14.155  0.3830  0.8601 -0.5436
 5310TIP3    H137421   3.623   3.283  14.069  0.8243 -0.4587 -1.1405
 5310TIP3    H237422   3.596   3.187  14.184 -0.0814  1.6426  0.4831
 5311TIP3   OH237423   0.960   3.229   5.529 -0.3515  0.2107  0.3353
 5311TIP3    H137424   0.942   3.136   5.540 -2.6976  0.8010  2.2900
 5311TIP3    H237425   1.049   3.232   5.493  0.4222 -2.7138  1.7057
 5312TIP3   OH237426   0.991   5.806  11.460  0.5330  0.0396  0.0612
 5312TIP3    H137427   1.072   5.756  11.455 -1.0814 -2.7220 -1.3428
 5312TIP3    H237428   1.004   5.879  11.400  1.9201 -0.4612 -0.2765
 5313TIP3   OH237429   4.034   2.984   5.906 -0.1226 -0.4817 -0.0778
 5313TIP3    H137430   4.117   2.977   5.953 -0.5802  0.9853  1.0258
 5313TIP3    H237431   4.056   3.026   5.823  0.2139  0.0782  0.2931
 5314TIP3   OH237432   2.791   1.943  14.394  0.3141  0.1821  0.0351
 5314TIP3    H137433   2.790   2.034  14.366 -1.0453 -0.1987 -1.2824
 5314TIP3    H237434   2.704   1.909  14.371  0.5247 -1.2565  1.1583
 5315TIP3   OH237435   6.052   1.335  15.774 -0.1253  0.8595  0.1280
 5315TIP3    H137436   6.034   1.266  15.838 -1.0722  1.4665  0.5433
 5315TIP3    H237437   5.969   1.347  15.728  0.1284  1.4960 -0.1753
 5316TIP3   OH237438   3.564   5.534   1.594 -0.0065 -0.4976  0.6703
 5316TIP3    H137439   3.642   5.479   1.583  1.0417  1.2446 -1.4900
 5316TIP3    H237440   3.599   5.620   1.614 -1.2387  0.5958 -1.4950
 5317TIP3   OH237441   1.551   5.267   1.750  0.2755  0.2275 -0.2873
 5317TIP3    H137442   1.517   5.269   1.661  2.1332  0.8094 -1.0186
 5317TIP3    H237443   1.478   5.232   1.802 -0.8229 -0.1944 -2.0150
 5318TIP3   OH237444   5.001   3.270  14.692  0.1753  0.0009  0.4595
 5318TIP3    H137445   4.968   3.360  14.695 -0.1273 -0.0323 -1.1858
 5318TIP3    H237446   4.927   3.218  14.660  0.6521 -0.6772  0.4453
 5319TIP3   OH237447   2.310   6.687  15.295 -0.2273 -0.1935  0.9778
 5319TIP3    H137448   2.313   6.632  15.373 -1.2308 -0.9745  0.5029
 5319TIP3    H237449   2.401   6.694  15.267 -0.1069 -2.2731  0.6457
 5320TIP3   OH237450   2.108   2.676  12.493  0.3483 -0.0636 -0.1463
 5320TIP3    H137451   2.083   2.767  12.507  1.9539  0.7349 -2.0522
 5320TIP3    H237452   2.043   2.643  12.431 -0.7459 -0.5302  1.1945
 5321TIP3   OH237453   6.776   6.700  13.625 -1.0190  0.4234 -0.0061
 5321TIP3    H137454   6.717   6.770  13.654  1.0596  2.2548  0.0358
 5321TIP3    H237455   6.819   6.736  13.547 -1.2231 -1.5904 -1.1132
 5322TIP3   OH237456   0.176   0.491   2.968  0.2211  0.0966  0.0449
 5322TIP3    H137457   0.153   0.583   2.962 -1.1992 -0.2754 -0.6731
 5322TIP3    H237458   0.196   0.465   2.878  1.3573 -0.1325  0.3451
 5323TIP3   OH237459   0.487   5.618   4.355  0.3127 -0.9587 -0.3740
 5323TIP3    H137460   0.410   5.656   4.397  0.3432 -1.1789 -0.1195
 5323TIP3    H237461   0.456   5.593   4.268  0.2604 -0.4650 -0.4999
 5324TIP3   OH237462   3.581   1.394   4.915 -0.0593  0.1165 -0.4579
 5324TIP3    H137463   3.653   1.438   4.960 -0.8495 -0.5260  1.5701
 5324TIP3    H237464   3.578   1.307   4.955 -0.4095 -0.7506 -2.2733
 5325TIP3   OH237465   3.257   3.230  13.211 -0.1207 -0.4241 -0.0861
 5325TIP3    H137466   3.231   3.199  13.298 -0.2875  0.6265  0.2549
 5325TIP3    H237467   3.231   3.160  13.152  1.3264 -1.8085  0.8432
 5326TIP3   OH237468   3.823   6.579  13.718  0.0178 -0.3246  0.3581
 5326TIP3    H137469   3.739   6.620  13.694  1.6388  1.3126 -3.2179
 5326TIP3    H237470   3.832   6.506  13.657  0.6230 -1.3643  1.6476
 5327TIP3   OH237471   3.936   0.932  12.952  0.7869  0.2827  0.5877
 5327TIP3    H137472   4.026   0.905  12.972  0.4526 -1.7583 -0.3227
 5327TIP3    H237473   3.890   0.927  13.035  1.0255 -0.9177  0.6640
 5328TIP3   OH237474   0.068   2.178   3.198  0.5025 -0.4275 -0.6757
 5328TIP3    H137475   0.017   2.159   3.119 -1.6212  0.1996  0.4647
 5328TIP3    H237476   0.152   2.135   3.183 -1.5863 -4.9351 -1.1275
 5329TIP3   OH237477   2.184   5.333  13.739 -0.1870 -0.1841 -0.1536
 5329TIP3    H137478   2.095   5.309  13.764 -0.2174  0.4847  0.4045
 5329TIP3    H237479   2.195   5.294  13.652 -0.5191 -1.4807  0.3520
 5330TIP3   OH237480   1.244   1.627   0.809  0.6072  0.0100 -0.2919
 5330TIP3    H137481   1.167   1.676   0.779  1.4353  0.2263 -2.1904
 5330TIP3    H237482   1.214   1.536   0.813  0.5405 -0.1163 -2.3587
 5331TIP3   OH237483   1.498   4.009  11.506  0.5117 -0.2194  0.1402
 5331TIP3    H137484   1.570   3.982  11.449  0.6060 -1.6849  0.9086
 5331TIP3    H237485   1.419   3.981  11.460  0.5428 -0.5954  0.3160
 5332TIP3   OH237486   1.611   3.470   2.257 -0.0473  0.2293  0.1282
 5332TIP3    H137487   1.602   3.565   2.262 -2.4649  0.2765 -2.6355
 5332TIP3    H237488   1.705   3.455   2.246  0.1633  2.5595 -2.2079
 5333TIP3   OH237489   5.587   5.844   5.583 -0.1135 -0.0579 -0.1046
 5333TIP3    H137490   5.670   5.851   5.629 -0.2366 -2.2920  0.5867
 5333TIP3    H237491   5.609   5.855   5.490  0.7225  0.6249  0.1624
 5334TIP3   OH237492   6.746   3.391   0.308 -0.0154 -0.6394  0.2845
 5334TIP3    H137493   6.721   3.473   0.349  0.2069 -0.9180  1.0044
 5334TIP3    H237494   6.824   3.412   0.257 -0.3539 -0.2660 -0.0887
 5335TIP3   OH237495   1.405   0.318  12.213  0.5789 -0.6124  0.2690
 5335TIP3    H137496   1.482   0.314  12.156 -0.3282 -0.0444 -1.0660
 5335TIP3    H237497   1.357   0.237  12.194 -0.2767  0.0704 -0.6599
 5336TIP3   OH237498   1.877   5.466   2.790 -0.1631 -0.1288  0.2980
 5336TIP3    H137499   1.852   5.433   2.704 -0.3817  0.0192  0.3043
 5336TIP3    H237500   1.821   5.418   2.852  1.2556 -1.5979  0.5243
 5337TIP3   OH237501   3.836   3.105  12.749  0.0203 -0.3533 -0.6368
 5337TIP3    H137502   3.844   3.123  12.843  0.8497  0.6408 -0.8787
 5337TIP3    H237503   3.908   3.046  12.729 -0.1405 -0.5440 -0.6523
 5338TIP3   OH237504   1.830   1.199  14.708  0.2834 -0.9071 -0.0421
 5338TIP3    H137505   1.880   1.277  14.684  0.0778 -0.9216 -0.5400
 5338TIP3    H237506   1.856   1.133  14.643 -0.9719 -0.6750 -0.8172
 5339TIP3   OH237507   5.096   5.847  10.751  0.0460  0.7541  0.4706
 5339TIP3    H137508   5.043   5.810  10.680  0.1923  0.2041  0.6438
 5339TIP3    H237509   5.176   5.794  10.752  0.0974  0.8333  0.9670
 5340TIP3   OH237510   4.654   1.577   4.362 -0.2070 -0.3696  0.4217
 5340TIP3    H137511   4.656   1.582   4.266  4.1314  0.8596  0.3383
 5340TIP3    H237512   4.645   1.484   4.381 -1.3900 -0.6143 -1.1575
 5341TIP3   OH237513   0.194   1.377   6.444  1.0515 -0.8155  0.2806
 5341TIP3    H137514   0.152   1.357   6.360  1.5789 -1.1224  0.0803
 5341TIP3    H237515   0.240   1.296   6.467 -0.0597 -1.1257  1.4660
 5342TIP3   OH237516   3.650   3.113  12.251  0.1631 -0.0590  0.1563
 5342TIP3    H137517   3.683   3.024  12.268 -1.7181 -1.0986 -1.2623
 5342TIP3    H237518   3.600   3.135  12.329  0.9754 -0.0610  0.6877
 5343TIP3   OH237519   0.513   6.526  17.025 -0.1138 -0.3620  0.2430
 5343TIP3    H137520   0.532   6.600  17.083 -0.1104 -1.1570  1.2889
 5343TIP3    H237521   0.418   6.527  17.014  0.0175  0.7989 -1.1589
 5344TIP3   OH237522   3.762   1.226   5.378 -0.4049  0.3488  0.5238
 5344TIP3    H137523   3.834   1.213   5.315  0.4740  2.7154  0.9315
 5344TIP3    H237524   3.765   1.148   5.434 -0.1302 -1.0132 -1.3048
 5345TIP3   OH237525   4.220   4.717  11.112 -0.1636 -0.0725  0.5914
 5345TIP3    H137526   4.180   4.802  11.132 -0.0665 -0.1463  1.1111
 5345TIP3    H237527   4.288   4.737  11.048  0.9871  0.5053  1.9307
 5346TIP3   OH237528   4.118   0.925   2.365  0.0946 -0.1233 -0.0697
 5346TIP3    H137529   4.148   0.860   2.301  2.0668  1.3227 -0.7257
 5346TIP3    H237530   4.135   1.009   2.322 -0.8996  0.8654  1.3936
 5347TIP3   OH237531   6.591   5.870   2.058 -0.2419  0.3593 -0.7812
 5347TIP3    H137532   6.637   5.941   2.103 -1.5767  0.9645 -0.3377
 5347TIP3    H237533   6.656   5.799   2.052  0.6642  1.1013  0.0292
 5348TIP3   OH237534   5.279   1.334  12.420 -0.1638 -0.4121  0.3757
 5348TIP3    H137535   5.360   1.343  12.471 -0.1178  1.0520  0.0956
 5348TIP3    H237536   5.232   1.263  12.462 -0.0706  0.6365  2.3953
 5349TIP3   OH237537   5.072   2.328   3.157  0.2096  0.3341 -0.4316
 5349TIP3    H137538   5.087   2.387   3.083  2.0871  0.1863 -0.2218
 5349TIP3    H237539   5.060   2.242   3.118 -2.7738  0.7851 -0.7559
 5350TIP3   OH237540   2.347   2.625   0.614  0.3571  0.5876  0.2976
 5350TIP3    H137541   2.344   2.538   0.654 -2.0527  0.3377 -0.2963
 5350TIP3    H237542   2.268   2.669   0.645  0.9641  2.1854 -0.2921
 5351TIP3   OH237543   0.542   4.305  15.733  0.2320  0.2703 -0.0102
 5351TIP3    H137544   0.611   4.256  15.777 -0.3606 -0.5731  0.0028
 5351TIP3    H237545   0.479   4.325  15.802 -0.7979 -1.2293 -0.4788
 5352TIP3   OH237546   2.711   3.517   0.663  0.0273 -0.5389  0.3987
 5352TIP3    H137547   2.691   3.579   0.733 -1.3490 -1.7780  1.1521
 5352TIP3    H237548   2.631   3.466   0.651  0.9119 -1.7823 -0.6101
 5353TIP3   OH237549   1.607   1.006  12.053 -0.4105  0.1185 -0.4503
 5353TIP3    H137550   1.637   1.097  12.059  0.9487  0.0382 -3.7378
 5353TIP3    H237551   1.524   1.005  12.101  0.5123  2.5458  1.4287
 5354TIP3   OH237552   0.192   5.457   0.357 -0.0335 -0.5795  0.3464
 5354TIP3    H137553   0.211   5.495   0.442  0.0345 -0.4954  0.2945
 5354TIP3    H237554   0.229   5.519   0.294  0.4662 -0.9462  0.2719
 5355TIP3   OH237555   4.125   1.783  12.906 -0.1690 -0.0761  0.5699
 5355TIP3    H137556   4.183   1.716  12.869 -1.7317 -0.5810 -1.0844
 5355TIP3    H237557   4.083   1.738  12.980  0.5077 -0.1551  0.9134
 5356TIP3   OH237558   0.240   3.640   2.794 -0.1521  0.2109 -0.0450
 5356TIP3    H137559   0.294   3.568   2.764 -0.0695  0.1314  0.2892
 5356TIP3    H237560   0.271   3.716   2.744 -1.5110 -0.3371 -1.7768
 5357TIP3   OH237561   1.976   6.779   3.258 -0.3961  0.5958 -0.7463
 5357TIP3    H137562   1.963   6.775   3.163 -0.6990 -0.5263 -0.6629
 5357TIP3    H237563   2.066   6.750   3.271 -0.5646  0.1236 -0.6371
 5358TIP3   OH237564   0.741   5.851  17.148  0.4328  0.1208 -0.1750
 5358TIP3    H137565   0.750   5.946  17.156 -0.1218  0.1293  0.3537
 5358TIP3    H237566   0.647   5.834  17.156  0.6864 -0.6406  1.5643
 5359TIP3   OH237567   4.121   6.584  11.510 -0.2715  0.5706 -0.6269
 5359TIP3    H137568   4.167   6.641  11.572  1.1465 -1.1868  0.0137
 5359TIP3    H237569   4.160   6.603  11.425  1.0949 -0.2581 -0.2252
 5360TIP3   OH237570   5.062   5.213  14.142 -0.1064  0.2063 -0.3439
 5360TIP3    H137571   5.041   5.193  14.050  2.2806  0.5260 -1.0463
 5360TIP3    H237572   5.117   5.140  14.170  0.0544  0.6309  0.4841
 5361TIP3   OH237573   2.537   3.741   5.594 -0.2923 -0.2662  0.3681
 5361TIP3    H137574   2.496   3.680   5.654 -0.1640  1.6492  2.5365
 5361TIP3    H237575   2.519   3.828   5.631 -1.0812  1.1398 -2.9189
 5362TIP3   OH237576   4.982   2.881   3.712 -0.4248  0.0111  0.3978
 5362TIP3    H137577   4.900   2.834   3.702  0.2402 -1.3953  1.2188
 5362TIP3    H237578   5.010   2.862   3.802  0.4865  0.9596  0.3283
 5363TIP3   OH237579   6.018   3.092  13.063  0.0751 -0.4134  0.5368
 5363TIP3    H137580   5.967   3.110  13.142  1.4106  0.7525  1.1824
 5363TIP3    H237581   6.107   3.074  13.095  0.4963 -0.5782 -0.6587
 5364TIP3   OH237582   2.802   4.607   6.346 -0.0532  0.1194 -0.3036
 5364TIP3    H137583   2.894   4.610   6.319 -0.0299 -0.8020 -0.3489
 5364TIP3    H237584   2.767   4.528   6.304 -1.3780  1.4836 -1.8760
 5365TIP3   OH237585   0.663   1.048   3.756 -0.2136 -0.3195 -0.1238
 5365TIP3    H137586   0.709   1.054   3.840  0.5892  0.7348 -0.6142
 5365TIP3    H237587   0.666   1.136   3.721  1.0816 -1.0741 -2.0830
 5366TIP3   OH237588   4.039   3.838  10.438  0.2164  0.3310 -0.3987
 5366TIP3    H137589   4.112   3.789  10.476 -0.6392 -0.6692 -0.0090
 5366TIP3    H237590   3.976   3.846  10.509  0.4108  2.2029 -0.3911
 5367TIP3   OH237591   2.578   2.152   3.751 -0.4805  0.1040 -0.1773
 5367TIP3    H137592   2.593   2.123   3.841 -0.1027  0.8065 -0.0003
 5367TIP3    H237593   2.602   2.077   3.697 -2.6313 -1.0355  0.3597
 5368TIP3   OH237594   2.192   3.653  10.534 -0.3920  0.3048 -0.3912
 5368TIP3    H137595   2.280   3.627  10.507 -0.5118 -1.8780  1.0247
 5368TIP3    H237596   2.134   3.588  10.494 -1.1845  0.7066  0.0687
 5369TIP3   OH237597   5.693   1.541  15.075  0.1788  0.5465  0.1305
 5369TIP3    H137598   5.739   1.625  15.065  0.1731  0.6307  0.7285
 5369TIP3    H237599   5.611   1.552  15.027  0.6253  0.5211 -0.6530
 5370TIP3   OH237600   5.075   2.479   4.602  0.2634  0.1632 -0.2879
 5370TIP3    H137601   5.024   2.401   4.578 -0.2574  0.4502 -0.1247
 5370TIP3    H237602   5.011   2.538   4.641  0.1892  1.6251 -2.4580
 5371TIP3   OH237603   1.413   1.980  12.798 -0.5990 -0.0771 -0.3266
 5371TIP3    H137604   1.434   1.901  12.749  0.1835  0.2671 -0.5553
 5371TIP3    H237605   1.407   1.950  12.889 -0.2374 -0.3869 -0.4021
 5372TIP3   OH237606   5.126   0.782   2.883  0.3917 -0.5675  0.0366
 5372TIP3    H137607   5.211   0.758   2.920 -0.7949 -2.2102  1.8645
 5372TIP3    H237608   5.065   0.720   2.921 -1.6933  0.6915 -1.0808
 5373TIP3   OH237609   6.331   4.314   5.005  0.0561 -0.5946 -0.2215
 5373TIP3    H137610   6.257   4.334   4.948  0.2136  1.9524  0.3738
 5373TIP3    H237611   6.373   4.238   4.964 -1.8189 -0.9979 -1.5346
 5374TIP3   OH237612   1.537   0.966   4.877 -0.5772  0.0598 -0.2657
 5374TIP3    H137613   1.486   1.026   4.823 -0.7537  1.6473  1.5491
 5374TIP3    H237614   1.494   0.882   4.868 -0.3421  0.1533 -2.8852
 5375TIP3   OH237615   1.532   0.752  13.068 -0.4225  0.0978 -0.3258
 5375TIP3    H137616   1.590   0.729  13.140 -0.3154 -1.3821 -0.8472
 5375TIP3    H237617   1.504   0.668  13.032 -3.7658  0.6984  0.5647
 5376TIP3   OH237618   0.732   5.372   0.011 -1.2668  0.7688 -0.2959
 5376TIP3    H137619   0.650   5.351   0.055 -2.4458  3.0041 -1.2247
 5376TIP3    H237620   0.728   5.324  -0.072 -2.5956  2.2897 -1.1707
 5377TIP3   OH237621   6.660   4.642   4.439  0.7860  0.1604 -0.1174
 5377TIP3    H137622   6.676   4.725   4.394 -0.2699  0.7722  0.5986
 5377TIP3    H237623   6.654   4.666   4.532 -2.2935 -0.2285 -0.1163
 5378TIP3   OH237624   0.420   5.003  15.572 -0.0399  0.7492  0.8386
 5378TIP3    H137625   0.357   5.061  15.530  0.2191  0.3272 -0.1726
 5378TIP3    H237626   0.504   5.049  15.564  0.1053  0.4069  0.3598
 5379TIP3   OH237627   4.172   1.918  13.171  0.2935  0.0772  0.3691
 5379TIP3    H137628   4.193   1.902  13.079 -1.0663 -1.7231  0.3193
 5379TIP3    H237629   4.132   1.837  13.201  0.8351  0.5736  2.6137
 5380TIP3   OH237630   3.893   2.956   0.423  0.0158  0.2533  0.2243
 5380TIP3    H137631   3.834   2.954   0.499  0.5519  0.3955  0.6521
 5380TIP3    H237632   3.975   2.993   0.457 -0.1767  1.6650 -0.7391
 5381TIP3   OH237633   1.857   1.142   2.259 -0.5819 -0.5467 -0.9415
 5381TIP3    H137634   1.941   1.139   2.305 -0.1575  1.7099 -1.4709
 5381TIP3    H237635   1.843   1.051   2.231  0.4040 -1.4946  1.3104
 5382TIP3   OH237636   5.059   4.503  11.637 -0.1324 -0.7794 -0.0356
 5382TIP3    H137637   4.969   4.493  11.667 -0.1289 -0.9742 -0.0866
 5382TIP3    H237638   5.110   4.511  11.717 -0.3527  0.7607 -0.0293
 5383TIP3   OH237639   3.546   3.996   4.782 -0.0486 -0.4579 -0.6889
 5383TIP3    H137640   3.470   4.030   4.734  0.2156  1.5362  0.1916
 5383TIP3    H237641   3.542   4.040   4.867  2.1918 -0.1031 -0.7088
 5384TIP3   OH237642   1.619   2.063  16.180 -0.3588 -0.1883 -0.2648
 5384TIP3    H137643   1.613   2.056  16.085 -0.0855 -1.5581 -0.2023
 5384TIP3    H237644   1.529   2.061  16.211 -0.3924 -1.1968 -0.4186
 5385TIP3   OH237645   1.804   3.476   0.765 -0.2747  0.2088  0.1142
 5385TIP3    H137646   1.875   3.482   0.701 -0.2583 -0.8715  0.0137
 5385TIP3    H237647   1.756   3.397   0.741 -1.3809  0.7922  0.3237
 5386TIP3   OH237648   1.037   5.434  14.823 -0.2075 -0.0004  0.3025
 5386TIP3    H137649   1.104   5.487  14.779 -0.4773 -1.4785 -2.0529
 5386TIP3    H237650   0.968   5.425  14.758 -1.7060 -0.4030  1.8967
 5387TIP3   OH237651   3.395   3.119  13.843  0.5302 -0.3745 -0.2687
 5387TIP3    H137652   3.322   3.117  13.906  1.2706  2.6750  0.8811
 5387TIP3    H237653   3.467   3.076  13.889  0.5732  0.2939  0.3170
 5388TIP3   OH237654   2.086   5.576   0.235  1.0943  0.2365  0.8668
 5388TIP3    H137655   2.099   5.482   0.245  0.8683  0.0991 -0.0503
 5388TIP3    H237656   2.088   5.591   0.141 -1.8409  0.6960  0.7823
 5389TIP3   OH237657   3.447   6.284   4.416 -0.0835 -0.4299 -0.0445
 5389TIP3    H137658   3.507   6.211   4.401 -1.5698 -1.7116  0.0088
 5389TIP3    H237659   3.376   6.270   4.353 -0.5594  0.8050  0.1903
 5390TIP3   OH237660   2.243   2.171  13.242 -0.0547 -0.5245  0.1009
 5390TIP3    H137661   2.204   2.258  13.235 -0.3434 -0.7492 -1.1164
 5390TIP3    H237662   2.228   2.130  13.158 -0.9863 -2.2279  1.0436
 5391TIP3   OH237663   2.973   6.722   1.497  0.2896 -0.0465 -0.0538
 5391TIP3    H137664   3.033   6.777   1.446 -1.2556 -0.6480 -2.7228
 5391TIP3    H237665   3.028   6.653   1.533  1.4434  0.2722 -1.1313
 5392TIP3   OH237666   0.849   3.315  13.193  0.2158 -0.4467  0.6939
 5392TIP3    H137667   0.808   3.401  13.203  1.8533  0.3465  0.9226
 5392TIP3    H237668   0.827   3.288  13.104 -0.3217  0.2072  0.6226
 5393TIP3   OH237669   5.841   5.374  13.915  0.2157  0.4868 -0.2513
 5393TIP3    H137670   5.897   5.400  13.988 -0.8133 -1.3683  1.2729
 5393TIP3    H237671   5.761   5.426  13.926 -0.0249  0.0518  0.0923
 5394TIP3   OH237672   0.389   1.346  16.024  0.4225 -0.3944 -0.2452
 5394TIP3    H137673   0.342   1.413  16.075 -0.8715 -1.5811  0.1856
 5394TIP3    H237674   0.366   1.365  15.933  1.3576  0.6951 -0.2723
 5395TIP3   OH237675   1.947   5.902  11.316 -0.4370  0.1449 -0.5640
 5395TIP3    H137676   1.957   5.915  11.410 -1.7225 -0.0630 -0.3796
 5395TIP3    H237677   1.955   5.990  11.278  1.7374  0.0370 -0.4629
 5396TIP3   OH237678   6.679   3.328  13.167  0.4161  0.3387 -0.1993
 5396TIP3    H137679   6.594   3.327  13.123  0.9968 -1.5152 -1.4255
 5396TIP3    H237680   6.739   3.368  13.104  0.9090 -0.6981 -0.4228
 5397TIP3   OH237681   5.744   6.513  11.757  0.1363  0.2160  0.2257
 5397TIP3    H137682   5.710   6.602  11.743  0.8011  0.8577  2.3273
 5397TIP3    H237683   5.694   6.459  11.696 -0.2195  2.0274 -1.1968
 5398TIP3   OH237684   0.721   5.418   4.095  0.8446 -0.3709  0.1300
 5398TIP3    H137685   0.761   5.359   4.031  1.3270 -0.6224  0.6545
 5398TIP3    H237686   0.627   5.402   4.087  0.9387 -0.8243 -0.1032
 5399TIP3   OH237687   5.308   2.638   1.534 -0.3408 -0.1794  0.0063
 5399TIP3    H137688   5.289   2.546   1.553 -2.0858 -0.2708 -1.7235
 5399TIP3    H237689   5.241   2.662   1.469  1.6752  1.5542 -1.5617
 5400TIP3   OH237690   3.614   3.141   3.892 -0.1326 -0.3111 -0.1545
 5400TIP3    H137691   3.556   3.214   3.916  0.8642  0.7642 -0.8854
 5400TIP3    H237692   3.607   3.135   3.797 -0.9556 -1.8654 -0.0319
 5401TIP3   OH237693   4.660   6.656  16.258 -0.4034 -0.4144  0.1055
 5401TIP3    H137694   4.705   6.608  16.327  0.3471  0.0927 -0.0165
 5401TIP3    H237695   4.628   6.735  16.301 -1.9061 -1.1411  0.3784
 5402TIP3   OH237696   5.857   3.284   3.038  0.0475  0.6004  0.0314
 5402TIP3    H137697   5.832   3.211   2.982  0.3849  0.5316 -0.0304
 5402TIP3    H237698   5.945   3.262   3.069 -0.6107  0.0215  1.6097
 5403TIP3   OH237699   0.050   3.653  14.746  0.2892  0.9143  0.2963
 5403TIP3    H137700  -0.023   3.689  14.695  0.7897  1.4500 -0.0562
 5403TIP3    H237701   0.092   3.730  14.784  1.4327  0.7340 -0.5498
 5404TIP3   OH237702   3.243   6.527  16.027 -0.3737 -0.2768  0.5527
 5404TIP3    H137703   3.246   6.620  16.006 -1.2626 -0.1538  0.9221
 5404TIP3    H237704   3.165   6.495  15.981  0.9577 -1.2623 -1.1458
 5405TIP3   OH237705   3.973   6.241   4.122 -0.3069 -0.1641 -0.2073
 5405TIP3    H137706   3.983   6.146   4.131  1.1077 -0.3239 -2.6300
 5405TIP3    H237707   4.058   6.276   4.150 -0.2843  0.2572 -0.7928
 5406TIP3   OH237708   5.010   3.907   6.308 -0.2240 -0.2955 -0.6371
 5406TIP3    H137709   5.017   3.999   6.333 -0.9238  0.0283 -1.5900
 5406TIP3    H237710   5.070   3.862   6.368 -0.2269  0.7098  0.1625
 5407TIP3   OH237711   4.108   2.417   3.407  0.2203 -0.1759 -0.0408
 5407TIP3    H137712   4.147   2.421   3.494  0.6988 -0.5238 -0.2364
 5407TIP3    H237713   4.027   2.368   3.419 -1.7529  3.0052  0.9345
 5408TIP3   OH237714   5.789   0.458   3.314 -0.2964  0.2651  0.2318
 5408TIP3    H137715   5.806   0.456   3.409 -1.6211  0.9231  0.5076
 5408TIP3    H237716   5.746   0.542   3.299 -1.2097 -0.3530 -0.7578
 5409TIP3   OH237717   3.284   6.070   3.542 -0.4006 -0.1700 -0.3436
 5409TIP3    H137718   3.253   6.129   3.473  0.6694  0.0079 -0.6867
 5409TIP3    H237719   3.342   6.009   3.496 -0.3211 -0.5540  0.2656
 5410TIP3   OH237720   4.644   3.098  14.048 -0.1923  0.4695  0.1918
 5410TIP3    H137721   4.563   3.120  14.003 -1.5198  1.9420  3.0349
 5410TIP3    H237722   4.621   3.020  14.100  1.3739 -1.3629 -1.6682
 5411TIP3   OH237723   2.156   4.106   0.447 -0.2894 -0.7921  0.0768
 5411TIP3    H137724   2.199   4.051   0.382  2.2065 -0.2099  1.1012
 5411TIP3    H237725   2.100   4.046   0.496 -0.9734 -1.5297 -1.5253
 5412TIP3   OH237726   6.456   2.105   2.123 -0.1435  0.4109 -0.8835
 5412TIP3    H137727   6.471   2.033   2.062 -0.9485 -0.1651 -0.4062
 5412TIP3    H237728   6.366   2.131   2.107 -0.0565  0.8967 -0.5975
 5413TIP3   OH237729   3.103   1.949   5.413  0.1080  1.0663 -0.3424
 5413TIP3    H137730   3.137   2.021   5.467  0.7407  0.2337  0.3936
 5413TIP3    H237731   3.065   1.888   5.475 -1.6574  1.3683 -1.0676
 5414TIP3   OH237732   1.245   5.255   1.701 -0.5831  0.0332 -0.4929
 5414TIP3    H137733   1.197   5.299   1.630 -1.3941  0.8565  0.5296
 5414TIP3    H237734   1.312   5.203   1.656 -1.5129 -0.0184 -1.8951
 5415TIP3   OH237735   5.222   5.916  12.738  0.7324 -0.1273 -0.3940
 5415TIP3    H137736   5.132   5.939  12.716  0.8692  0.4744 -0.3407
 5415TIP3    H237737   5.269   5.999  12.738  1.2335 -0.4035 -0.1600
 5416TIP3   OH237738   5.326   0.003   5.867 -0.1621 -0.4446 -0.7199
 5416TIP3    H137739   5.353  -0.045   5.789  0.0649 -0.9660 -0.3312
 5416TIP3    H237740   5.232  -0.013   5.874  0.2865 -3.0725  0.8404
 5417TIP3   OH237741   1.040   2.748   1.256  0.7870  0.2322  0.3239
 5417TIP3    H137742   0.995   2.686   1.198  2.0199  0.9542 -1.4670
 5417TIP3    H237743   0.969   2.790   1.304 -0.3970  0.3937 -1.4567
 5418TIP3   OH237744   0.184   0.931   1.113 -0.0721 -0.0050  0.0066
 5418TIP3    H137745   0.101   0.885   1.103 -0.7453  1.3117 -0.8337
 5418TIP3    H237746   0.251   0.863   1.110 -1.1721 -1.3521  2.9322
 5419TIP3   OH237747   1.914   2.313   5.029  0.1173 -0.5528 -1.5460
 5419TIP3    H137748   1.873   2.227   5.041 -1.0152 -0.3105 -3.2485
 5419TIP3    H237749   2.001   2.303   5.067  0.0261 -2.4825 -1.7038
 5420TIP3   OH237750   5.747   5.939  15.314 -0.3398  0.4417  0.4448
 5420TIP3    H137751   5.785   5.965  15.398  0.7404  0.8956 -0.1744
 5420TIP3    H237752   5.798   5.864  15.286 -0.9295  0.0681  0.3422
 5421TIP3   OH237753   6.779   0.486   5.029  0.5591 -0.0022  0.0366
 5421TIP3    H137754   6.715   0.415   5.024  0.2800  0.3084 -1.2981
 5421TIP3    H237755   6.781   0.522   4.940  1.1044  1.3006  0.5538
 5422TIP3   OH237756   0.442   0.531   2.485 -0.3703 -0.3882  0.0473
 5422TIP3    H137757   0.533   0.525   2.458 -0.4973  0.4564 -0.6031
 5422TIP3    H237758   0.415   0.440   2.499 -0.1275 -0.8544 -2.1137
 5423TIP3   OH237759   3.590   5.797   1.191  0.0684  0.3774 -0.3009
 5423TIP3    H137760   3.655   5.733   1.222 -1.2199 -1.0612 -0.4524
 5423TIP3    H237761   3.578   5.776   1.098  0.7151  1.8396 -0.7398
 5424TIP3   OH237762   3.810   1.874  13.245 -0.1681 -0.4626 -0.5935
 5424TIP3    H137763   3.852   1.914  13.321  1.1160 -3.0126  0.1181
 5424TIP3    H237764   3.816   1.942  13.177 -1.0970  1.7751  1.3898
 5425TIP3   OH237765   4.922   4.564   4.620 -0.3401 -0.2475  0.1252
 5425TIP3    H137766   4.840   4.532   4.583  0.4384 -2.1424 -0.0822
 5425TIP3    H237767   4.898   4.597   4.706 -1.2719 -1.1951  0.2533
 5426TIP3   OH237768   5.589   0.357  15.739  0.5696 -0.3430  0.3680
 5426TIP3    H137769   5.629   0.285  15.690  0.8980  1.1916 -1.7815
 5426TIP3    H237770   5.540   0.315  15.809  0.6280 -2.6475 -0.8909
 5427TIP3   OH237771   1.103   3.297   1.720  0.3896 -0.4952 -0.0458
 5427TIP3    H137772   1.043   3.311   1.647  1.1838 -1.7206 -0.9635
 5427TIP3    H237773   1.159   3.225   1.692  0.6394 -1.0827  1.8298
 5428TIP3   OH237774   0.198   4.920   3.848  0.3452 -0.0362 -0.1395
 5428TIP3    H137775   0.175   4.881   3.763 -0.3496 -0.8082  0.3920
 5428TIP3    H237776   0.146   5.000   3.852 -0.8477 -0.8087  0.2301
 5429TIP3   OH237777   0.947   0.535   5.598  0.1250  0.0498  0.2099
 5429TIP3    H137778   0.904   0.503   5.518  0.1662 -0.3022  0.3257
 5429TIP3    H237779   0.885   0.597   5.636 -0.3306 -0.5386  0.4359
 5430TIP3   OH237780   3.319   1.444   0.787  0.1642 -0.8257  0.2191
 5430TIP3    H137781   3.258   1.392   0.841 -0.5324 -1.2507 -0.9326
 5430TIP3    H237782   3.366   1.498   0.850 -1.9424  0.0990  1.1168
 5431TIP3   OH237783   4.181   3.225  14.908  0.1570  0.1890 -0.1305
 5431TIP3    H137784   4.098   3.213  14.954  0.2918  1.7935  0.5782
 5431TIP3    H237785   4.159   3.209  14.816 -0.7015 -0.3853  0.1571
 5432TIP3   OH237786   3.243   0.010   0.480 -0.4935 -0.0281  0.1053
 5432TIP3    H137787   3.325  -0.008   0.435  0.6137 -0.6436  2.2375
 5432TIP3    H237788   3.176  -0.032   0.427  0.4870  0.7844 -1.8713
 5433TIP3   OH237789   3.214   3.911  12.157 -0.3382 -0.0187 -0.0822
 5433TIP3    H137790   3.217   3.958  12.074  0.4599 -2.8363 -1.7653
 5433TIP3    H237791   3.292   3.939  12.204  0.5182 -0.1852 -1.3674
 5434TIP3   OH237792   1.713   1.521   3.663 -0.4081 -0.5370  0.0254
 5434TIP3    H137793   1.634   1.531   3.609  0.2723  0.8971 -0.7437
 5434TIP3    H237794   1.680   1.500   3.750 -1.7800  2.1024  0.2250
 5435TIP3   OH237795   2.352   6.540  15.533  0.3156 -0.4349 -0.2401
 5435TIP3    H137796   2.337   6.489  15.612 -0.2042 -1.0132 -0.7050
 5435TIP3    H237797   2.443   6.570  15.540  0.1790 -0.2157  0.7188
 5436TIP3   OH237798   5.626   4.156   2.097  0.3157  0.2845  0.0639
 5436TIP3    H137799   5.634   4.218   2.170  2.0493  1.5791 -1.1314
 5436TIP3    H237800   5.717   4.136   2.073 -0.1995  0.1833 -1.9597
 5437TIP3   OH237801   2.152   0.265   4.714 -0.1504  0.4255  0.2137
 5437TIP3    H137802   2.175   0.201   4.647 -0.2439  1.0289 -0.4032
 5437TIP3    H237803   2.226   0.265   4.775  0.1377  0.2068 -0.1391
 5438TIP3   OH237804   1.144   6.411  14.849  0.0164  0.0842  0.0853
 5438TIP3    H137805   1.068   6.376  14.804 -0.8427  1.0980  0.7205
 5438TIP3    H237806   1.110   6.450  14.929  1.5264 -1.9510  1.8616
 5439TIP3   OH237807   5.502   5.067   1.221 -0.2115 -0.1589  0.1051
 5439TIP3    H137808   5.493   4.989   1.275  0.7261 -0.1860  0.2417
 5439TIP3    H237809   5.517   5.138   1.284 -1.1266  0.1530 -0.0141
 5440TIP3   OH237810   0.389   1.028  11.750  0.9217  0.1128  0.4145
 5440TIP3    H137811   0.365   0.945  11.710 -1.2550 -0.3475  2.4921
 5440TIP3    H237812   0.468   1.055  11.703  0.4927 -2.0505 -1.7375
 5441TIP3   OH237813   2.961   6.325  16.447  0.0755  0.3267  0.0164
 5441TIP3    H137814   2.910   6.345  16.526 -0.7101 -1.8123  0.1105
 5441TIP3    H237815   3.015   6.250  16.472  1.1405  0.7389 -0.9749
 5442TIP3   OH237816   4.623   2.583   2.067 -0.8506 -0.4047  0.0972
 5442TIP3    H137817   4.568   2.640   2.014  0.7780  0.1628 -1.0548
 5442TIP3    H237818   4.606   2.610   2.157 -1.2423  0.8451 -0.3386
 5443TIP3   OH237819   6.654   5.443  10.846 -0.1699  0.1341  0.4451
 5443TIP3    H137820   6.588   5.378  10.823 -0.1596 -0.5841  2.2682
 5443TIP3    H237821   6.710   5.449  10.768 -0.0852 -2.1494  0.2680
 5444TIP3   OH237822   2.046   5.952  15.186 -0.2597  0.3346 -0.3448
 5444TIP3    H137823   2.082   5.887  15.248  0.0330 -0.5465 -1.4063
 5444TIP3    H237824   2.115   6.018  15.178  0.2049 -0.1795 -0.6480
 5445TIP3   OH237825   0.128   1.742   2.896 -0.1245  0.2026  0.1030
 5445TIP3    H137826   0.149   1.835   2.903  0.5936 -0.1017  2.9170
 5445TIP3    H237827   0.172   1.714   2.815  1.5176  1.8334  0.3638
 5446TIP3   OH237828   4.568   6.028   0.546  0.4407  0.1100  0.1214
 5446TIP3    H137829   4.644   5.981   0.580 -0.0415 -0.5417  0.3287
 5446TIP3    H237830   4.493   5.984   0.586 -0.1497 -0.5844 -1.6255
 5447TIP3   OH237831   6.193   6.305   3.421  1.3682  0.5832 -0.2164
 5447TIP3    H137832   6.227   6.381   3.468  1.2949 -0.1944  1.1462
 5447TIP3    H237833   6.266   6.243   3.421  0.8887  0.0074  0.2029
 5448TIP3   OH237834   4.341   3.621  14.037  0.2209 -0.0254 -0.7177
 5448TIP3    H137835   4.413   3.607  14.098  0.4210  0.4463 -0.8404
 5448TIP3    H237836   4.271   3.563  14.069  0.6499 -0.4811 -0.6033
 5449TIP3   OH237837   0.203   2.023   5.726  0.2622  0.6559  1.2860
 5449TIP3    H137838   0.152   2.102   5.741  1.3039  1.3233  1.4029
 5449TIP3    H237839   0.294   2.052   5.727  0.7176 -0.6775  2.1719
 5450TIP3   OH237840   5.806   2.417   0.195  0.1317  0.2285 -0.1705
 5450TIP3    H137841   5.803   2.431   0.101 -1.6262 -1.8373 -0.4865
 5450TIP3    H237842   5.719   2.441   0.227  0.5017  0.3064  0.8394
 5451TIP3   OH237843   5.974   1.823  16.504 -0.6469  0.0552  0.0406
 5451TIP3    H137844   5.972   1.914  16.476  1.4927 -0.0978 -0.7686
 5451TIP3    H237845   6.028   1.778  16.439  1.7070 -0.9711  2.5219
 5452TIP3   OH237846   0.414   2.274   1.500 -0.2799 -0.0831 -0.0021
 5452TIP3    H137847   0.473   2.349   1.490  1.2409 -1.1162  0.8388
 5452TIP3    H237848   0.334   2.312   1.535  0.8492  1.0517  1.5294
 5453TIP3   OH237849   2.146   2.037  16.816  0.0635 -0.0641  0.5862
 5453TIP3    H137850   2.109   1.960  16.771  1.6776 -1.9350  2.2481
 5453TIP3    H237851   2.232   2.008  16.845  0.8126  2.4843  1.1538
 5454TIP3   OH237852   0.631   5.897   2.197 -0.0082 -0.0504  0.5809
 5454TIP3    H137853   0.570   5.824   2.184  2.5834 -2.0995 -0.8889
 5454TIP3    H237854   0.716   5.863   2.169  1.5807  3.1573  1.0868
 5455TIP3   OH237855   2.308   5.818   2.237  0.0661  0.8480  0.3968
 5455TIP3    H137856   2.241   5.753   2.258 -1.3406  1.8519 -0.8085
 5455TIP3    H237857   2.389   5.768   2.230 -1.3714 -1.2936 -3.0672
 5456TIP3   OH237858   4.632   4.769  17.240 -0.0523  0.1127  0.1041
 5456TIP3    H137859   4.548   4.785  17.283  0.5643  0.8628  1.0789
 5456TIP3    H237860   4.635   4.674  17.227 -0.4223 -0.0874  1.3947
 5457TIP3   OH237861   4.763   1.780  13.428  0.3263 -0.2821  0.5616
 5457TIP3    H137862   4.727   1.785  13.339 -0.8696 -1.9704  0.9070
 5457TIP3    H237863   4.848   1.736  13.417 -0.3762 -1.6430  0.3558
 5458TIP3   OH237864   4.475   5.320  14.616  0.1045 -0.0064 -0.5063
 5458TIP3    H137865   4.467   5.414  14.599 -1.7097 -0.3082 -1.5991
 5458TIP3    H237866   4.569   5.304  14.620  0.4562  1.7036 -1.2292
 5459TIP3   OH237867   4.696   0.515  12.001  0.3557  0.4555 -0.6147
 5459TIP3    H137868   4.755   0.453  12.044 -1.8068  0.3521  2.5522
 5459TIP3    H237869   4.637   0.461  11.950  0.4246  0.1663 -0.3936
 5460TIP3   OH237870   5.036   3.723  14.542 -0.3265 -0.4670 -0.0602
 5460TIP3    H137871   5.080   3.806  14.559 -0.6374 -0.3857  0.3660
 5460TIP3    H237872   5.096   3.675  14.485 -0.0182 -0.0644 -0.0758
 5461TIP3   OH237873   3.858   0.524  13.451  0.7166 -0.1228  0.9817
 5461TIP3    H137874   3.931   0.534  13.389 -1.8173 -0.4763 -2.3343
 5461TIP3    H237875   3.808   0.605  13.442 -0.7831 -1.0062  1.0076
 5462TIP3   OH237876   4.159   0.184   4.545 -0.6052  0.6130 -0.1636
 5462TIP3    H137877   4.089   0.198   4.609 -2.8993  0.3223 -2.4102
 5462TIP3    H237878   4.185   0.093   4.557 -1.6078  0.3136 -0.1735
 5463TIP3   OH237879   1.042   5.062   2.460 -0.0245  0.5084  0.0246
 5463TIP3    H137880   0.984   5.106   2.398 -1.0605 -0.2944  0.3840
 5463TIP3    H237881   1.007   5.084   2.546  1.4397  1.6661  0.3618
 5464TIP3   OH237882   3.841   1.521   1.538  0.4391 -0.1216 -0.9024
 5464TIP3    H137883   3.818   1.611   1.515 -0.6009  0.7697  2.8789
 5464TIP3    H237884   3.937   1.520   1.536  0.4953  1.2981 -0.4219
 5465TIP3   OH237885   3.294   5.389  14.179  0.2916 -0.0292 -0.1379
 5465TIP3    H137886   3.340   5.324  14.126 -0.3456  0.7390 -1.7211
 5465TIP3    H237887   3.208   5.350  14.196 -0.4436  0.7034 -1.8938
 5466TIP3   OH237888   1.912   4.759  16.107 -0.2688 -0.6433  0.2108
 5466TIP3    H137889   1.925   4.854  16.117  0.5382 -0.7731  0.4940
 5466TIP3    H237890   1.901   4.746  16.013 -0.0855 -0.3039  0.1397
 5467TIP3   OH237891   1.004   1.966  16.436 -0.4877  0.6588 -0.3796
 5467TIP3    H137892   1.013   1.888  16.381 -1.6635 -0.4423  0.9095
 5467TIP3    H237893   0.935   2.017  16.393 -2.5336 -0.9455  0.7910
 5468TIP3   OH237894   4.833   2.285  11.773  0.6833 -0.0128  0.1019
 5468TIP3    H137895   4.898   2.250  11.834  1.9587 -0.1134 -1.2843
 5468TIP3    H237896   4.868   2.370  11.747  0.3656 -0.1598 -0.8289
 5469TIP3   OH237897   2.576   2.457   0.681 -0.7360 -0.2435 -0.7817
 5469TIP3    H137898   2.525   2.386   0.643 -1.6508  0.6555 -1.2631
 5469TIP3    H237899   2.546   2.536   0.636  0.1846  0.4781 -0.1841
 5470TIP3   OH237900   3.624   3.196  13.672 -0.1067 -0.3923  0.5544
 5470TIP3    H137901   3.533   3.177  13.647 -0.0731 -0.1689  0.2565
 5470TIP3    H237902   3.656   3.255  13.604 -0.5072  1.5185  1.9096
 5471TIP3   OH237903   4.046   0.499   2.541  0.4927  0.0337  0.1366
 5471TIP3    H137904   3.993   0.569   2.502 -2.6561 -1.7590  0.8397
 5471TIP3    H237905   4.033   0.509   2.635 -0.6274 -1.8556  0.2288
 5472TIP3   OH237906   2.930   1.913  10.568  0.3046 -0.0420 -0.1439
 5472TIP3    H137907   3.000   1.853  10.594  2.4035  2.2989 -0.0372
 5472TIP3    H237908   2.901   1.880  10.483  2.6132 -0.2662 -0.9162
 5473TIP3   OH237909   0.623   6.267   6.310 -0.1460 -0.3530 -0.1021
 5473TIP3    H137910   0.717   6.263   6.327 -0.4163  0.8486  2.1686
 5473TIP3    H237911   0.606   6.358   6.286 -1.0603  0.2990  2.6053
 5474TIP3   OH237912   0.100   3.801   6.542  0.4343 -0.0056  0.1987
 5474TIP3    H137913   0.034   3.760   6.597 -0.3126  1.2412  0.2731
 5474TIP3    H237914   0.177   3.746   6.551 -0.0177 -0.4345  1.6093
 5475TIP3   OH237915   3.141   2.704  11.087  0.5903 -0.1711  0.2641
 5475TIP3    H137916   3.081   2.657  11.145 -1.5025  0.6639 -1.1409
 5475TIP3    H237917   3.183   2.635  11.035  0.1998 -0.7165  0.6649
 5476TIP3   OH237918   5.702   6.209  14.204  0.5718  0.0938  0.1788
 5476TIP3    H137919   5.752   6.128  14.205 -1.4980 -1.2643 -0.7750
 5476TIP3    H237920   5.739   6.259  14.131  0.6714 -0.7938 -0.3926
 5477TIP3   OH237921   1.470   0.197  12.556 -0.0256 -0.0512  0.3508
 5477TIP3    H137922   1.458   0.247  12.476 -0.3979  0.5756  0.7818
 5477TIP3    H237923   1.543   0.241  12.601 -0.0090 -0.2192  0.4912
 5478TIP3   OH237924   6.498   4.561  11.734 -0.4192 -0.7267  0.2929
 5478TIP3    H137925   6.583   4.519  11.717 -0.7644 -1.2860 -0.0847
 5478TIP3    H237926   6.515   4.655  11.722 -0.2044 -0.9422 -1.3995
 5479TIP3   OH237927   3.922   6.451   1.751  1.0923 -0.0525  0.0591
 5479TIP3    H137928   3.922   6.389   1.678 -0.0249  1.0398 -0.9059
 5479TIP3    H237929   3.988   6.516   1.728 -0.0954  0.9662 -0.6242
 5480TIP3   OH237930   4.942   5.720   4.150  0.7011 -0.3599 -0.4210
 5480TIP3    H137931   4.986   5.794   4.192  0.3902 -0.9375  0.9406
 5480TIP3    H237932   4.995   5.703   4.072  0.9509  1.0888 -0.6054
 5481TIP3   OH237933   2.264   5.790  14.060 -0.4798 -0.2229 -0.4833
 5481TIP3    H137934   2.277   5.729  13.987  0.6442  0.0048 -0.4935
 5481TIP3    H237935   2.352   5.821  14.081 -0.8625  0.1902  0.5709
 5482TIP3   OH237936   2.798   5.169   1.485 -0.1682 -0.1828 -0.0600
 5482TIP3    H137937   2.865   5.101   1.481 -0.7377 -0.7293 -0.5925
 5482TIP3    H237938   2.810   5.209   1.571  1.1676  0.0883 -0.3545
 5483TIP3   OH237939   1.724   3.223  13.800  0.8177  0.3107 -0.2008
 5483TIP3    H137940   1.712   3.144  13.852  0.6713  1.6097  1.8618
 5483TIP3    H237941   1.636   3.253  13.780  0.8539  0.5967  0.0636
 5484TIP3   OH237942   2.167   0.008   5.861 -0.1837 -0.2100  0.8490
 5484TIP3    H137943   2.210  -0.006   5.945  1.1572  0.5431  0.3252
 5484TIP3    H237944   2.204   0.091   5.829 -1.1127 -0.1837 -0.2021
 5485TIP3   OH237945   5.968   0.684  14.733 -0.5053 -0.1335 -0.3659
 5485TIP3    H137946   5.885   0.714  14.768 -0.6582 -1.5134  0.5325
 5485TIP3    H237947   6.032   0.707  14.800 -0.1084  1.1421 -1.1610
 5486TIP3   OH237948   2.422   2.779   3.451 -0.0471  0.4069  0.9016
 5486TIP3    H137949   2.423   2.685   3.467 -0.4008  0.0298 -1.0482
 5486TIP3    H237950   2.332   2.798   3.426  0.2991  1.0138  0.0598
 5487TIP3   OH237951   6.766   6.226  11.150 -0.0335  0.1596  0.1773
 5487TIP3    H137952   6.832   6.185  11.206  0.1916  0.5687  0.2167
 5487TIP3    H237953   6.799   6.315  11.135 -0.2655  0.1645 -0.3208
 5488TIP3   OH237954   5.348   4.084   0.974  0.0512 -0.2041  0.1117
 5488TIP3    H137955   5.409   4.085   1.047  0.4606 -0.8026 -0.2185
 5488TIP3    H237956   5.262   4.070   1.015  0.0708  0.9924  0.6040
 5489TIP3   OH237957   5.103   0.577  10.814 -0.6798  0.3099  0.3356
 5489TIP3    H137958   5.182   0.620  10.783 -1.1010  0.5435 -0.4624
 5489TIP3    H237959   5.042   0.648  10.833 -0.9262  0.1118  0.3025
 5490TIP3   OH237960   2.062   5.272   5.169  0.6718  0.4084  0.1678
 5490TIP3    H137961   2.065   5.368   5.164  1.8922  0.5276  2.1011
 5490TIP3    H237962   1.968   5.251   5.173  0.2564  1.2744 -2.8497
 5491TIP3   OH237963   5.597   1.271  12.814  0.1750 -0.3261  0.2419
 5491TIP3    H137964   5.550   1.295  12.894 -0.6979 -1.3243  0.0464
 5491TIP3    H237965   5.590   1.349  12.759  0.8646  0.4087  1.1515
 5492TIP3   OH237966   5.356   1.175   4.167  0.7515  0.3195 -0.1244
 5492TIP3    H137967   5.399   1.090   4.163  1.2681  0.5923 -0.6307
 5492TIP3    H237968   5.382   1.218   4.086 -2.1032 -0.2394 -1.4425
 5493TIP3   OH237969   0.450   2.049  11.169 -0.1455  0.0182 -0.0583
 5493TIP3    H137970   0.483   2.103  11.097 -1.2213  1.6204  0.5934
 5493TIP3    H237971   0.508   2.068  11.242 -0.1469 -0.2156  0.0048
 5494TIP3   OH237972   2.953   4.994   4.069  0.1529 -0.2803  0.7594
 5494TIP3    H137973   2.963   4.924   4.004 -2.9910 -1.3501  1.2248
 5494TIP3    H237974   2.989   4.957   4.150  1.0484 -0.2596  0.3709
 5495TIP3   OH237975   2.618   3.623  13.783  0.3717  0.0567  0.2791
 5495TIP3    H137976   2.669   3.704  13.788  0.5504  0.0275 -0.7610
 5495TIP3    H237977   2.535   3.650  13.744 -0.4636  0.1082  1.9864
 5496TIP3   OH237978   1.388   0.279   0.573  0.0850  0.3336  0.3968
 5496TIP3    H137979   1.442   0.304   0.499 -0.6099  0.1451 -0.1844
 5496TIP3    H237980   1.378   0.184   0.565  1.1910  0.0931  1.5485
 5497TIP3   OH237981   1.860   1.905   3.416 -0.1646  0.0226  0.2995
 5497TIP3    H137982   1.929   1.968   3.438 -1.4394  1.1818  1.1522
 5497TIP3    H237983   1.779   1.954   3.426 -1.1418 -1.3165 -0.6498
 5498TIP3   OH237984   6.479   6.600   4.455 -0.0769 -0.0662 -0.0777
 5498TIP3    H137985   6.514   6.686   4.475  1.0561 -0.9965  2.4948
 5498TIP3    H237986   6.384   6.609   4.469  0.3117  0.1094  3.7163
 5499TIP3   OH237987   2.585   6.396  13.307  0.9328  0.3485  0.1345
 5499TIP3    H137988   2.524   6.469  13.301  0.7641  0.3459  1.5001
 5499TIP3    H237989   2.602   6.387  13.401 -0.2214 -2.3126  0.1789
 5500TIP3   OH237990   6.204   4.522   5.138  0.1053 -0.5381 -0.3457
 5500TIP3    H137991   6.117   4.484   5.149 -0.1235 -0.1149 -0.6675
 5500TIP3    H237992   6.257   4.451   5.102 -0.5200 -0.3587 -1.7246
 5501TIP3   OH237993   5.876   6.512   4.514 -0.0926  0.2901  0.1611
 5501TIP3    H137994   5.819   6.444   4.551  0.5552 -0.5019 -0.2792
 5501TIP3    H237995   5.935   6.535   4.586 -0.6513  0.7636  0.4698
 5502TIP3   OH237996   4.135   1.934   3.391  0.1743 -0.1503  0.5379
 5502TIP3    H137997   4.104   1.987   3.318 -0.0862  0.0362  0.7809
 5502TIP3    H237998   4.173   1.998   3.452  1.2947 -0.3935  0.1291
 5503TIP3   OH237999   5.204   3.427  15.700 -0.4368 -0.0360 -0.0069
 5503TIP3    H138000   5.242   3.436  15.613 -1.3643 -1.7246 -0.6194
 5503TIP3    H238001   5.279   3.414  15.758  0.0895 -0.5913 -0.7978
 5504TIP3   OH238002   4.700   2.415   2.692 -0.3374  0.1629 -0.4163
 5504TIP3    H138003   4.751   2.355   2.747 -0.0850  1.7718  1.1922
 5504TIP3    H238004   4.636   2.453   2.752  0.8798  3.0753 -0.8378
 5505TIP3   OH238005   2.723   5.887  13.761  0.5323  0.0713 -0.8561
 5505TIP3    H138006   2.813   5.868  13.786  0.4468 -0.5755 -1.0248
 5505TIP3    H238007   2.691   5.946  13.829  1.3980  1.1554 -1.3347
 5506TIP3   OH238008   0.752   4.061   3.112 -0.3941  0.5208  0.5255
 5506TIP3    H138009   0.728   4.045   3.020 -0.8983  0.7204  0.6193
 5506TIP3    H238010   0.770   3.974   3.148  3.6063  0.6272 -0.7554
 5507TIP3   OH238011   5.798   4.110  11.883  0.2161  0.3254 -0.0297
 5507TIP3    H138012   5.748   4.036  11.918 -0.0327  0.2635 -0.5026
 5507TIP3    H238013   5.827   4.080  11.797 -0.2717  0.9409 -0.4186
 5508TIP3   OH238014   3.959   2.494  13.752 -0.1801 -0.2538 -0.1121
 5508TIP3    H138015   3.877   2.531  13.720 -0.2791  0.0268  0.4501
 5508TIP3    H238016   3.955   2.401  13.729 -1.3945 -0.5993  1.3782
 5509TIP3   OH238017   4.361   3.850  14.404 -0.2967  0.6552 -0.6320
 5509TIP3    H138018   4.350   3.935  14.446 -0.9711  0.1849  0.1708
 5509TIP3    H238019   4.274   3.828  14.371  0.1591  0.8773 -2.0388
 5510TIP3   OH238020   3.148   2.504   4.349 -0.4633 -0.4337  0.1270
 5510TIP3    H138021   3.080   2.445   4.382 -1.5220 -0.5300 -2.0278
 5510TIP3    H238022   3.108   2.591   4.354  0.6091  0.0188  2.0620
 5511TIP3   OH238023   4.860   5.785   5.429 -0.5064 -0.0972 -0.2292
 5511TIP3    H138024   4.771   5.813   5.451 -1.6906 -0.1421 -4.2204
 5511TIP3    H238025   4.861   5.691   5.449 -2.1542 -0.5536 -1.9227
 5512TIP3   OH238026   5.402   4.919   2.262  0.5106  0.0600 -0.1791
 5512TIP3    H138027   5.327   4.927   2.322 -0.7890 -0.1221 -1.7042
 5512TIP3    H238028   5.379   4.975   2.188  2.3853  0.8150 -0.2468
 5513TIP3   OH238029   5.061   1.053   0.645 -0.2585 -0.1743 -0.8532
 5513TIP3    H138030   5.147   1.090   0.664 -0.6120  0.0762  0.3543
 5513TIP3    H238031   5.076   0.994   0.571  0.8105  0.3834 -1.1041
 5514TIP3   OH238032   5.787   3.214   2.409  0.2580  0.0900  0.3777
 5514TIP3    H138033   5.806   3.307   2.415 -1.3959  0.4947 -0.3287
 5514TIP3    H238034   5.757   3.189   2.496  1.5349 -0.0106  0.8148
 5515TIP3   OH238035   6.425   4.674  13.738  0.1810  0.0893 -0.0099
 5515TIP3    H138036   6.442   4.735  13.666  0.7492  0.4474  0.4181
 5515TIP3    H238037   6.462   4.591  13.708  0.2632  0.1941 -0.1999
 5516TIP3   OH238038   3.481   2.512   3.239  0.5932  0.4991  0.0313
 5516TIP3    H138039   3.571   2.501   3.269  0.3667 -0.9311  0.2712
 5516TIP3    H238040   3.478   2.600   3.202  1.6814  1.1397  1.4068
 5517TIP3   OH238041   3.077   2.782   5.731 -0.3338  0.1124  0.2899
 5517TIP3    H138042   3.084   2.861   5.784  1.5993  0.6515 -0.6718
 5517TIP3    H238043   3.068   2.711   5.794  1.8216  0.7333  1.3681
 5518TIP3   OH238044   0.922   4.076   1.785 -0.0161 -0.1706 -0.3844
 5518TIP3    H138045   0.908   4.011   1.716  0.6862  0.2659 -0.9508
 5518TIP3    H238046   0.922   4.026   1.866 -0.0885 -0.7899 -0.7637
 5519TIP3   OH238047   0.249   2.282  16.382 -0.8887  0.0271  0.1869
 5519TIP3    H138048   0.171   2.229  16.364  0.1851 -1.2031 -1.1158
 5519TIP3    H238049   0.319   2.238  16.334 -0.0243  3.0603 -1.5776
 5520TIP3   OH238050   5.386   4.469  13.387  0.2853  1.0160  0.6154
 5520TIP3    H138051   5.293   4.448  13.375  0.4580  0.3709  0.3649
 5520TIP3    H238052   5.386   4.545  13.445 -0.5052  2.8727 -1.6522
 5521TIP3   OH238053   1.596   2.981  11.423  0.5883 -0.1211  0.0226
 5521TIP3    H138054   1.568   2.967  11.333 -0.7311 -0.6476  0.4912
 5521TIP3    H238055   1.531   2.935  11.476  0.3689  1.5399  1.3057
 5522TIP3   OH238056   3.775   6.234   6.408  0.1452  0.1323 -0.2435
 5522TIP3    H138057   3.739   6.226   6.320 -0.1098 -0.6536 -0.0730
 5522TIP3    H238058   3.867   6.258   6.394  0.4332 -1.2224 -0.7578
 5523TIP3   OH238059   2.506   5.508   1.549  0.4155  0.1801  0.3970
 5523TIP3    H138060   2.465   5.560   1.480  0.6349  2.2915  1.7663
 5523TIP3    H238061   2.453   5.524   1.627  0.5117 -1.6929  0.9000
 5524TIP3   OH238062   5.818   4.971   1.322 -0.0962  0.0756 -0.0880
 5524TIP3    H138063   5.735   4.998   1.362 -0.5987  1.2318 -1.7886
 5524TIP3    H238064   5.866   5.053   1.310  0.2789 -0.2910 -1.2472
 5525TIP3   OH238065   4.797   6.091  12.944  0.5389 -0.6219  0.6772
 5525TIP3    H138066   4.860   6.057  13.008 -0.7810  0.5922  2.7342
 5525TIP3    H238067   4.722   6.117  12.997 -1.0867 -0.5892 -1.5377
 5526TIP3   OH238068   0.235   3.604   1.207 -0.3726  0.2850  0.7892
 5526TIP3    H138069   0.234   3.551   1.287 -0.0822 -0.0904  0.5485
 5526TIP3    H238070   0.183   3.555   1.144  1.1331 -0.4846  0.0933
 5527TIP3   OH238071   5.222   3.444  16.443 -0.6054  1.0672 -0.5101
 5527TIP3    H138072   5.232   3.364  16.392  0.5256  2.1224 -2.0439
 5527TIP3    H238073   5.152   3.493  16.398 -1.2328  1.0077  0.3655
 5528TIP3   OH238074   4.570   4.622   2.776  0.1713  0.2961  0.7798
 5528TIP3    H138075   4.536   4.559   2.839  1.2975  1.2702  2.4236
 5528TIP3    H238076   4.584   4.702   2.827  0.3187  1.3880 -0.8928
 5529TIP3   OH238077   6.147   6.802   0.432 -0.2711 -0.2322  0.3872
 5529TIP3    H138078   6.186   6.767   0.512 -1.1475 -1.6180  0.2416
 5529TIP3    H238079   6.188   6.887   0.421  2.3651 -1.4020  0.4763
 5530TIP3   OH238080   3.688   5.169  16.219 -0.1965  0.7048  0.3001
 5530TIP3    H138081   3.596   5.183  16.241 -0.5007  0.2543 -0.6228
 5530TIP3    H238082   3.722   5.257  16.203 -0.1544  0.9776  1.7598
 5531TIP3   OH238083   6.588   1.191  11.287 -0.5637  0.0089 -0.4812
 5531TIP3    H138084   6.534   1.176  11.209 -1.4177 -0.1528  0.1175
 5531TIP3    H238085   6.532   1.244  11.345 -1.0092 -2.0293  1.0860
 5532TIP3   OH238086   1.436   5.473  14.313 -0.4704 -0.0512  0.0151
 5532TIP3    H138087   1.501   5.423  14.363  0.4764  0.5626 -0.5763
 5532TIP3    H238088   1.477   5.558  14.300 -1.2730  0.2425 -0.6321
 5533TIP3   OH238089   2.032   3.463  13.116 -0.0373  0.3652  0.3986
 5533TIP3    H138090   2.123   3.450  13.088 -0.3097  1.0831 -0.9018
 5533TIP3    H238091   1.992   3.514  13.046 -0.5551  3.1029  2.4755
 5534TIP3   OH238092   0.519   5.815  16.710 -0.4229 -0.3636 -0.3582
 5534TIP3    H138093   0.448   5.824  16.647  1.1328  1.4610 -1.9712
 5534TIP3    H238094   0.574   5.746  16.675 -0.6431 -0.7889  0.1272
 5535TIP3   OH238095   0.113   3.920   5.663 -0.3154  0.3043 -0.2149
 5535TIP3    H138096   0.128   3.943   5.755  2.4661 -0.8794 -0.2747
 5535TIP3    H238097   0.099   3.825   5.664  0.2276  0.2054 -1.0229
 5536TIP3   OH238098   5.567   3.219   0.616  0.0290  0.3148  0.2100
 5536TIP3    H138099   5.524   3.193   0.698  0.2277 -0.3794  0.0991
 5536TIP3    H238100   5.636   3.279   0.645  0.1665 -0.0075  0.5672
 5537TIP3   OH238101   2.995   5.738  12.584  0.3046  0.0014 -0.2396
 5537TIP3    H138102   2.940   5.698  12.517  1.2290 -1.8792  0.0605
 5537TIP3    H238103   3.040   5.810  12.539 -1.8352  1.1608 -0.6489
 5538TIP3   OH238104   4.679   6.729  12.643  0.7361 -0.3108 -0.6393
 5538TIP3    H138105   4.619   6.656  12.626 -1.1829  0.5908  1.7187
 5538TIP3    H238106   4.646   6.801  12.589 -0.2494  0.1452  0.5546
 5539TIP3   OH238107   6.536   2.339  11.510  0.1773 -0.4050 -0.0769
 5539TIP3    H138108   6.529   2.390  11.591  0.8018 -0.8575  0.2712
 5539TIP3    H238109   6.447   2.314  11.490 -0.0020 -0.1703  0.3989
 5540TIP3   OH238110   1.383   2.707  16.175 -0.3321 -0.0097 -0.2995
 5540TIP3    H138111   1.410   2.793  16.141  0.6657  0.8853  2.4351
 5540TIP3    H238112   1.423   2.644  16.116  0.2904  1.4041 -1.4485
 5541TIP3   OH238113   0.560   4.323  17.104  0.4436 -0.9329  0.4633
 5541TIP3    H138114   0.538   4.381  17.177 -0.6021  0.7897 -1.1334
 5541TIP3    H238115   0.546   4.235  17.138  0.1617 -0.1946  2.3843
 5542TIP3   OH238116   1.654   0.247   0.089 -0.0566 -0.2041  0.3940
 5542TIP3    H138117   1.742   0.231   0.124 -0.1525 -0.7452  0.3941
 5542TIP3    H238118   1.670   0.294   0.007  0.1809  0.7675  0.9796
 5543TIP3   OH238119   5.605   3.736  14.798  0.9373  0.3986  0.5487
 5543TIP3    H138120   5.514   3.760  14.781  1.3561  1.4681 -0.3312
 5543TIP3    H238121   5.654   3.818  14.787  2.2684 -0.5469 -1.1712
 5544TIP3   OH238122   2.175   0.146  10.950 -0.1858 -0.3369 -0.3569
 5544TIP3    H138123   2.222   0.089  10.890 -0.3392 -0.5241 -0.3025
 5544TIP3    H238124   2.241   0.206  10.984  0.1063 -0.8910  0.0670
 5545TIP3   OH238125   3.505   3.891   5.634 -0.1244 -0.3859 -0.6777
 5545TIP3    H138126   3.429   3.859   5.682  0.1005 -0.4726 -0.3703
 5545TIP3    H238127   3.491   3.863   5.544  0.3143 -1.8421 -0.3314
 5546TIP3   OH238128   5.871   3.630   4.347  0.1621  0.5267  0.0511
 5546TIP3    H138129   5.900   3.558   4.290  0.5315  0.3845  0.4084
 5546TIP3    H238130   5.853   3.702   4.287 -3.0934 -0.7019 -0.6428
 5547TIP3   OH238131   0.914   6.028  15.320  0.2053  0.2101  1.0643
 5547TIP3    H138132   0.931   6.122  15.320  0.9208  0.0855  1.3778
 5547TIP3    H238133   0.908   6.005  15.227 -1.3776  0.7964  0.9920
 5548TIP3   OH238134   6.267   1.426  16.874 -0.6718  0.0678  0.0093
 5548TIP3    H138135   6.349   1.384  16.900 -0.3697  1.5319  1.5599
 5548TIP3    H238136   6.291   1.480  16.798 -0.8697 -1.7541 -1.4082
 5549TIP3   OH238137   4.218   5.319  14.742 -0.7473  0.6818 -0.2161
 5549TIP3    H138138   4.222   5.226  14.766 -0.8972  0.8812  0.5924
 5549TIP3    H238139   4.305   5.338  14.707 -0.1005  0.6997  1.3500
 5550TIP3   OH238140   1.403   5.286   6.308  0.4496 -0.2173 -0.0368
 5550TIP3    H138141   1.331   5.339   6.271  0.7931  0.5569  0.3887
 5550TIP3    H238142   1.475   5.299   6.247  1.1428  1.3725  1.0486
 5551TIP3   OH238143   4.266   6.118  12.009  0.0654 -0.1314 -0.2031
 5551TIP3    H138144   4.243   6.099  11.918 -0.8607  2.2014 -0.5233
 5551TIP3    H238145   4.321   6.045  12.036 -0.0429 -1.1197 -2.4812
 5552TIP3   OH238146   6.575   0.856  17.006 -0.0440  0.3147  0.3307
 5552TIP3    H138147   6.624   0.774  16.999 -0.7306 -0.1708  1.1194
 5552TIP3    H238148   6.610   0.910  16.935 -0.7346 -1.2467 -1.2843
 5553TIP3   OH238149   0.913   2.674  16.835 -0.1851 -0.0005  0.8431
 5553TIP3    H138150   0.980   2.669  16.766  1.0215  0.8784  1.8968
 5553TIP3    H238151   0.855   2.601  16.817  0.1693  0.1262 -1.0293
 5554TIP3   OH238152   3.072   1.229  14.681  0.0180 -0.3996  0.1735
 5554TIP3    H138153   3.089   1.304  14.623  0.5060 -0.0556  0.7524
 5554TIP3    H238154   2.981   1.239  14.708  0.2757  0.3703  0.7872
 5555TIP3   OH238155   4.953   3.758  12.500 -0.1713 -0.5316  0.0765
 5555TIP3    H138156   5.008   3.828  12.465  1.3625 -1.4154  0.6337
 5555TIP3    H238157   4.895   3.735  12.427  0.5353  0.0811 -0.7047
 5556TIP3   OH238158   1.406   3.124  17.092 -0.6683  0.0771 -0.1452
 5556TIP3    H138159   1.497   3.154  17.090 -0.7641  0.3323 -1.0252
 5556TIP3    H238160   1.355   3.196  17.056 -0.9812 -0.8467 -1.6570
 5557TIP3   OH238161   3.632   1.600   2.858  0.3336  0.1610 -0.6432
 5557TIP3    H138162   3.709   1.565   2.812  0.4145  3.9433 -3.9368
 5557TIP3    H238163   3.668   1.642   2.936  1.4662  0.6134 -1.3760
 5558TIP3   OH238164   3.787   2.387   5.810 -0.1450  0.1327  0.7253
 5558TIP3    H138165   3.741   2.421   5.733  0.5417  0.2062  0.3359
 5558TIP3    H238166   3.840   2.461   5.841  0.1508 -0.1134  0.8146
 5559TIP3   OH238167   4.955   6.403  16.244  0.4344 -0.3731  0.3003
 5559TIP3    H138168   4.896   6.406  16.319  0.7642 -0.0282  0.5471
 5559TIP3    H238169   4.923   6.330  16.191  0.0486 -0.4572  0.6484
 5560TIP3   OH238170   4.288   5.632  14.199  0.0953 -0.5554 -0.1681
 5560TIP3    H138171   4.214   5.671  14.154  0.9050  1.1929 -0.0560
 5560TIP3    H238172   4.253   5.551  14.236 -1.3897 -0.4530 -1.2572
 5561TIP3   OH238173   6.006   2.446   4.392 -0.6746 -0.5896  0.7752
 5561TIP3    H138174   5.987   2.527   4.344  0.6302 -0.4120  0.5081
 5561TIP3    H238175   5.999   2.377   4.326  0.4376 -0.4197  0.4414
 5562TIP3   OH238176   6.090   5.666  15.295 -0.3108 -0.3113  0.1751
 5562TIP3    H138177   6.012   5.649  15.242  0.8562  0.0832 -1.7604
 5562TIP3    H238178   6.093   5.593  15.357 -1.5725 -0.9535 -0.4803
 5563TIP3   OH238179   0.239   0.387  15.919  0.0053  0.2481  0.4046
 5563TIP3    H138180   0.158   0.408  15.966 -0.1417  1.4567 -0.3708
 5563TIP3    H238181   0.277   0.472  15.896  1.1599 -0.3076  0.1603
 5564TIP3   OH238182   4.123   4.325   2.639 -0.2171 -0.1849  0.7160
 5564TIP3    H138183   4.119   4.243   2.591 -0.5306  0.6431 -0.7266
 5564TIP3    H238184   4.087   4.304   2.725 -2.1552 -1.1377 -0.2631
 5565TIP3   OH238185   3.831   0.452   6.210 -0.2062  0.1092 -0.9680
 5565TIP3    H138186   3.790   0.518   6.266  0.0577 -0.0766 -0.5508
 5565TIP3    H238187   3.764   0.432   6.144 -0.4445  0.4765 -0.8439
 5566TIP3   OH238188   3.193   1.410  13.737 -0.0012  0.2923 -0.3303
 5566TIP3    H138189   3.263   1.364  13.693 -0.0179  0.8111 -0.9076
 5566TIP3    H238190   3.181   1.491  13.687 -0.6584  0.4500  0.0608
 5567TIP3   OH238191   5.560   4.113   1.147  0.6216  0.0496 -0.0927
 5567TIP3    H138192   5.567   4.135   1.240 -0.0194  0.2835 -0.0972
 5567TIP3    H238193   5.525   4.024   1.146  1.2950 -0.2245 -0.1075
 5568TIP3   OH238194   4.270   1.982   1.434 -0.2464 -0.4746  0.4721
 5568TIP3    H138195   4.181   2.018   1.424  0.7717  2.2753  0.3785
 5568TIP3    H238196   4.301   2.018   1.517  2.3408  2.6201 -1.5897
 5569TIP3   OH238197   5.580   6.067   4.697  0.0352  0.2697  0.1507
 5569TIP3    H138198   5.550   5.987   4.740  1.9989 -1.2968 -1.1986
 5569TIP3    H238199   5.592   6.130   4.768 -0.0784 -1.1281  1.4567
 5570TIP3   OH238200   1.047   3.158   2.292  0.0048 -0.1086 -0.0531
 5570TIP3    H138201   0.965   3.200   2.318  0.2276  0.2758  0.0222
 5570TIP3    H238202   1.020   3.089   2.231 -0.5328 -1.0516  1.1946
 5571TIP3   OH238203   2.516   1.738  13.329  0.2225  0.0412 -0.2186
 5571TIP3    H138204   2.502   1.748  13.235 -1.7868  1.5464  0.1949
 5571TIP3    H238205   2.433   1.705  13.362  0.2554  1.3789  1.2899
 5572TIP3   OH238206   2.580   2.034  11.364 -0.2910 -0.4136  0.4198
 5572TIP3    H138207   2.618   2.099  11.423  0.3290 -1.1094  0.8094
 5572TIP3    H238208   2.649   1.967  11.355 -0.9553 -1.0751  0.1250
 5573TIP3   OH238209   0.632   4.630   1.492 -0.1598  0.3392 -0.2959
 5573TIP3    H138210   0.666   4.717   1.515  2.2596 -0.6734  0.2188
 5573TIP3    H238211   0.577   4.606   1.566 -0.3044  1.1472 -0.1231
 5574TIP3   OH238212   4.140   5.422  14.354  0.0168  0.1327  0.6386
 5574TIP3    H138213   4.157   5.328  14.364  3.0215  0.7110  2.0887
 5574TIP3    H238214   4.104   5.448  14.439  2.2390  0.7574  1.4695
 5575TIP3   OH238215   2.160   2.328   2.873 -0.1064 -0.1874  0.6285
 5575TIP3    H138216   2.100   2.337   2.799 -0.2344 -0.3392  0.7124
 5575TIP3    H238217   2.211   2.409   2.872  0.2827 -0.4316  0.0326
 5576TIP3   OH238218   1.666   0.135  12.293  0.1635 -0.5595 -0.4208
 5576TIP3    H138219   1.726   0.193  12.341 -0.4387 -0.0514 -0.2675
 5576TIP3    H238220   1.718   0.057  12.273  0.4512 -0.7290  0.9443
 5577TIP3   OH238221   3.158   3.356   0.200 -0.5506 -0.9031  0.1385
 5577TIP3    H138222   3.157   3.379   0.293  0.9638 -2.0752  0.4929
 5577TIP3    H238223   3.089   3.410   0.161 -0.9825 -0.1268  1.8693
 5578TIP3   OH238224   1.369   2.611   5.964 -0.3413  0.5841  0.3303
 5578TIP3    H138225   1.305   2.666   6.010  0.5166  1.1251  0.9134
 5578TIP3    H238226   1.444   2.669   5.949  0.3924 -0.2878  0.5239
 5579TIP3   OH238227   3.391   6.134   2.007 -0.3524  0.3417 -0.9238
 5579TIP3    H138228   3.441   6.163   2.083 -1.2639  1.0441 -0.5715
 5579TIP3    H238229   3.410   6.199   1.939 -0.2799  0.2429 -0.9990
 5580TIP3   OH238230   0.356   6.256  12.531 -0.1503 -0.1190 -0.4526
 5580TIP3    H138231   0.428   6.296  12.579  0.7395 -0.4585 -1.4765
 5580TIP3    H238232   0.395   6.182  12.486 -0.8475  0.4367 -2.0548
 5581TIP3   OH238233   6.268   0.346  14.625 -0.0953 -0.3098 -0.7364
 5581TIP3    H138234   6.206   0.320  14.693  1.0893 -2.5456 -0.4137
 5581TIP3    H238235   6.214   0.364  14.548 -1.3567  1.0557  0.4181
 5582TIP3   OH238236   1.825   1.879  12.081 -0.2612  0.5647  0.5257
 5582TIP3    H138237   1.783   1.908  12.162 -0.9977 -1.3548  0.8879
 5582TIP3    H238238   1.806   1.785  12.077  1.1581  0.3076 -1.0505
 5583TIP3   OH238239   0.601   1.129   3.496  0.2657  0.2410 -0.2411
 5583TIP3    H138240   0.659   1.149   3.422  0.5095  0.1605 -0.0736
 5583TIP3    H238241   0.623   1.040   3.521 -0.0102  0.1701 -0.2454
 5584TIP3   OH238242   5.978   1.775  11.535  0.3143  0.2776  0.1377
 5584TIP3    H138243   6.047   1.729  11.488 -0.2731 -1.1713  0.6183
 5584TIP3    H238244   6.007   1.866  11.538  1.2715  0.0630 -1.3315
 5585TIP3   OH238245   6.041   1.708  14.976  0.6050 -0.0532 -0.5506
 5585TIP3    H138246   6.006   1.619  14.983  0.5357 -0.0949 -1.3905
 5585TIP3    H238247   6.087   1.722  15.059  1.7941 -1.3898 -0.9455
 5586TIP3   OH238248   0.159   1.004  14.262 -0.3038 -0.7551  0.6562
 5586TIP3    H138249   0.188   0.933  14.320 -0.6437 -0.9982  0.5314
 5586TIP3    H238250   0.143   0.961  14.178  0.5827 -0.3421  0.2512
 5587TIP3   OH238251   3.692   2.832  16.448 -0.0376 -0.7348 -0.6219
 5587TIP3    H138252   3.730   2.744  16.446 -1.3042 -1.3822  1.2396
 5587TIP3    H238253   3.599   2.817  16.468  0.1999  1.0774  2.3113
 5588TIP3   OH238254   4.938   2.382  14.105 -0.7151  0.5966 -0.4884
 5588TIP3    H138255   4.898   2.359  14.189 -0.5830 -0.6671 -0.7517
 5588TIP3    H238256   5.020   2.333  14.103  0.1903  2.0521 -0.5761
 5589TIP3   OH238257   1.709   2.785   2.849 -0.3436  0.1871 -0.5545
 5589TIP3    H138258   1.790   2.762   2.894 -0.2380  2.0175  0.2514
 5589TIP3    H238259   1.661   2.702   2.843  0.7235 -0.5611  0.7215
 5590TIP3   OH238260   4.212   4.983   1.717 -0.1004 -0.0903  0.7987
 5590TIP3    H138261   4.294   5.006   1.674 -0.0823  0.5861  1.1769
 5590TIP3    H238262   4.197   5.054   1.779 -0.7462 -0.4345  1.0459
 5591TIP3   OH238263   5.954   2.810   0.352  0.0532 -0.5564 -0.3227
 5591TIP3    H138264   5.996   2.725   0.363 -0.7860 -0.9011  0.4339
 5591TIP3    H238265   5.969   2.855   0.435 -0.7199 -0.5461 -0.1753
 5592TIP3   OH238266   2.447   4.472   2.864 -0.4232  0.2401  0.2126
 5592TIP3    H138267   2.397   4.477   2.945 -0.7469 -1.0104  0.1114
 5592TIP3    H238268   2.386   4.436   2.799 -0.5241  2.2894 -0.9223
 5593TIP3   OH238269   4.132   1.603  16.227  0.1437  0.1912  0.3978
 5593TIP3    H138270   4.224   1.589  16.203  0.4508 -0.3070  1.7806
 5593TIP3    H238271   4.088   1.523  16.198  0.1057  0.5106 -0.4367
 5594TIP3   OH238272   6.076   4.597   4.624 -0.9695  0.5110 -0.4795
 5594TIP3    H138273   6.123   4.646   4.556 -1.0644  1.1706 -0.0767
 5594TIP3    H238274   6.108   4.633   4.706 -0.3014 -0.8077 -0.1351
 5595TIP3   OH238275   4.620   5.484   1.203  0.3775  0.0252 -0.2221
 5595TIP3    H138276   4.689   5.454   1.143  0.9409  0.5431  0.1609
 5595TIP3    H238277   4.544   5.498   1.146  0.8615  0.3635 -0.7998
 5596TIP3   OH238278   1.727   4.578  15.109 -0.8626 -0.7008 -0.2599
 5596TIP3    H138279   1.739   4.497  15.159 -0.4557  0.1372  1.0788
 5596TIP3    H238280   1.687   4.638  15.172 -0.3254  0.4015 -0.9429
 5597TIP3   OH238281   0.084   3.005  12.734 -0.3930  0.2046 -0.0307
 5597TIP3    H138282   0.023   3.057  12.786 -1.3318  0.4141 -1.2930
 5597TIP3    H238283   0.047   3.006  12.645  1.5998  0.5699 -0.9134
 5598TIP3   OH238284   1.132   0.503   0.802  0.0922 -0.3133  0.5185
 5598TIP3    H138285   1.075   0.520   0.876 -0.0079 -0.1647  0.4100
 5598TIP3    H238286   1.216   0.543   0.827 -0.6310  2.0388 -0.4601
 5599TIP3   OH238287   3.287   6.771  11.747 -0.4855  0.2172  0.0864
 5599TIP3    H138288   3.343   6.695  11.760 -1.8205 -0.7289  0.5536
 5599TIP3    H238289   3.332   6.824  11.682  0.8595 -0.5774  0.3452
 5600TIP3   OH238290   4.699   6.570   5.793 -0.2007 -0.6128  0.5074
 5600TIP3    H138291   4.684   6.578   5.888  1.4838  0.4070  0.7244
 5600TIP3    H238292   4.792   6.550   5.785 -0.3039 -0.6148 -0.9566
 5601TIP3   OH238293   0.341   0.065  14.027  0.1093 -0.6734  0.3856
 5601TIP3    H138294   0.308  -0.019  14.059 -1.3520 -0.3940 -0.3003
 5601TIP3    H238295   0.330   0.125  14.100 -1.0432 -0.5634  0.1410
 5602TIP3   OH238296   6.673   6.594   5.879  0.2282 -0.6741 -0.2098
 5602TIP3    H138297   6.653   6.687   5.885  0.9764 -0.4082 -1.4569
 5602TIP3    H238298   6.765   6.587   5.903  0.1961 -1.0781 -0.1882
 5603TIP3   OH238299   2.262   1.068   1.507  0.9069 -0.4275  0.5170
 5603TIP3    H138300   2.167   1.076   1.520  1.0885  0.4513  1.4493
 5603TIP3    H238301   2.296   1.155   1.526  1.7762 -0.3268 -1.2722
 5604TIP3   OH238302   3.088   0.912   5.655 -0.2525  0.8120 -0.4599
 5604TIP3    H138303   3.079   0.837   5.595  1.0979 -0.2384  0.5873
 5604TIP3    H238304   3.000   0.923   5.692 -0.4478 -0.3127 -0.5534
 5605TIP3   OH238305   4.913   2.837   3.267 -0.4234  0.0691  0.2965
 5605TIP3    H138306   4.926   2.892   3.345  0.9455  1.4203 -0.8352
 5605TIP3    H238307   4.836   2.875   3.224  0.1163  0.6717 -0.1340
 5606TIP3   OH238308   4.994   3.135  13.233 -0.2749  0.6787 -0.0905
 5606TIP3    H138309   4.934   3.064  13.208  1.7629 -1.4021  0.5427
 5606TIP3    H238310   4.952   3.177  13.308 -1.2379 -0.2808 -0.0605
 5607TIP3   OH238311   0.173   1.039  17.040  0.0173  0.1743 -0.1670
 5607TIP3    H138312   0.189   1.090  16.960 -1.2697  1.7244  0.5010
 5607TIP3    H238313   0.250   1.055  17.095  1.5716 -2.0061 -1.5583
 5608TIP3   OH238314   0.504   6.429  13.910 -0.2886  0.1183  0.1725
 5608TIP3    H138315   0.529   6.358  13.969 -0.1066 -0.8997 -1.0874
 5608TIP3    H238316   0.409   6.429  13.910 -0.3391 -1.6967 -1.5822
 5609TIP3   OH238317   1.563   1.841   3.326 -0.1658  0.0685  0.2207
 5609TIP3    H138318   1.591   1.836   3.235 -0.2544 -0.3881  0.2171
 5609TIP3    H238319   1.604   1.766   3.368 -0.6102 -0.0615  0.4278
 5610TIP3   OH238320   5.721   4.319   1.056 -0.3387 -0.6318 -0.2589
 5610TIP3    H138321   5.654   4.251   1.052 -2.2246  1.1007  0.0627
 5610TIP3    H238322   5.682   4.393   1.008  1.7168  0.1611 -0.7916
 5611TIP3   OH238323   0.864   0.815  13.688  0.3643 -0.0304 -0.2479
 5611TIP3    H138324   0.842   0.907  13.673  0.0399 -0.1546 -0.5483
 5611TIP3    H238325   0.780   0.772  13.701  0.5888 -0.0053  1.5821
 5612TIP3   OH238326   6.002   5.266   0.580 -0.0840 -0.3396 -0.4056
 5612TIP3    H138327   5.979   5.317   0.657 -1.4288 -1.1802 -0.2111
 5612TIP3    H238328   5.932   5.285   0.517 -0.8616 -2.2078 -0.1704
 5613TIP3   OH238329   4.786   2.912  11.990  0.6665  0.8355 -0.1504
 5613TIP3    H138330   4.794   2.999  12.028 -0.2632  1.4122 -1.2176
 5613TIP3    H238331   4.871   2.894  11.951  1.0476  1.0056  0.5940
 5614TIP3   OH238332   2.370   6.056  16.865 -0.6183 -0.2167  0.3849
 5614TIP3    H138333   2.345   5.993  16.797  2.3878 -1.9054  0.6879
 5614TIP3    H238334   2.461   6.079  16.844 -0.9490  2.4753  1.5104
 5615TIP3   OH238335   1.104   2.208   5.329  0.2507  0.1805 -0.0468
 5615TIP3    H138336   1.117   2.159   5.248  0.8165 -0.5397  0.4581
 5615TIP3    H238337   1.076   2.142   5.393 -0.7726  0.8302  0.2157
 5616TIP3   OH238338   1.701   2.975   2.009 -0.3716  0.0405 -0.1519
 5616TIP3    H138339   1.774   3.035   1.995  0.5776 -1.0236  0.1539
 5616TIP3    H238340   1.643   2.990   1.934  0.0583  1.0130 -0.3088
 5617TIP3   OH238341   6.479   5.131   4.323  0.0047  0.0581 -0.5097
 5617TIP3    H138342   6.453   5.172   4.241  1.3314  0.6809 -0.6498
 5617TIP3    H238343   6.538   5.060   4.296  1.2423  0.8879 -0.0906
 5618TIP3   OH238344   2.650   2.024   5.129 -0.1532 -0.2372  0.4764
 5618TIP3    H138345   2.572   2.002   5.181  0.5273 -1.3607  1.0627
 5618TIP3    H238346   2.636   1.981   5.045 -1.3981  1.8327 -0.4624
 5619TIP3   OH238347   0.609   4.907   3.253 -0.6387 -0.2622  0.5384
 5619TIP3    H138348   0.685   4.951   3.291  0.5657 -1.1493 -0.7679
 5619TIP3    H238349   0.584   4.962   3.179 -0.3619 -0.6898  0.1135
 5620TIP3   OH238350   1.058   1.090   2.600 -0.4527  0.2861  0.0843
 5620TIP3    H138351   1.063   1.076   2.505 -0.1284 -0.2179  0.1758
 5620TIP3    H238352   1.121   1.029   2.637  0.5757  1.5854  0.5354
 5621TIP3   OH238353   1.250   0.555  13.149 -0.3901 -0.1268 -0.5421
 5621TIP3    H138354   1.284   0.515  13.229 -2.9067 -0.5055  0.4460
 5621TIP3    H238355   1.275   0.496  13.079 -0.3108 -1.1518  0.3287
 5622TIP3   OH238356   4.823   3.368   5.648  0.9728  0.2726  0.1440
 5622TIP3    H138357   4.744   3.317   5.634  1.8367 -0.8924 -0.6832
 5622TIP3    H238358   4.850   3.349   5.738  0.2490  0.7902  0.4770
 5623TIP3   OH238359   4.765   3.689  11.381  0.3178  0.4063 -0.6613
 5623TIP3    H138360   4.818   3.615  11.353  1.0103 -0.7239  3.0869
 5623TIP3    H238361   4.678   3.652  11.397  1.4095 -0.7972  4.4883
 5624TIP3   OH238362   1.361   3.706  11.333 -0.2248  0.3318 -0.2033
 5624TIP3    H138363   1.337   3.625  11.380 -0.6255  1.1968  1.1415
 5624TIP3    H238364   1.288   3.765  11.351  1.8930  2.4128  2.3946
 5625TIP3   OH238365   3.654   6.501   0.117 -0.0322  1.2321  0.0654
 5625TIP3    H138366   3.735   6.550   0.103  0.6069  0.6471  1.5591
 5625TIP3    H238367   3.594   6.534   0.050  1.8942  0.6285 -2.0659
 5626TIP3   OH238368   3.431   0.754   6.023 -0.2915  0.5070  0.3210
 5626TIP3    H138369   3.421   0.848   6.041 -0.0826  0.1501  2.6495
 5626TIP3    H238370   3.476   0.720   6.101 -0.4142 -1.5380 -0.4508
 5627TIP3   OH238371   3.551   5.200   6.407  0.3463  0.3071 -0.3883
 5627TIP3    H138372   3.556   5.137   6.335 -0.5385  0.2077 -0.3834
 5627TIP3    H238373   3.490   5.159   6.469 -2.6789  2.4354 -1.7310
 5628TIP3   OH238374   6.441   2.148  14.722 -0.6959  0.1796  0.4946
 5628TIP3    H138375   6.478   2.060  14.731 -0.2655  0.1587 -1.2069
 5628TIP3    H238376   6.518   2.206  14.723 -0.8046  0.3491 -0.5448
 5629TIP3   OH238377   6.399   3.909  11.934 -0.4631 -0.1340  0.1932
 5629TIP3    H138378   6.478   3.870  11.896  1.1623  1.4753  1.7084
 5629TIP3    H238379   6.342   3.835  11.952  0.2960 -1.2679 -1.7866
 5630TIP3   OH238380   1.509   1.251  16.528  0.3544 -0.2333 -0.0808
 5630TIP3    H138381   1.510   1.160  16.556  0.2001 -0.1580  0.1706
 5630TIP3    H238382   1.595   1.265  16.489 -0.3381 -1.0812 -2.0276
 5631TIP3   OH238383   0.975   3.048  12.122 -0.2286 -0.4680  0.4223
 5631TIP3    H138384   0.886   3.081  12.108  0.4473  0.6214 -1.7263
 5631TIP3    H238385   0.962   2.965  12.168 -2.3368 -0.2556  0.3336
 5632TIP3   OH238386   5.198   2.583   0.880  0.4727 -0.0644  0.2191
 5632TIP3    H138387   5.288   2.613   0.881 -0.3845  2.8082 -0.3103
 5632TIP3    H238388   5.146   2.662   0.864 -1.9022 -2.0896 -3.8489
 5633TIP3   OH238389   1.557   1.491  12.467 -0.0743  0.6222  0.6055
 5633TIP3    H138390   1.607   1.419  12.428  0.2985  1.4290 -0.4669
 5633TIP3    H238391   1.488   1.448  12.517  0.6948 -0.4921  0.7521
 5634TIP3   OH238392   1.152   1.036   3.898  0.9230 -0.1732  0.0060
 5634TIP3    H138393   1.071   1.002   3.859  0.2324 -0.2970  1.4824
 5634TIP3    H238394   1.221   0.981   3.861  0.0462 -1.8349  0.7253
 5635TIP3   OH238395   5.959   1.393   5.251  0.3390  0.1952  0.2918
 5635TIP3    H138396   5.877   1.381   5.203  0.0353  0.7367  0.6623
 5635TIP3    H238397   6.015   1.321   5.221  0.7455  1.3979 -2.1030
 5636TIP3   OH238398   0.824   6.626   3.020  0.1337  0.0812 -0.0826
 5636TIP3    H138399   0.899   6.685   3.026  1.1657 -0.9202 -2.1468
 5636TIP3    H238400   0.854   6.545   3.060  0.6532 -0.7277 -2.0198
 5637TIP3   OH238401   2.883   0.721  15.004 -0.1792  0.2174  0.1803
 5637TIP3    H138402   2.882   0.794  14.942  0.3676 -0.1499 -0.2725
 5637TIP3    H238403   2.892   0.643  14.950 -0.1851 -0.1465  0.6944
 5638TIP3   OH238404   3.914   1.948   5.608 -0.2024  0.7715  0.1164
 5638TIP3    H138405   3.943   1.913   5.693 -1.1111  0.2362  0.2273
 5638TIP3    H238406   3.835   1.998   5.629  0.5244  2.0787 -0.1898
 5639TIP3   OH238407   3.001   6.596  10.384  0.0977  0.0124 -0.6189
 5639TIP3    H138408   2.918   6.549  10.399 -0.0752  0.6089  0.3711
 5639TIP3    H238409   3.068   6.528  10.388 -0.2145 -0.2660  0.0846
 5640TIP3   OH238410   0.843   3.461  11.275 -0.3019  0.6941 -0.0575
 5640TIP3    H138411   0.809   3.392  11.218  1.5721  0.9372 -1.5542
 5640TIP3    H238412   0.843   3.421  11.362  0.2678 -1.0344 -0.8025
 5641TIP3   OH238413   6.264   4.555   1.989  0.1129 -0.1109 -0.5097
 5641TIP3    H138414   6.223   4.510   2.063 -0.9253 -1.4777 -1.8602
 5641TIP3    H238415   6.202   4.624   1.965  0.2720  0.0861 -0.3613
 5642TIP3   OH238416   2.358   5.039   0.525  0.3096 -0.1492 -0.6043
 5642TIP3    H138417   2.273   4.999   0.544  0.2649 -0.0168 -0.5280
 5642TIP3    H238418   2.420   4.966   0.531  0.7072  0.3174  2.7671
 5643TIP3   OH238419   2.146   3.126   4.685 -0.0499  0.2138 -0.1535
 5643TIP3    H138420   2.141   3.219   4.662  1.3417  0.7516  1.4634
 5643TIP3    H238421   2.105   3.121   4.772 -1.7720 -1.0558 -0.9775
 5644TIP3   OH238422   2.476   6.454   0.897  0.2257  0.3142  0.4520
 5644TIP3    H138423   2.537   6.524   0.872  0.3152  1.1721  2.8060
 5644TIP3    H238424   2.396   6.501   0.923 -0.8954 -0.6996 -1.0233
 5645TIP3   OH238425   3.543   1.168  12.496  0.1039 -0.0061 -0.0011
 5645TIP3    H138426   3.590   1.250  12.478  0.8991 -0.1690  1.1883
 5645TIP3    H238427   3.469   1.169  12.436 -0.8324  2.3527  1.0358
 5646TIP3   OH238428   5.748   0.065  11.160  0.4553 -0.4508  0.0312
 5646TIP3    H138429   5.666   0.050  11.113  0.3372 -0.4553  0.2343
 5646TIP3    H238430   5.814   0.075  11.092  0.1007  0.6621 -0.1750
 5647TIP3   OH238431   1.993   6.393  12.390 -0.6653 -0.5677  0.2386
 5647TIP3    H138432   1.938   6.315  12.384 -1.9156  0.2923 -0.0568
 5647TIP3    H238433   1.932   6.463  12.416  0.3289  0.3948  0.0728
 5648TIP3   OH238434   2.731   2.988   5.724  0.7132  0.4753 -0.6951
 5648TIP3    H138435   2.762   2.916   5.779 -0.5010 -0.7128 -1.5120
 5648TIP3    H238436   2.806   3.009   5.668  0.8541 -0.6694 -0.9634
 5649TIP3   OH238437   3.335   5.608  13.973  0.0219  0.0257 -0.0533
 5649TIP3    H138438   3.380   5.561  13.903  2.6056  0.9013  0.8960
 5649TIP3    H238439   3.354   5.558  14.052  0.2860  1.0321  0.5407
 5650TIP3   OH238440   1.710   5.744  14.836  0.3968 -0.9422  0.5196
 5650TIP3    H138441   1.778   5.689  14.875  2.0912  1.2621  0.8739
 5650TIP3    H238442   1.679   5.799  14.909  0.6977  0.4157 -0.3354
 5651TIP3   OH238443   5.446   1.094  11.735  0.4117 -0.2879  0.8063
 5651TIP3    H138444   5.542   1.090  11.737  0.5153  1.4695  1.1035
 5651TIP3    H238445   5.422   1.132  11.820 -0.5185 -0.3952  0.5994
 5652TIP3   OH238446   1.657   3.270   1.371  0.0176  0.0627  0.5954
 5652TIP3    H138447   1.702   3.292   1.453 -0.0105 -1.1066  0.9532
 5652TIP3    H238448   1.716   3.208   1.328 -1.9413 -2.9528  1.9159
 5653TIP3   OH238449   0.295   2.071  16.707  0.5327  0.3273  0.0102
 5653TIP3    H138450   0.245   2.129  16.765  2.1949  1.0689  0.7726
 5653TIP3    H238451   0.359   2.129  16.665  0.7534 -0.5838 -0.9491
 5654TIP3   OH238452   3.600   5.023   0.230 -0.3744 -0.1555 -0.2342
 5654TIP3    H138453   3.564   5.100   0.274  2.4681 -0.6521  3.3625
 5654TIP3    H238454   3.528   4.959   0.232 -1.6408  1.2128 -0.1588
 5655TIP3   OH238455   5.760   5.038   0.379 -0.0812  0.4455 -0.4692
 5655TIP3    H138456   5.690   5.095   0.349  0.9606  1.0477 -1.8705
 5655TIP3    H238457   5.775   4.979   0.305 -2.1571 -2.7789  1.4290
 5656TIP3   OH238458   6.349   3.837   0.054 -0.4700  0.0075  0.1624
 5656TIP3    H138459   6.326   3.747   0.031  2.2641 -0.4602 -1.1141
 5656TIP3    H238460   6.311   3.889  -0.017  0.3244 -0.4847 -0.6487
 5657TIP3   OH238461   1.912   6.504   3.355 -0.3147 -0.4014  0.3632
 5657TIP3    H138462   1.985   6.549   3.397 -0.0850  0.7682 -1.1975
 5657TIP3    H238463   1.948   6.419   3.330  0.1699 -0.2728  0.6083
 5658TIP3   OH238464   6.762   6.065   0.954  0.1990  0.2045 -0.0072
 5658TIP3    H138465   6.777   6.116   1.034 -0.9073  1.9656 -0.8403
 5658TIP3    H238466   6.666   6.063   0.945  0.2981  0.9310 -1.7695
 5659TIP3   OH238467   2.282   5.098  13.229  0.0692 -0.0293 -0.2986
 5659TIP3    H138468   2.225   5.065  13.158  2.5949 -1.3634 -1.8656
 5659TIP3    H238469   2.301   5.188  13.204 -1.8443  0.6761  0.6259
 5660TIP3   OH238470   5.227   3.247   1.714  0.2615  0.0822  0.4906
 5660TIP3    H138471   5.172   3.170   1.731 -0.8044  1.1261  2.0467
 5660TIP3    H238472   5.307   3.232   1.764  0.0154  0.0100  0.8656
 5661TIP3   OH238473   1.007   4.648  14.403  0.5569  0.0765  0.5325
 5661TIP3    H138474   1.046   4.658  14.490  0.3221  0.4172  0.6022
 5661TIP3    H238475   0.960   4.564  14.407  0.9437 -0.1403  0.5773
 5662TIP3   OH238476   4.646   4.172  14.957  0.0075  0.6095 -0.1856
 5662TIP3    H138477   4.568   4.189  15.011  0.8847  0.8179  1.0607
 5662TIP3    H238478   4.670   4.258  14.922 -0.4149  0.5151 -0.7237
 5663TIP3   OH238479   0.376   0.879  13.923 -0.2368 -0.2816  0.1701
 5663TIP3    H138480   0.434   0.856  13.996 -1.2668  0.6471  1.3136
 5663TIP3    H238481   0.359   0.972  13.934  1.2894  0.4259 -2.5257
 5664TIP3   OH238482   4.458   6.563  14.713  0.5768 -0.1021  0.3044
 5664TIP3    H138483   4.516   6.633  14.681  0.1378  0.5267  0.8624
 5664TIP3    H238484   4.496   6.483  14.678  2.3873  0.1898  1.4869
 5665TIP3   OH238485   2.277   0.326   5.289 -0.2556  0.4252 -0.2087
 5665TIP3    H138486   2.235   0.375   5.360 -1.3660  1.8399 -1.7416
 5665TIP3    H238487   2.333   0.390   5.246 -0.6161 -0.0225 -1.3888
 5666TIP3   OH238488   6.127   1.413  16.041 -0.2650  0.2444  0.4418
 5666TIP3    H138489   6.078   1.459  15.973 -0.3636  1.8943  1.5546
 5666TIP3    H238490   6.075   1.334  16.058 -1.5439  1.0109  0.2631
 5667TIP3   OH238491   2.952   5.857  17.069  0.2047 -0.4589 -0.1436
 5667TIP3    H138492   2.996   5.772  17.077  0.0405 -0.6282 -0.9836
 5667TIP3    H238493   2.859   5.837  17.076  0.1705 -0.3388 -0.2545
 5668TIP3   OH238494   6.168   2.136   3.421 -0.3770  0.2747  0.2361
 5668TIP3    H138495   6.153   2.190   3.499 -0.7197  0.0346  0.3370
 5668TIP3    H238496   6.087   2.143   3.371  0.1025  1.0125 -0.4641
 5669TIP3   OH238497   1.985   1.756  17.242  0.4403  0.1440 -0.1552
 5669TIP3    H138498   2.049   1.800  17.298  0.7315  0.0626 -0.4253
 5669TIP3    H238499   2.037   1.699  17.186  0.1094 -0.1098 -0.2040
 5670TIP3   OH238500   2.184   6.333   0.292 -0.4167  0.1616 -0.4841
 5670TIP3    H138501   2.227   6.346   0.207 -2.5719  0.0283 -1.6829
 5670TIP3    H238502   2.238   6.269   0.337  0.7892  0.2169 -1.7717
 5671TIP3   OH238503   6.731   4.541   3.427  0.2824  0.0096 -0.3610
 5671TIP3    H138504   6.803   4.602   3.411  2.1417 -1.0971  2.8348
 5671TIP3    H238505   6.764   4.457   3.394  1.0258 -0.7122  2.0174
 5672TIP3   OH238506   0.076   1.414  15.851  0.0299 -0.3619 -0.2946
 5672TIP3    H138507   0.148   1.391  15.793 -0.3037  1.4031 -1.4932
 5672TIP3    H238508   0.027   1.333  15.863  0.6760 -0.9809 -1.6845
 5673TIP3   OH238509   3.193   1.882   5.875 -0.1922 -0.1663 -0.6230
 5673TIP3    H138510   3.253   1.950   5.905 -2.2210  0.8568  1.4920
 5673TIP3    H238511   3.211   1.808   5.933  1.0515 -0.9976 -2.0062
 5674TIP3   OH238512   4.016   3.338  13.708  0.1774 -0.2493 -0.5769
 5674TIP3    H138513   4.098   3.381  13.730  0.9161 -1.8540 -0.0674
 5674TIP3    H238514   3.976   3.317  13.793 -0.8505  0.6436 -0.8142
 5675TIP3   OH238515   5.961   4.112   5.281  0.4852 -0.2044 -0.5785
 5675TIP3    H138516   5.902   4.058   5.333 -1.5356  1.1825 -1.2891
 5675TIP3    H238517   5.977   4.062   5.201  1.0968 -1.0021  0.0286
 5676TIP3   OH238518   1.162   2.868  16.711  0.1930 -0.1986 -0.4597
 5676TIP3    H138519   1.177   2.866  16.806 -1.1911  0.8957 -0.1891
 5676TIP3    H238520   1.071   2.895  16.702  0.2030 -0.6391 -2.1113
 5677TIP3   OH238521   6.100   6.507   2.367 -0.4227 -0.1965  0.1603
 5677TIP3    H138522   6.124   6.477   2.279 -0.9463 -0.1292 -0.0089
 5677TIP3    H238523   6.182   6.502   2.417  0.5703  2.3612 -1.0292
 5678TIP3   OH238524   3.864   4.768   0.248 -0.0081  0.0023  0.6316
 5678TIP3    H138525   3.819   4.809   0.175 -0.2830  0.1622  0.8895
 5678TIP3    H238526   3.844   4.674   0.238  1.7018 -0.2584 -0.7101
 5679TIP3   OH238527   2.710   5.816   0.146 -0.3994  0.1429  0.0761
 5679TIP3    H138528   2.699   5.890   0.205 -0.5259  0.0285  0.1996
 5679TIP3    H238529   2.625   5.772   0.148  0.0448 -0.7158  0.9776
 5680TIP3   OH238530   6.379   2.578   5.920  0.9097  0.2967 -0.0138
 5680TIP3    H138531   6.383   2.668   5.950  1.5582  0.1594  0.3434
 5680TIP3    H238532   6.440   2.531   5.977  1.8884 -0.0542 -1.2972
 5681TIP3   OH238533   1.450   4.819  12.378 -0.3752 -0.1262 -0.1423
 5681TIP3    H138534   1.380   4.779  12.429 -1.5430  1.4722 -0.4472
 5681TIP3    H238535   1.475   4.751  12.315  0.5130 -1.8292  1.9051
 5682TIP3   OH238536   5.784   0.818  12.876 -0.4151  0.1194  0.0784
 5682TIP3    H138537   5.820   0.764  12.806 -0.6150 -0.9976  0.8106
 5682TIP3    H238538   5.690   0.826  12.856 -0.6325 -0.8993  0.6450
 5683TIP3   OH238539   3.023   1.030   2.425  0.0734 -0.0945  0.3151
 5683TIP3    H138540   2.997   0.948   2.384  0.6262  0.9147 -2.2514
 5683TIP3    H238541   3.112   1.014   2.457 -0.3235 -0.8736  1.0617
 5684TIP3   OH238542   4.462   4.230  16.776 -0.0688 -0.3015 -0.5641
 5684TIP3    H138543   4.525   4.211  16.846 -1.3586  0.4686  0.8521
 5684TIP3    H238544   4.398   4.159  16.783 -0.2348 -0.1881 -0.9477
 5685TIP3   OH238545   4.804   2.200   4.852 -0.0782 -0.0986 -0.2987
 5685TIP3    H138546   4.824   2.107   4.860 -1.6584 -0.4685 -0.4744
 5685TIP3    H238547   4.890   2.243   4.860  0.6228 -1.5206  0.2294
 5686TIP3   OH238548   0.236   1.843   5.007 -0.7256 -0.1193  0.3030
 5686TIP3    H138549   0.307   1.888   4.961 -0.9207 -0.1066  0.0086
 5686TIP3    H238550   0.156   1.885   4.974 -0.8144  0.8562  1.7080
 5687TIP3   OH238551   0.678   5.893   0.743 -0.1585  0.3601  0.8790
 5687TIP3    H138552   0.745   5.953   0.710 -0.7968  0.1058 -0.9941
 5687TIP3    H238553   0.603   5.906   0.684 -0.0562 -2.7936 -0.1200
 5688TIP3   OH238554   2.439   3.730  14.883  0.2501 -0.4964  0.5801
 5688TIP3    H138555   2.484   3.785  14.819 -0.0935  0.0460  0.8072
 5688TIP3    H238556   2.507   3.669  14.914  0.5684 -0.3545  0.1631
 5689TIP3   OH238557   2.278   4.011   3.561  0.5958  0.3881 -0.0936
 5689TIP3    H138558   2.301   3.932   3.610  1.8639  0.9065  0.1753
 5689TIP3    H238559   2.318   3.999   3.475  1.4309  1.0508  0.1918
 5690TIP3   OH238560   3.165   5.407  10.752  0.4966 -0.0460 -0.3315
 5690TIP3    H138561   3.165   5.352  10.674 -0.1429 -0.8768  0.2352
 5690TIP3    H238562   3.256   5.438  10.760  0.3822  0.8236 -1.9079
 5691TIP3   OH238563   3.001   1.917  14.208  0.6885  0.1357  0.6351
 5691TIP3    H138564   2.940   1.898  14.279  0.9099  1.0828  1.0890
 5691TIP3    H238565   2.955   1.887  14.129 -0.5257  1.1714  0.9192
 5692TIP3   OH238566   1.482   5.214  16.120  0.0884 -0.3588 -0.5015
 5692TIP3    H138567   1.456   5.285  16.179  0.4564 -0.0949 -0.6577
 5692TIP3    H238568   1.417   5.146  16.136  0.1024 -0.2384  0.1196
 5693TIP3   OH238569   2.538   1.258   1.325  0.4181  0.5588  0.1463
 5693TIP3    H138570   2.538   1.299   1.412 -2.6809 -2.8916  2.0386
 5693TIP3    H238571   2.486   1.317   1.271  0.1417  1.4608  1.3582
 5694TIP3   OH238572   3.892   0.675   5.631  0.7904 -0.4079  0.1633
 5694TIP3    H138573   3.834   0.695   5.557 -0.2590 -0.9893  0.8031
 5694TIP3    H238574   3.835   0.632   5.694  1.8998 -0.8169  0.8987
 5695TIP3   OH238575   1.494   6.165  13.986  0.6272  0.3832  0.0444
 5695TIP3    H138576   1.416   6.127  14.026  0.0426  1.0649 -0.4212
 5695TIP3    H238577   1.466   6.250  13.954  1.6370  0.7543  0.0960
 5696TIP3   OH238578   4.036   3.142   2.975  0.3945 -0.0529  0.2020
 5696TIP3    H138579   4.113   3.159   2.920  0.0633 -0.7318 -0.4796
 5696TIP3    H238580   3.968   3.114   2.914  0.6329 -2.9501  1.0974
 5697TIP3   OH238581   2.296   6.540  14.072  0.2538 -0.6294 -0.5466
 5697TIP3    H138582   2.221   6.508  14.022  0.6875 -0.9167 -1.0187
 5697TIP3    H238583   2.299   6.483  14.149 -0.5694 -0.0225 -0.0508
 5698TIP3   OH238584   2.639   4.950  14.389 -0.2914  0.5649 -0.1703
 5698TIP3    H138585   2.661   5.022  14.448 -0.7040  1.4268 -1.0303
 5698TIP3    H238586   2.544   4.959  14.375 -0.1668  0.5207 -1.1268
 5699TIP3   OH238587   2.099   1.621  16.472 -0.1629  0.5048  0.9373
 5699TIP3    H138588   2.005   1.607  16.466 -0.2797  1.3404  0.7351
 5699TIP3    H238589   2.131   1.546  16.523 -0.7270 -0.5316 -0.1997
 5700TIP3   OH238590   6.302   6.798   2.890 -0.5216  0.0105 -0.1359
 5700TIP3    H138591   6.281   6.710   2.923  0.6339  0.0232  0.7136
 5700TIP3    H238592   6.397   6.805   2.902 -0.4978  1.1100 -0.8760
 5701TIP3   OH238593   4.196   2.070  16.083  0.5959 -0.5305 -0.4175
 5701TIP3    H138594   4.114   2.021  16.082 -0.3007  0.7899  1.6465
 5701TIP3    H238595   4.213   2.089  15.991 -1.2268 -1.1449 -0.9249
 5702TIP3   OH238596   0.581   1.997  13.967  0.7283  0.3890 -0.0022
 5702TIP3    H138597   0.519   1.937  13.927 -1.4550  3.1382 -1.0585
 5702TIP3    H238598   0.636   1.941  14.022 -0.9131 -2.5550 -1.1110
 5703TIP3   OH238599   0.796   1.764   1.341  0.0377 -0.1432  0.2786
 5703TIP3    H138600   0.809   1.683   1.390  0.7597  0.0153  0.3701
 5703TIP3    H238601   0.784   1.832   1.407 -0.7668 -0.1980  0.1994
 5704TIP3   OH238602   1.536   2.330  10.429 -0.3177  0.1015 -0.1253
 5704TIP3    H138603   1.607   2.386  10.460 -2.2884  2.4596  0.4091
 5704TIP3    H238604   1.565   2.241  10.451  2.0527  1.0298  0.8377
 5705TIP3   OH238605   4.704   6.343   6.287  0.6618  0.2520 -0.0314
 5705TIP3    H138606   4.684   6.250   6.299 -0.4976  0.4288 -0.4559
 5705TIP3    H238607   4.652   6.387   6.353  0.4390  0.6716 -0.4874
 5706TIP3   OH238608   0.400   0.852   4.064 -0.1636 -0.1717  0.0326
 5706TIP3    H138609   0.336   0.849   4.136 -0.7109 -0.9798 -0.4713
 5706TIP3    H238610   0.457   0.926   4.086 -0.2383 -0.4878  1.3609
 5707TIP3   OH238611   1.537   3.220  11.584 -0.6737 -0.2324 -0.1770
 5707TIP3    H138612   1.602   3.273  11.630 -1.5466 -0.5074  1.4191
 5707TIP3    H238613   1.588   3.152  11.540  0.3100  0.9546 -0.9218
 5708TIP3   OH238614   0.345   0.805   4.649 -0.4314  0.0594  0.4412
 5708TIP3    H138615   0.269   0.848   4.687 -1.1564  1.1448 -2.0692
 5708TIP3    H238616   0.396   0.876   4.609 -0.2387 -1.0713 -1.4291
 5709TIP3   OH238617   2.013   0.480  11.521  0.6355  0.1916 -0.4086
 5709TIP3    H138618   1.988   0.540  11.451 -0.6911  0.3158  0.1403
 5709TIP3    H238619   2.039   0.537  11.593  0.4633  0.0970 -0.2699
 5710TIP3   OH238620   3.521   6.068  12.502  0.2029  0.5788 -0.1468
 5710TIP3    H138621   3.482   6.040  12.419 -0.0144  0.8450 -0.1395
 5710TIP3    H238622   3.446   6.084  12.559  0.1704  3.0739 -0.7660
 5711TIP3   OH238623   6.065   1.825   4.452  0.1632  0.6552  0.3900
 5711TIP3    H138624   6.154   1.860   4.446 -0.1037  1.2557 -0.2103
 5711TIP3    H238625   6.060   1.759   4.383 -0.9050  3.0672 -2.0579
 5712TIP3   OH238626   0.104   2.263   5.784  0.4939 -0.2423 -0.4873
 5712TIP3    H138627   0.154   2.288   5.861  1.0048  0.8250 -1.1541
 5712TIP3    H238628   0.026   2.319   5.787  1.3546  1.0471 -1.6678
 5713TIP3   OH238629   1.151   3.770  17.253  0.0540 -0.1490  0.1165
 5713TIP3    H138630   1.194   3.783  17.337 -2.1184  0.6934  1.1904
 5713TIP3    H238631   1.080   3.708  17.271 -1.4281  1.2356 -0.6888
 5714TIP3   OH238632   4.864   4.878   1.642  0.1870  0.0601  0.1129
 5714TIP3    H138633   4.773   4.878   1.674  0.0301 -1.1871 -0.2765
 5714TIP3    H238634   4.884   4.971   1.626 -1.0441  0.3465  0.1199
 5715TIP3   OH238635   6.113   2.843   3.255  0.3196 -0.4141  0.5222
 5715TIP3    H138636   6.192   2.896   3.263  1.2420 -1.9811  3.1550
 5715TIP3    H238637   6.144   2.752   3.262 -1.4802 -1.2081 -0.9661
 5716TIP3   OH238638   4.514   0.888  11.937 -0.4382 -0.1080  0.4208
 5716TIP3    H138639   4.487   0.961  11.992  0.0447 -0.4182  1.0747
 5716TIP3    H238640   4.486   0.810  11.984 -3.2938 -0.3736 -1.4536
 5717TIP3   OH238641   1.500   5.886   2.789 -0.0421  0.2765  0.4897
 5717TIP3    H138642   1.574   5.852   2.840  2.1486  2.3965 -1.0258
 5717TIP3    H238643   1.523   5.978   2.772 -2.1243  0.5028 -1.6544
 5718TIP3   OH238644   3.805   5.693  17.035  0.1076 -0.2579 -0.0099
 5718TIP3    H138645   3.757   5.648  16.966 -0.5271 -0.1025  0.3258
 5718TIP3    H238646   3.892   5.709  16.997 -0.0018 -0.8180 -0.5046
 5719TIP3   OH238647   1.514   0.563  15.310  0.3287  0.0609  0.3530
 5719TIP3    H138648   1.450   0.586  15.376 -0.9920 -1.5566 -0.3058
 5719TIP3    H238649   1.536   0.646  15.268 -2.6441  0.5089 -0.5338
 5720TIP3   OH238650   5.759   4.455  13.757 -0.2482 -0.7690  0.0495
 5720TIP3    H138651   5.664   4.461  13.742 -0.1696 -2.9316 -2.0199
 5720TIP3    H238652   5.778   4.362  13.747  2.0784 -0.4162  0.6863
 5721TIP3   OH238653   3.460   5.374  14.453 -0.0325  0.1167 -0.2723
 5721TIP3    H138654   3.549   5.349  14.428  0.7756  1.1500  1.3751
 5721TIP3    H238655   3.417   5.291  14.473  0.3277 -0.4446 -1.7226
 5722TIP3   OH238656   0.904   4.883   3.947  0.2379  0.3660 -0.0952
 5722TIP3    H138657   0.995   4.860   3.966  0.2413 -1.0101 -1.5833
 5722TIP3    H238658   0.869   4.914   4.031  1.6650 -0.5002  0.8593
 5723TIP3   OH238659   6.797   5.342   1.597 -0.1517  0.3214 -0.1556
 5723TIP3    H138660   6.716   5.371   1.638 -1.3721 -1.6861 -1.0363
 5723TIP3    H238661   6.778   5.341   1.504  0.5243 -1.1805 -0.3061
 5724TIP3   OH238662   2.323   2.036   1.784 -0.2962 -0.2061 -0.1368
 5724TIP3    H138663   2.398   1.984   1.754 -0.5937 -0.2622 -0.8111
 5724TIP3    H238664   2.331   2.038   1.879  0.2266 -0.7221 -0.1655
 5725TIP3   OH238665   6.214   5.001   4.390  0.0284  0.1433 -0.0069
 5725TIP3    H138666   6.292   5.037   4.432  0.2036  0.1780 -0.3544
 5725TIP3    H238667   6.145   5.064   4.408 -0.8814 -1.5940  3.4704
 5726TIP3   OH238668   0.454   5.309   0.864  0.6496  0.0905 -0.1133
 5726TIP3    H138669   0.444   5.264   0.781 -3.6355  0.5678 -0.0402
 5726TIP3    H238670   0.505   5.387   0.843 -0.3781  0.2354 -2.3139
 5727TIP3   OH238671   1.425   2.841   1.569 -0.4091  0.0478 -0.0218
 5727TIP3    H138672   1.443   2.884   1.485 -0.6406  2.0061  0.8817
 5727TIP3    H238673   1.508   2.844   1.616 -0.8687  1.2221  0.7615
 5728TIP3   OH238674   0.580   5.773  13.584 -0.4096 -0.1883 -0.0554
 5728TIP3    H138675   0.486   5.777  13.568 -0.8373 -0.2989  2.1603
 5728TIP3    H238676   0.589   5.731  13.669  1.6903 -0.6739 -0.4437
 5729TIP3   OH238677   5.792   4.583   5.724 -0.7122 -0.6144  0.7837
 5729TIP3    H138678   5.716   4.629   5.757 -0.0112  0.7490  0.5680
 5729TIP3    H238679   5.867   4.629   5.761  0.0245 -1.3249  0.2349
 5730TIP3   OH238680   4.535   3.232   3.377 -0.3770  0.2080 -0.1844
 5730TIP3    H138681   4.479   3.244   3.454 -0.2511 -0.6854  0.0491
 5730TIP3    H238682   4.609   3.290   3.393  0.3397 -0.9962  1.0510
 5731TIP3   OH238683   3.310   6.111  13.011  0.6725  0.0518 -0.0623
 5731TIP3    H138684   3.405   6.113  13.021  0.5614  1.5872  1.1079
 5731TIP3    H238685   3.289   6.195  12.969 -0.2580  0.4190  1.0715
 5732TIP3   OH238686   3.734   5.046  12.358  0.9684  0.1259 -0.1017
 5732TIP3    H138687   3.658   5.064  12.302  0.7603 -3.0856 -1.0721
 5732TIP3    H238688   3.800   5.110  12.331 -0.6999  1.6990 -0.6376
 5733TIP3   OH238689   0.110   1.230  13.214  0.3043  0.2920 -0.6796
 5733TIP3    H138690   0.133   1.144  13.249  1.1634  1.3988  1.6273
 5733TIP3    H238691   0.126   1.222  13.120 -2.0174 -2.7911 -0.9675
 5734TIP3   OH238692   3.523   6.429  16.027 -0.3048  0.1591  0.0072
 5734TIP3    H138693   3.461   6.480  15.976  0.0281  0.4834 -0.0734
 5734TIP3    H238694   3.609   6.460  15.999 -0.0206 -1.8696 -1.5691
 5735TIP3   OH238695   4.437   2.161  13.184  0.6037 -0.7068 -0.9908
 5735TIP3    H138696   4.432   2.083  13.129  0.1047 -1.6904  0.4015
 5735TIP3    H238697   4.528   2.161  13.216  0.6137 -0.6892 -1.0192
 5736TIP3   OH238698   5.023   4.452  14.016  0.0477  0.9087  0.3390
 5736TIP3    H138699   4.992   4.450  13.926  1.3390  1.6344 -0.1457
 5736TIP3    H238700   4.966   4.515  14.060 -0.9209  0.1653  0.1843
 5737TIP3   OH238701   4.541   2.131   6.232 -0.0087 -0.5509 -0.1127
 5737TIP3    H138702   4.494   2.062   6.279 -0.3919  1.7274  3.2228
 5737TIP3    H238703   4.632   2.122   6.260  0.0889 -0.2234 -0.3167
 5738TIP3   OH238704   2.910   2.832  15.410 -0.6520  0.2617 -0.1586
 5738TIP3    H138705   2.824   2.872  15.422 -1.2401 -0.9600 -0.0783
 5738TIP3    H238706   2.937   2.857  15.322 -0.4154  1.8451  0.3329
 5739TIP3   OH238707   0.763   4.299   1.741 -0.0360 -0.0592  0.0009
 5739TIP3    H138708   0.816   4.232   1.784 -1.6956 -0.1701  2.0342
 5739TIP3    H238709   0.823   4.341   1.680  2.0094 -1.0667  1.2010
 5740TIP3   OH238710   5.716   6.429  13.720  0.2537 -0.1258  0.0271
 5740TIP3    H138711   5.694   6.434  13.627  0.2571  0.4652  0.0562
 5740TIP3    H238712   5.753   6.514  13.741 -3.5080  1.3344  1.5378
 5741TIP3   OH238713   1.767   2.642  15.808  0.4932 -0.3610 -0.6832
 5741TIP3    H138714   1.771   2.679  15.720  2.6595  0.9176 -0.1105
 5741TIP3    H238715   1.849   2.593  15.817  2.0333  2.3627  1.7329
 5742TIP3   OH238716   5.699   0.595   4.895 -0.0285  0.2305  0.3261
 5742TIP3    H138717   5.687   0.594   4.990  0.8768  2.1016  0.5091
 5742TIP3    H238718   5.625   0.646   4.862  0.2755  0.5707  0.1616
 5743TIP3   OH238719   3.308   6.731  17.240  0.2292 -0.1774 -0.5331
 5743TIP3    H138720   3.310   6.822  17.270 -2.8239  0.1706 -1.0302
 5743TIP3    H238721   3.325   6.736  17.147  0.1098 -0.1056 -0.5519
 5744TIP3   OH238722   6.228   3.902  13.944 -0.2825  0.0484  0.3705
 5744TIP3    H138723   6.159   3.842  13.914  1.4696 -1.0124 -1.8279
 5744TIP3    H238724   6.193   3.989  13.927 -1.4842 -0.4276  0.2867
 5745TIP3   OH238725   2.763   5.568   0.346 -0.7203  0.5440  0.6316
 5745TIP3    H138726   2.767   5.655   0.384 -0.5493  0.9754 -0.3658
 5745TIP3    H238727   2.686   5.528   0.386 -2.5160  2.1771 -1.0084
 5746TIP3   OH238728   2.702   4.882  12.818 -0.0043  0.0140 -0.0438
 5746TIP3    H138729   2.774   4.869  12.756 -0.7235 -0.5057 -0.7793
 5746TIP3    H238730   2.745   4.916  12.897  1.0449 -0.2703 -0.4760
 5747TIP3   OH238731   4.523   6.566   1.049 -0.6802  0.0360 -0.2758
 5747TIP3    H138732   4.468   6.523   1.114  1.0764 -1.3863  0.3374
 5747TIP3    H238733   4.612   6.552   1.080  0.1352  0.7349 -2.1617
 5748TIP3   OH238734   3.739   0.604  12.610  0.3043 -0.0947  0.0838
 5748TIP3    H138735   3.662   0.630  12.660 -0.5749 -1.4740 -0.4804
 5748TIP3    H238736   3.734   0.508  12.606  1.8320 -0.1840 -0.3144
 5749TIP3   OH238737   2.123   6.211   0.682 -0.1835 -0.0766  0.1609
 5749TIP3    H138738   2.134   6.306   0.687  0.5229 -0.1185 -0.3385
 5749TIP3    H238739   2.199   6.176   0.727  0.4888 -0.3919 -1.1595
 5750TIP3   OH238740   6.279   0.984   0.322  0.1291 -0.8488 -0.0550
 5750TIP3    H138741   6.204   1.019   0.370 -0.2898  2.1159 -2.5768
 5750TIP3    H238742   6.242   0.946   0.243  1.1918  0.2060 -1.1007
 5751TIP3   OH238743   2.438   3.771  12.596 -0.0968  1.1609  0.4445
 5751TIP3    H138744   2.460   3.751  12.687  1.2744  0.8827  0.0734
 5751TIP3    H238745   2.517   3.813  12.561  0.0492 -0.2974 -1.0967
 5752TIP3   OH238746   1.674   5.143   3.933  0.4078  0.4878 -0.1449
 5752TIP3    H138747   1.734   5.143   4.008 -1.6185  1.2473  1.5521
 5752TIP3    H238748   1.706   5.072   3.877  1.3173 -0.8960  2.0000
 5753TIP3   OH238749   6.077   3.093  14.077  0.8048  0.1450 -0.5913
 5753TIP3    H138750   6.032   3.014  14.105  0.4238 -0.3043 -2.3460
 5753TIP3    H238751   6.158   3.094  14.128  0.0505 -0.4542  0.6724
 5754TIP3   OH238752   0.845   3.984  13.201 -0.3164 -0.4713  0.1119
 5754TIP3    H138753   0.912   3.976  13.269 -0.4948 -1.4415  0.1836
 5754TIP3    H238754   0.888   3.956  13.120 -0.6634 -1.2458  0.1839
 5755TIP3   OH238755   2.535   5.175   4.480  0.1555 -0.7158  0.0029
 5755TIP3    H138756   2.530   5.087   4.443 -0.1897 -1.2395  1.2366
 5755TIP3    H238757   2.604   5.171   4.546 -2.3151 -1.2207  2.8264
 5756TIP3   OH238758   4.215   5.001  10.921  0.4804  0.9711  0.3456
 5756TIP3    H138759   4.290   4.947  10.947 -0.1725  0.1795  0.6039
 5756TIP3    H238760   4.188   4.965  10.836  0.5808  1.4650  0.0974
 5757TIP3   OH238761   5.438   2.521  14.943 -0.3010  0.8261  0.3056
 5757TIP3    H138762   5.357   2.471  14.932 -1.2406  2.3229  0.1889
 5757TIP3    H238763   5.499   2.459  14.984 -1.4852 -0.3276  0.3895
 5758TIP3   OH238764   5.876   3.919  12.221  0.4051  0.0095  0.7443
 5758TIP3    H138765   5.829   3.989  12.177  0.8504 -0.1232  0.0198
 5758TIP3    H238766   5.920   3.961  12.294 -0.5021  0.2038  1.1879
 5759TIP3   OH238767   0.041   2.921  14.878 -0.4372 -0.9912  0.1025
 5759TIP3    H138768   0.024   2.844  14.823 -0.2439 -0.8653 -0.1348
 5759TIP3    H238769  -0.042   2.939  14.921 -0.6597 -0.9325 -0.3479
 5760TIP3   OH238770   4.377   5.915  17.155 -0.1629 -0.2629 -0.2187
 5760TIP3    H138771   4.384   5.823  17.179  1.4824 -0.9256 -2.8328
 5760TIP3    H238772   4.329   5.916  17.072  0.5675  1.1220 -0.6696
 5761TIP3   OH238773   2.688   3.484  12.005  0.1570 -0.3058 -0.6710
 5761TIP3    H138774   2.661   3.444  12.087  0.7110  1.0818  0.2120
 5761TIP3    H238775   2.607   3.523  11.969  0.1831  0.3483 -0.0411
 5762TIP3   OH238776   3.892   4.026   2.181  0.4186 -0.4152  0.8314
 5762TIP3    H138777   3.801   3.999   2.184  0.5232 -0.9692 -0.3554
 5762TIP3    H238778   3.895   4.096   2.115  0.6865  0.2802  1.5730
 5763TIP3   OH238779   5.492   1.228   4.436  0.9897  0.4619  0.3610
 5763TIP3    H138780   5.457   1.237   4.347  1.0735 -0.1466  0.2648
 5763TIP3    H238781   5.563   1.165   4.427 -0.1510 -1.0106  1.1581
 5764TIP3   OH238782   2.895   0.648  11.844  0.0960 -0.6203 -0.1396
 5764TIP3    H138783   2.881   0.677  11.934  1.4983 -0.1654 -0.0379
 5764TIP3    H238784   2.821   0.684  11.795  1.4835  2.8863  0.0582
 5765TIP3   OH238785   3.521   5.935   3.759 -0.4089  0.5436  0.6789
 5765TIP3    H138786   3.528   6.028   3.736 -1.1800  1.2172  2.9053
 5765TIP3    H238787   3.441   5.906   3.716  0.2681  0.6320 -0.7239
 5766TIP3   OH238788   4.276   4.529  11.916  0.1328  0.4300 -0.4848
 5766TIP3    H138789   4.369   4.534  11.936  0.1400 -0.1240 -0.3501
 5766TIP3    H238790   4.272   4.499  11.825  0.0857 -0.3660 -0.2251
 5767TIP3   OH238791   0.226   1.007  13.322  0.2866  0.1616 -0.4594
 5767TIP3    H138792   0.279   0.929  13.305  0.6440 -0.4603  2.7708
 5767TIP3    H238793   0.290   1.078  13.332  0.1756  0.3024 -0.7443
 5768TIP3   OH238794   0.392   5.201   0.614  0.3586 -0.4387  0.1659
 5768TIP3    H138795   0.420   5.109   0.609  0.0571 -0.5125 -0.2241
 5768TIP3    H238796   0.300   5.196   0.639  0.9154 -0.1681  2.4955
 5769TIP3   OH238797   0.571   1.776  17.244  0.8003  0.4358 -0.4266
 5769TIP3    H138798   0.588   1.833  17.170  1.6107 -1.5921 -1.9047
 5769TIP3    H238799   0.653   1.775  17.293  0.5958  0.9707 -0.0640
 5770TIP3   OH238800   0.470   4.923   4.371  0.0982 -0.0605  0.2827
 5770TIP3    H138801   0.476   4.997   4.310 -0.3011  0.2168  0.5715
 5770TIP3    H238802   0.478   4.846   4.316 -1.8897  0.1372 -0.3571
 5771TIP3   OH238803   2.345   2.918  10.918 -0.1436 -0.8925 -0.3818
 5771TIP3    H138804   2.402   2.915  10.841 -0.8032  1.0195 -1.0018
 5771TIP3    H238805   2.256   2.911  10.883 -0.5613  1.6496 -0.0681
 5772TIP3   OH238806   5.813   5.570   3.420 -0.2580  0.3870  0.3769
 5772TIP3    H138807   5.893   5.558   3.369  0.2566 -0.1551  1.2877
 5772TIP3    H238808   5.837   5.635   3.486 -1.1991  1.8080 -0.6304
 5773TIP3   OH238809   5.012   2.874   1.953  0.7956 -0.6078  0.0533
 5773TIP3    H138810   4.991   2.934   2.024  2.3051  0.1034 -0.0678
 5773TIP3    H238811   5.101   2.842   1.973  1.4680 -0.0192 -1.7280
 5774TIP3   OH238812   1.992   0.210   2.294 -0.3793 -0.0018  0.3860
 5774TIP3    H138813   2.047   0.147   2.342 -0.0455  0.7703  1.0253
 5774TIP3    H238814   1.905   0.199   2.332 -1.0391 -2.1296 -1.4714
 5775TIP3   OH238815   5.964   1.574   3.731 -0.5281  0.2289  0.4382
 5775TIP3    H138816   6.004   1.549   3.648 -0.9842 -1.9040  0.7980
 5775TIP3    H238817   5.870   1.570   3.714 -0.6524 -1.4476  1.3428
 5776TIP3   OH238818   4.967   3.014   3.471 -1.0310  0.2284 -0.8449
 5776TIP3    H138819   4.966   3.108   3.487 -0.5505  0.3871 -1.6953
 5776TIP3    H238820   4.918   2.977   3.545 -2.0676  1.2100 -1.0111
 5777TIP3   OH238821   0.597   0.134   4.425 -0.6800 -0.0337 -0.6125
 5777TIP3    H138822   0.544   0.205   4.389  0.5126  0.6968 -0.9919
 5777TIP3    H238823   0.607   0.073   4.352 -0.1435  0.3365 -0.8516
 5778TIP3   OH238824   0.466   0.507  12.073 -0.0117 -0.4631 -0.5914
 5778TIP3    H138825   0.484   0.487  11.981 -1.0767 -0.4657 -0.8114
 5778TIP3    H238826   0.448   0.601  12.074  0.9248 -0.2716 -0.2167
 5779TIP3   OH238827   3.323   2.132   5.925 -0.2994 -0.1303 -0.5518
 5779TIP3    H138828   3.406   2.136   5.972  0.1905 -0.0981 -1.3984
 5779TIP3    H238829   3.337   2.185   5.847 -1.6201  1.1334  0.0315
 5780TIP3   OH238830   0.860   5.811  13.498 -0.7738  0.2417  0.3249
 5780TIP3    H138831   0.903   5.771  13.573 -0.8645 -0.3389  0.0775
 5780TIP3    H238832   0.773   5.770  13.496 -1.2832  1.2780  0.7213
 5781TIP3   OH238833   1.398   0.079  16.330 -0.0452 -0.6771  0.2449
 5781TIP3    H138834   1.447   0.144  16.281  3.5211 -2.1830  1.4481
 5781TIP3    H238835   1.327   0.128  16.371  0.1619  1.6332 -1.9048
 5782TIP3   OH238836   2.761   4.751  14.544  0.4041  0.1194  0.4571
 5782TIP3    H138837   2.709   4.802  14.482  0.4421 -0.2576  0.1168
 5782TIP3    H238838   2.845   4.739  14.501 -0.0099 -1.2960 -0.0074
 5783TIP3   OH238839   5.638   0.339  11.217  1.4112  0.2010  0.0171
 5783TIP3    H138840   5.631   0.271  11.150  3.2343  0.1064 -0.1045
 5783TIP3    H238841   5.623   0.421  11.170 -1.7503 -0.0714  0.3223
 5784TIP3   OH238842   6.214   4.547  14.951 -0.2397 -0.4406 -0.3418
 5784TIP3    H138843   6.244   4.632  14.917 -0.7988 -0.2335 -0.3262
 5784TIP3    H238844   6.198   4.495  14.873 -2.9182  0.5037 -0.5205
 5785TIP3   OH238845   5.070   2.529   2.490  0.4650  0.4206  0.1384
 5785TIP3    H138846   5.083   2.438   2.466  1.4672  0.4666  0.4364
 5785TIP3    H238847   5.126   2.578   2.430  0.5690  0.7684  0.5133
 5786TIP3   OH238848   0.637   0.530  12.391 -0.5591  0.0368  0.3211
 5786TIP3    H138849   0.620   0.615  12.433 -0.5090 -0.1515  0.7317
 5786TIP3    H238850   0.729   0.511  12.412 -0.1075  0.5856 -1.0510
 5787TIP3   OH238851   1.054   3.984   3.738 -0.3851 -0.2565 -0.1017
 5787TIP3    H138852   1.041   4.078   3.750 -2.3934 -0.6733  1.6338
 5787TIP3    H238853   1.102   3.957   3.816  3.6305 -0.2064 -2.3034
 5788TIP3   OH238854   6.482   1.147   0.263 -0.4569  0.1005 -0.4520
 5788TIP3    H138855   6.504   1.137   0.171 -0.0199 -0.2788 -0.3079
 5788TIP3    H238856   6.400   1.099   0.273 -0.9441  0.8358 -0.8136
 5789TIP3   OH238857   5.914   0.361   5.330 -0.0768 -0.1852  0.6588
 5789TIP3    H138858   5.822   0.387   5.341 -0.5317 -1.7328  0.8106
 5789TIP3    H238859   5.962   0.443   5.331 -1.3402  0.5950  1.8397
 5790TIP3   OH238860   5.632   6.737  11.633  0.1614  0.1076 -0.1717
 5790TIP3    H138861   5.632   6.832  11.623  1.6014 -0.0083 -1.6096
 5790TIP3    H238862   5.557   6.707  11.582 -0.7233  0.4904  0.8650
 5791TIP3   OH238863   5.840   0.945   0.162 -0.1277 -0.3535 -0.4006
 5791TIP3    H138864   5.859   0.957   0.255  2.0419  0.5332 -0.8948
 5791TIP3    H238865   5.916   0.982   0.117 -1.5535  0.1305 -2.5712
 5792TIP3   OH238866   4.100   0.728   3.451 -0.0060  0.0497  0.1953
 5792TIP3    H138867   4.025   0.731   3.511  0.1251  0.3349  0.3439
 5792TIP3    H238868   4.080   0.794   3.384 -0.2759 -0.4469 -0.2243
 5793TIP3   OH238869   1.652   4.357  16.153  0.6186 -0.3058 -0.1812
 5793TIP3    H138870   1.615   4.269  16.153 -0.2937  0.0682 -0.3656
 5793TIP3    H238871   1.744   4.344  16.176 -0.0798 -1.0676  2.6713
 5794TIP3   OH238872   0.891   2.549  14.682  0.7332 -0.1347  0.1927
 5794TIP3    H138873   0.911   2.548  14.589 -1.3153  0.4159 -0.2853
 5794TIP3    H238874   0.909   2.459  14.711  0.1915 -0.6551 -1.0176
 5795TIP3   OH238875   3.460   0.842  15.301 -0.3545 -0.2793 -0.3354
 5795TIP3    H138876   3.516   0.795  15.238  0.3409 -1.4830  1.1211
 5795TIP3    H238877   3.521   0.879  15.364 -1.0149  1.3159 -0.5954
 5796TIP3   OH238878   6.403   1.147   1.797  0.5763 -0.3601 -0.3496
 5796TIP3    H138879   6.330   1.085   1.801  0.3492 -0.0590  0.2237
 5796TIP3    H238880   6.396   1.198   1.878  2.2502 -1.2525  0.3906
 5797TIP3   OH238881   2.361   1.389  13.382  0.0036  0.5118 -0.3206
 5797TIP3    H138882   2.274   1.424  13.366 -1.2432 -1.7553  1.0859
 5797TIP3    H238883   2.409   1.407  13.301 -1.7332  1.7902 -1.1305
 5798TIP3   OH238884   3.164   5.086   5.712 -0.3393  0.3949 -0.5322
 5798TIP3    H138885   3.111   5.008   5.723 -2.6937  2.0454  0.7080
 5798TIP3    H238886   3.254   5.057   5.729 -1.3746 -1.5962  2.2811
 5799TIP3   OH238887   0.594   1.361   4.020 -0.2482 -0.7506 -0.2126
 5799TIP3    H138888   0.662   1.351   3.952  0.7509 -1.8591  0.9057
 5799TIP3    H238889   0.591   1.455   4.036  1.6800 -0.7225  0.3007
 5800TIP3   OH238890   2.992   1.575  11.784  0.7814  0.7321  0.0841
 5800TIP3    H138891   2.903   1.553  11.813  0.7773  0.4290 -0.1481
 5800TIP3    H238892   2.994   1.670  11.780  0.1241  0.7095 -0.9801
 5801TIP3   OH238893   0.544   3.936   3.600 -0.7080  0.1485  0.0161
 5801TIP3    H138894   0.482   3.864   3.591 -1.1243  0.5902 -0.7635
 5801TIP3    H238895   0.533   3.988   3.521 -0.1006  0.8320  0.3595
 5802TIP3   OH238896   5.919   2.333   2.858 -0.6401  0.2585 -0.5403
 5802TIP3    H138897   6.013   2.347   2.869 -0.0668 -1.0990 -2.9216
 5802TIP3    H238898   5.881   2.420   2.867  0.4773  0.5392  2.8105
 5803TIP3   OH238899   5.040   3.538   5.271 -0.6144  0.6527  0.1983
 5803TIP3    H138900   4.958   3.586   5.263 -1.2773 -0.2950  1.1267
 5803TIP3    H238901   5.051   3.523   5.365 -0.8940 -1.7478 -0.0851
 5804TIP3   OH238902   2.405   5.766  12.754 -0.5872  0.0617 -0.2175
 5804TIP3    H138903   2.352   5.813  12.689 -1.0389  0.4196  0.3957
 5804TIP3    H238904   2.494   5.767  12.718 -0.5551  1.5276 -0.1696
 5805TIP3   OH238905   4.028   3.085  12.974  0.6490  0.2216  0.1497
 5805TIP3    H138906   4.014   3.133  13.056  0.4062  0.4674 -0.0316
 5805TIP3    H238907   4.122   3.092  12.957  1.1743 -1.9180  1.6787
 5806TIP3   OH238908   3.532   5.566  16.634 -0.3034 -0.0909  0.3154
 5806TIP3    H138909   3.451   5.601  16.671 -0.3127  1.6796 -1.2522
 5806TIP3    H238910   3.503   5.495  16.576 -0.6477 -0.0340  0.4119
 5807TIP3   OH238911   0.369   2.899  13.459 -0.2288 -0.0440 -0.0654
 5807TIP3    H138912   0.438   2.927  13.398  0.2835 -1.4643 -0.1669
 5807TIP3    H238913   0.379   2.958  13.534  0.3092  0.5521 -0.5852
 5808TIP3   OH238914   0.879   3.920   4.708  0.2371 -0.1936 -0.0843
 5808TIP3    H138915   0.889   3.825   4.705  1.5460 -0.0520 -0.7034
 5808TIP3    H238916   0.785   3.934   4.699  0.0998 -1.4061 -0.7571
 5809TIP3   OH238917   0.090   6.029   0.509 -0.2377 -0.5011 -0.7024
 5809TIP3    H138918   0.005   6.067   0.531  0.6178 -0.3250  3.0097
 5809TIP3    H238919   0.074   5.935   0.502 -0.7828 -0.4363 -0.3556
 5810TIP3   OH238920   5.551   5.106  15.198 -0.2907 -0.3436  0.1621
 5810TIP3    H138921   5.518   5.195  15.205 -2.3120 -0.9546 -0.7393
 5810TIP3    H238922   5.520   5.062  15.277 -0.2078 -0.4898  0.1148
 5811TIP3   OH238923   0.193   3.876  13.640  0.0498 -0.5856 -0.2775
 5811TIP3    H138924   0.203   3.938  13.713  0.6956  0.3451 -1.1296
 5811TIP3    H238925   0.110   3.831  13.658 -0.6251  0.7852  0.1909
 5812TIP3   OH238926   5.900   5.251  14.249  0.2188  0.3473  0.3161
 5812TIP3    H138927   5.956   5.250  14.327  1.4513  1.1262 -0.5243
 5812TIP3    H238928   5.811   5.245  14.284  0.6368  2.1603  1.8900
 5813TIP3   OH238929   3.812   1.543  12.086 -0.0606 -0.2765 -0.4755
 5813TIP3    H138930   3.853   1.573  12.167 -0.4390 -0.6078 -0.1594
 5813TIP3    H238931   3.852   1.598  12.018 -1.2610  1.4633  0.1683
 5814TIP3   OH238932   3.176   0.924  13.702 -0.4307 -0.5419  0.0117
 5814TIP3    H138933   3.186   0.992  13.769  0.6587 -0.2137 -0.4693
 5814TIP3    H238934   3.260   0.879  13.701 -1.3538 -2.3521  0.7888
 5815TIP3   OH238935   2.629   6.246   4.622 -0.3342 -0.4055 -1.1591
 5815TIP3    H138936   2.575   6.182   4.576 -0.3396 -1.1549 -0.1481
 5815TIP3    H238937   2.572   6.281   4.690  0.7767 -2.2147  0.8258
 5816TIP3   OH238938   2.532   3.732  14.087  0.5151 -0.4718  0.7679
 5816TIP3    H138939   2.478   3.687  14.021  1.0104 -1.4734  1.0318
 5816TIP3    H238940   2.566   3.809  14.041 -0.1057 -0.5104  0.2152
 5817TIP3   OH238941   6.010   3.713  14.019 -0.8105  1.0703  0.0670
 5817TIP3    H138942   5.934   3.735  13.965 -0.5244  0.1528 -0.7275
 5817TIP3    H238943   6.020   3.619  14.009 -0.4568  0.9497  1.3565
 5818TIP3   OH238944   4.622   1.899   2.712 -0.1398 -0.1692  0.0892
 5818TIP3    H138945   4.704   1.894   2.761 -0.0675 -0.6534 -0.0779
 5818TIP3    H238946   4.624   1.986   2.670  0.7279 -0.5397 -0.6751
 5819TIP3   OH238947   3.174   2.407  13.961 -0.3133 -0.3824  0.4268
 5819TIP3    H138948   3.250   2.433  14.013 -0.2576  0.1856  0.0754
 5819TIP3    H238949   3.209   2.390  13.874 -0.6284  0.2023  0.1777
 5820TIP3   OH238950   6.596   3.792  16.049  0.3214  0.1845 -0.2813
 5820TIP3    H138951   6.543   3.713  16.041 -0.2846  0.6375 -0.8352
 5820TIP3    H238952   6.674   3.775  15.996  1.2815 -0.9034  1.3841
 5821TIP3   OH238953   0.118   5.783   0.960  0.7162  0.1189  0.1578
 5821TIP3    H138954   0.066   5.805   0.883  2.1121  0.3396 -0.7571
 5821TIP3    H238955   0.159   5.866   0.986  2.6383 -0.4763 -0.7435
 5822TIP3   OH238956   5.589   0.522  16.806  0.9874 -0.6404 -0.0501
 5822TIP3    H138957   5.514   0.536  16.748 -1.0496 -1.0777  2.3152
 5822TIP3    H238958   5.611   0.430  16.794  0.2823 -0.8443  0.1438
 5823TIP3   OH238959   3.490   0.232  13.822  0.2682  0.2436 -0.5138
 5823TIP3    H138960   3.455   0.257  13.737 -0.1268  1.3537 -0.0429
 5823TIP3    H238961   3.413   0.225  13.879  0.6048  0.4673 -0.0199
 5824TIP3   OH238962   6.121   1.613   0.083 -0.7291  0.0072  0.7902
 5824TIP3    H138963   6.163   1.697   0.069 -0.1595 -0.1285  1.6194
 5824TIP3    H238964   6.069   1.599   0.004 -0.0252  0.6540  0.1957
 5825TIP3   OH238965   4.162   5.025   3.938 -0.1068 -0.0209 -0.2451
 5825TIP3    H138966   4.207   4.944   3.963 -0.6725 -0.3436 -0.2723
 5825TIP3    H238967   4.191   5.089   4.003 -0.5171 -0.5215  0.4453
 5826TIP3   OH238968   3.467   0.387   4.813 -0.2136 -0.2975 -0.1913
 5826TIP3    H138969   3.373   0.369   4.808 -0.1854 -0.3393 -0.5957
 5826TIP3    H238970   3.474   0.482   4.804 -0.1595 -0.3769 -1.1006
 5827TIP3   OH238971   3.383   0.808  11.510 -0.8940  0.1886  0.1828
 5827TIP3    H138972   3.419   0.779  11.594 -1.8982 -0.5972  0.3583
 5827TIP3    H238973   3.440   0.880  11.484  1.6513 -1.8203 -0.2213
 5828TIP3   OH238974   1.281   2.850  13.808  0.1470  0.2703 -0.1517
 5828TIP3    H138975   1.245   2.918  13.866 -1.7584  0.8125 -1.8341
 5828TIP3    H238976   1.332   2.898  13.743 -1.9586  0.3360 -1.9019
 5829TIP3   OH238977   1.169   4.602  13.260  0.3083 -0.4769 -0.1009
 5829TIP3    H138978   1.188   4.692  13.232 -2.1464  0.8460  1.9960
 5829TIP3    H238979   1.197   4.599  13.351 -1.0666 -1.2959  0.3224
 5830TIP3   OH238980   1.966   3.867   2.674 -0.3176 -0.0718  0.1947
 5830TIP3    H138981   1.901   3.807   2.711  0.9856 -1.3797  0.4297
 5830TIP3    H238982   1.981   3.931   2.744 -0.4726 -0.4647  0.5965
 5831TIP3   OH238983   2.662   6.144   3.241  0.4837  0.5952  0.5265
 5831TIP3    H138984   2.595   6.193   3.192 -1.7265 -2.4342  0.2051
 5831TIP3    H238985   2.666   6.187   3.326 -0.8313  1.7302  0.0527
 5832TIP3   OH238986   3.804   3.944   4.752  0.0488  0.2480 -0.6072
 5832TIP3    H138987   3.779   3.885   4.681 -0.4736 -0.3362  0.0519
 5832TIP3    H238988   3.722   3.976   4.788  0.3249  1.6562 -1.1579
 5833TIP3   OH238989   6.120   3.896   2.055 -0.5767  0.3547  0.4039
 5833TIP3    H138990   6.113   3.806   2.021 -2.8922  0.7703 -0.3794
 5833TIP3    H238991   6.214   3.911   2.062 -0.1163 -2.4095  1.3501
 5834TIP3   OH238992   4.228   5.201   1.073  0.0863  0.4601 -0.1867
 5834TIP3    H138993   4.197   5.281   1.031 -0.3180  1.5448  2.0547
 5834TIP3    H238994   4.158   5.176   1.133 -0.7890 -2.8787 -2.3302
 5835TIP3   OH238995   4.612   1.254  15.142  0.7200  0.1628 -0.1309
 5835TIP3    H138996   4.593   1.165  15.173 -0.9950  0.3720 -0.4981
 5835TIP3    H238997   4.527   1.297  15.139  1.6390  2.2245  1.1923
 5836TIP3   OH238998   3.894   2.672   2.169  0.5686 -0.2623 -0.2699
 5836TIP3    H138999   3.954   2.719   2.227 -0.1586 -0.4274  0.6421
 5836TIP3    H239000   3.935   2.587   2.156  0.8417 -0.1473 -0.1826
 5837TIP3   OH239001   1.428   4.968   4.028 -0.1668 -0.0829 -0.4899
 5837TIP3    H139002   1.382   5.023   4.092  0.6140 -0.3395  0.3102
 5837TIP3    H239003   1.479   5.029   3.975 -1.8054  0.2667 -1.7511
 5838TIP3   OH239004   2.124   0.854  16.946  0.0708  0.0705  0.4196
 5838TIP3    H139005   2.118   0.921  16.879 -1.1347 -1.1465 -0.7645
 5838TIP3    H239006   2.191   0.886  17.007  0.2588  1.8199 -0.6428
 5839TIP3   OH239007   4.381   2.601  10.686  0.1111 -0.0732 -0.3380
 5839TIP3    H139008   4.288   2.586  10.701 -0.1070  0.6735 -0.8750
 5839TIP3    H239009   4.392   2.595  10.591  0.7830 -1.0291 -0.2231
 5840TIP3   OH239010   2.930   1.395  13.910 -0.6385 -0.1848  0.1625
 5840TIP3    H139011   2.874   1.317  13.907 -0.8591 -0.0770  1.0839
 5840TIP3    H239012   3.004   1.374  13.853 -1.2536 -0.6182 -0.4935
 5841TIP3   OH239013   6.532   0.411   1.788 -0.1951  0.0336  0.4449
 5841TIP3    H139014   6.513   0.354   1.863 -1.5864 -0.5475 -0.2931
 5841TIP3    H239015   6.506   0.359   1.712 -2.0804  1.8131 -0.2391
 5842TIP3   OH239016   4.870   6.434   3.105 -0.1337  0.6254  0.2429
 5842TIP3    H139017   4.784   6.460   3.138 -1.8611 -0.2035 -3.1286
 5842TIP3    H239018   4.857   6.343   3.076  2.1679  0.1855  0.4457
 5843TIP3   OH239019   1.105   2.797  11.581 -0.3878 -0.1492 -0.2487
 5843TIP3    H139020   1.071   2.709  11.571 -1.5313  0.0869  1.2734
 5843TIP3    H239021   1.043   2.852  11.532 -0.2029 -0.0780 -0.4056
 5844TIP3   OH239022   1.532   1.579  13.073 -0.0645 -0.1925  0.2359
 5844TIP3    H139023   1.608   1.521  13.067  0.4005  0.3630  0.6113
 5844TIP3    H239024   1.539   1.619  13.160 -0.8454 -0.2008  0.3157
 5845TIP3   OH239025   0.994   5.899  15.555 -0.2155  0.5761  0.3433
 5845TIP3    H139026   0.985   5.931  15.465  0.9681 -0.4474 -0.1808
 5845TIP3    H239027   1.027   5.974  15.604 -1.9684  1.4846  0.2023
 5846TIP3   OH239028   0.218   2.094   4.732  0.5093 -0.1467  0.1735
 5846TIP3    H139029   0.181   2.150   4.800  0.5175  1.0400 -0.7425
 5846TIP3    H239030   0.166   2.115   4.654 -0.4461 -2.5289  0.1083
 5847TIP3   OH239031   0.913   1.498   6.145  0.1246  0.1761 -0.1271
 5847TIP3    H139032   0.890   1.444   6.221  0.5131 -0.1139 -0.2114
 5847TIP3    H239033   1.005   1.520   6.158 -0.1454  1.2067  0.1308
 5848TIP3   OH239034   1.552   1.035   0.898  0.3410 -0.5958 -0.4426
 5848TIP3    H139035   1.589   1.123   0.910 -2.1377  0.2741  1.9826
 5848TIP3    H239036   1.476   1.049   0.842  0.0282 -1.2134 -0.1733
 5849TIP3   OH239037   3.746   0.307   4.436  0.0065 -0.5807 -0.0366
 5849TIP3    H139038   3.813   0.303   4.368 -0.8274  0.1486 -0.9395
 5849TIP3    H239039   3.697   0.225   4.426  0.9610 -1.2781  0.8597
 5850TIP3   OH239040   5.333   4.892   5.709  0.2098 -0.2490  0.1241
 5850TIP3    H139041   5.299   4.871   5.796  2.9011 -0.0905  1.3140
 5850TIP3    H239042   5.330   4.809   5.662 -1.1337 -0.3726  0.3710
 5851TIP3   OH239043   0.740   3.702  15.549  0.2867  0.3819  0.5441
 5851TIP3    H139044   0.661   3.748  15.580 -1.1083 -0.1393 -2.0252
 5851TIP3    H239045   0.707   3.624  15.505  2.2884 -0.0562 -0.2705
 5852TIP3   OH239046   6.051   3.477   5.446 -0.1065 -0.1741 -0.6673
 5852TIP3    H139047   6.121   3.467   5.381 -1.0995  0.2728 -1.8555
 5852TIP3    H239048   5.995   3.401   5.432 -1.8796  1.3322 -2.3775
 5853TIP3   OH239049   0.842   1.948   6.609 -0.6790 -0.3974  0.0313
 5853TIP3    H139050   0.857   2.035   6.573  0.0778  0.0008  1.2319
 5853TIP3    H239051   0.762   1.957   6.662  0.3986  0.0812  1.6448
 5854TIP3   OH239052   6.789   5.891   5.251 -0.1691  0.1985 -0.2620
 5854TIP3    H139053   6.866   5.852   5.209 -0.1791  1.2372 -1.3026
 5854TIP3    H239054   6.825   5.939   5.326  0.0251 -0.4441  0.0654
 5855TIP3   OH239055   6.233   2.150  14.003 -0.1392  0.0748 -0.0791
 5855TIP3    H139056   6.260   2.240  14.024 -0.6632 -0.4080  3.3391
 5855TIP3    H239057   6.314   2.100  14.000  0.0109  0.2884  0.3381
 5856TIP3   OH239058   2.272   2.397  16.390 -0.4168  0.1350 -0.0291
 5856TIP3    H139059   2.359   2.414  16.354 -0.3707 -0.6367 -0.2974
 5856TIP3    H239060   2.288   2.356  16.475 -0.5142  2.8664  1.4239
 5857TIP3   OH239061   1.807   3.868  14.733  0.1625  0.5661  0.3035
 5857TIP3    H139062   1.879   3.931  14.728 -0.6250  1.5417  1.0092
 5857TIP3    H239063   1.729   3.921  14.745 -0.8765 -0.3955 -1.7087
 5858TIP3   OH239064   2.961   5.874   5.843 -0.8488  0.1129 -0.6831
 5858TIP3    H139065   3.028   5.858   5.909 -1.5678 -0.5018 -0.0852
 5858TIP3    H239066   2.971   5.803   5.780 -0.8177  0.1171 -0.6823
 5859TIP3   OH239067   3.082   2.925   2.417 -0.5287 -0.1058  0.5297
 5859TIP3    H139068   3.136   2.942   2.340 -0.0676  0.8522  1.0554
 5859TIP3    H239069   3.120   2.847   2.456 -0.1966 -0.0623  0.2961
 5860TIP3   OH239070   1.248   0.882   5.755 -0.0304  0.0686  0.1402
 5860TIP3    H139071   1.173   0.839   5.797  0.3832 -2.5667 -1.5505
 5860TIP3    H239072   1.325   0.842   5.798  0.3715 -0.2498 -0.8476
 5861TIP3   OH239073   4.457   5.729   2.217 -0.1216 -0.0477  0.1891
 5861TIP3    H139074   4.476   5.815   2.255 -1.7674  1.3973 -2.0024
 5861TIP3    H239075   4.539   5.681   2.225  1.4976  2.4367 -0.2681
 5862TIP3   OH239076   0.905   6.010  14.648  0.8282 -1.0280 -0.0722
 5862TIP3    H139077   0.945   5.930  14.683  1.1252 -1.1769 -0.7369
 5862TIP3    H239078   0.888   5.989  14.556 -0.4977 -0.8645  0.1169
 5863TIP3   OH239079   1.023   2.024   0.980  0.1164 -0.0177 -0.2466
 5863TIP3    H139080   0.947   2.036   0.922 -1.0467  2.7061  1.6247
 5863TIP3    H239081   1.098   2.045   0.926 -0.7962  0.9124 -1.2029
 5864TIP3   OH239082   3.025   2.571  12.428  0.4444  0.1685  0.3627
 5864TIP3    H139083   3.110   2.612  12.443 -0.1578  1.4526  0.3674
 5864TIP3    H239084   2.982   2.628  12.364  0.8541 -2.2505 -2.2776
 5865TIP3   OH239085   6.112   2.239  16.851  0.5535 -0.1199  0.5073
 5865TIP3    H139086   6.089   2.146  16.842 -0.4185 -0.1027  2.3820
 5865TIP3    H239087   6.166   2.257  16.774  2.1970 -2.6749  0.9196
 5866TIP3   OH239088   1.028   4.979   5.839 -0.2209  0.0150  0.2101
 5866TIP3    H139089   1.024   4.924   5.760 -0.6918 -1.3793  1.1686
 5866TIP3    H239090   0.939   4.976   5.874  0.3790 -0.9036  1.7699
 5867TIP3   OH239091   2.975   5.059   3.714  0.1146  0.7226 -0.1764
 5867TIP3    H139092   3.034   5.038   3.642  0.9537  0.0806  0.6836
 5867TIP3    H239093   2.992   4.992   3.780 -1.6360  0.4846  0.0674
 5868TIP3   OH239094   5.894   6.316  12.077  0.2537  0.8476 -0.2089
 5868TIP3    H139095   5.923   6.388  12.020  0.7222  0.1137 -0.9157
 5868TIP3    H239096   5.955   6.245  12.059  0.6754  0.7216  1.5431
 5869TIP3   OH239097   6.722   2.260  11.987 -0.4157  0.1137  0.5135
 5869TIP3    H139098   6.757   2.308  11.912  1.6058  0.2808  1.5016
 5869TIP3    H239099   6.631   2.290  11.993 -0.0157  1.7251 -0.5672
 5870TIP3   OH239100   5.149   2.134  15.171  0.6086 -1.2204  0.6132
 5870TIP3    H139101   5.134   2.065  15.236 -1.9768  0.0697  1.5496
 5870TIP3    H239102   5.206   2.197  15.215 -1.6468 -0.0264  2.0595
 5871TIP3   OH239103   3.141   6.434   2.427 -0.4730  0.7033  0.2716
 5871TIP3    H139104   3.048   6.453   2.425 -1.0644 -1.7189 -2.6435
 5871TIP3    H239105   3.150   6.365   2.493 -1.4216 -1.3650 -1.6247
 5872TIP3   OH239106   5.576   0.795   5.375  0.0557 -0.1358 -0.1831
 5872TIP3    H139107   5.572   0.888   5.399  2.3031  0.1804 -0.8343
 5872TIP3    H239108   5.619   0.753   5.449 -3.0821 -1.1815  1.2227
 5873TIP3   OH239109   4.425   4.159  11.237 -0.4705 -0.1106 -0.1813
 5873TIP3    H139110   4.409   4.215  11.314 -1.4625  0.1589 -0.5680
 5873TIP3    H239111   4.342   4.159  11.190  0.0187 -0.5722 -1.0693
 5874TIP3   OH239112   2.829   0.485  13.406  0.7365  0.3665 -0.1603
 5874TIP3    H139113   2.867   0.572  13.410  0.0849  0.7409 -1.4707
 5874TIP3    H239114   2.904   0.425  13.409  1.3279  1.0357 -1.0270
 5875TIP3   OH239115   0.284   3.257  14.746  0.3559 -0.1510 -0.3920
 5875TIP3    H139116   0.198   3.283  14.780  0.5129  0.0295 -0.1343
 5875TIP3    H239117   0.278   3.161  14.737 -0.9346  0.1018 -3.2674
 5876TIP3   OH239118   1.911   4.862  11.751  0.6343  0.0205 -0.1798
 5876TIP3    H139119   1.877   4.935  11.802 -0.0647 -0.0515 -0.5278
 5876TIP3    H239120   1.865   4.785  11.787  1.5703 -0.2999  0.3767
 5877TIP3   OH239121   1.864   0.137  13.096  0.0919  0.0328  0.4679
 5877TIP3    H139122   1.887   0.227  13.121 -0.0692  0.0085  0.7058
 5877TIP3    H239123   1.808   0.148  13.019  0.9596  0.0862 -0.1743
 5878TIP3   OH239124   2.975   0.667  15.432 -0.3123  0.3852 -0.0150
 5878TIP3    H139125   2.907   0.652  15.497  0.6029  0.7251  1.0596
 5878TIP3    H239126   3.006   0.756  15.450  1.2470 -0.1974  0.3266
 5879TIP3   OH239127   2.260   1.489   2.300  0.0572  0.1962 -0.5318
 5879TIP3    H139128   2.189   1.429   2.279  0.0848  0.0085 -0.1020
 5879TIP3    H239129   2.217   1.573   2.314  0.1335  0.5560 -2.2518
 5880TIP3   OH239130   2.265   2.890   6.527 -0.5542 -0.1905 -0.1378
 5880TIP3    H139131   2.351   2.848   6.528 -1.1985 -1.5783  0.9862
 5880TIP3    H239132   2.221   2.856   6.605 -3.0710 -1.5896 -2.0072
 5881TIP3   OH239133   5.092   5.488   6.298  0.5022  0.1582 -0.0056
 5881TIP3    H139134   5.069   5.406   6.342 -1.4609  0.6113 -0.1280
 5881TIP3    H239135   5.148   5.461   6.225  0.3441 -1.0143  0.2882
 5882TIP3   OH239136   2.219   4.685  12.748 -0.0395  0.8325 -0.1485
 5882TIP3    H139137   2.149   4.621  12.746  0.3246  0.4385 -0.4295
 5882TIP3    H239138   2.175   4.770  12.750 -0.5162  0.5985 -0.6911
 5883TIP3   OH239139   6.192   1.425  14.336  0.9756  0.1013  0.6035
 5883TIP3    H139140   6.261   1.490  14.324  1.8653 -0.4851  2.1946
 5883TIP3    H239141   6.134   1.463  14.402  1.0785 -0.3647  0.9751
 5884TIP3   OH239142   2.429   2.638  10.539 -0.0701  0.1527 -0.3649
 5884TIP3    H139143   2.337   2.653  10.560  0.1263  0.0051  0.6178
 5884TIP3    H239144   2.475   2.715  10.573  0.3230 -0.3588  0.2985
 5885TIP3   OH239145   5.934   2.980   1.009 -0.5468  0.4377 -0.5963
 5885TIP3    H139146   5.955   2.921   0.937  0.6770  0.0343  0.0448
 5885TIP3    H239147   5.906   2.922   1.080 -1.0169  0.7680 -0.5061
 5886TIP3   OH239148   4.792   5.520  15.882 -0.0613 -0.1968  0.3460
 5886TIP3    H139149   4.805   5.442  15.937 -0.1441 -1.8345 -1.8262
 5886TIP3    H239150   4.879   5.559  15.875  0.5705 -1.7042 -0.7621
 5887TIP3   OH239151   0.634   3.720  16.689  0.3122  0.0348 -0.6758
 5887TIP3    H139152   0.610   3.808  16.660  2.8880  0.6947 -1.0335
 5887TIP3    H239153   0.642   3.670  16.607 -2.9029 -1.1396 -0.4142
 5888TIP3   OH239154   1.850   4.462  16.543 -0.6057  0.0246 -0.0767
 5888TIP3    H139155   1.891   4.548  16.544 -0.8118  0.1767 -1.8340
 5888TIP3    H239156   1.919   4.402  16.570  0.6475  0.3454 -2.3208
 5889TIP3   OH239157   1.816   0.750   4.952 -0.3264 -0.2844 -0.5554
 5889TIP3    H139158   1.788   0.801   5.027  0.4506 -1.6541  0.7193
 5889TIP3    H239159   1.911   0.762   4.948 -0.0589 -1.9093  0.0413
 5890TIP3   OH239160   5.283   6.682   2.893  0.4707  0.3692 -0.0446
 5890TIP3    H139161   5.232   6.606   2.920  0.1202  0.2377 -1.0298
 5890TIP3    H239162   5.238   6.757   2.931  0.6186  0.1138  0.6416
 5891TIP3   OH239163   0.486   3.582  12.238  0.6383 -0.1645 -0.2352
 5891TIP3    H139164   0.567   3.601  12.284  0.3077  1.3875 -0.2433
 5891TIP3    H239165   0.417   3.592  12.303  0.3782 -0.5936 -0.4378
 5892TIP3   OH239166   5.024   2.717   2.282 -0.2786  0.2622  0.2738
 5892TIP3    H139167   4.997   2.657   2.212  0.0392  0.4835 -0.0428
 5892TIP3    H239168   5.118   2.701   2.293 -0.2785  0.4007  0.4808
 5893TIP3   OH239169   0.960   2.715  10.710  0.3548 -0.0270 -0.2682
 5893TIP3    H139170   1.008   2.666  10.644 -2.6477  1.5984 -4.0596
 5893TIP3    H239171   0.999   2.802  10.709 -0.8820  0.5527 -1.4528
 5894TIP3   OH239172   0.047   6.499  16.625 -1.0282 -0.1984 -0.4701
 5894TIP3    H139173   0.136   6.471  16.602 -0.6187 -0.1370  0.9886
 5894TIP3    H239174   0.040   6.588  16.591 -0.3849 -0.0520 -0.2283
 5895TIP3   OH239175   6.109   1.521   3.496  0.6226 -0.7845  0.2474
 5895TIP3    H139176   6.142   1.603   3.459 -0.4742 -0.3829  0.1335
 5895TIP3    H239177   6.059   1.481   3.425 -0.3865 -0.6526  0.8671
 5896TIP3   OH239178   3.846   4.962  16.406 -0.3623 -0.3312 -0.0019
 5896TIP3    H139179   3.933   4.933  16.379 -0.7250 -0.3124 -1.2995
 5896TIP3    H239180   3.833   4.924  16.493  0.4878 -1.2803 -0.2655
 5897TIP3   OH239181   3.949   6.788  12.688  0.0591  0.7753 -0.1713
 5897TIP3    H139182   3.900   6.863  12.722  1.3212  0.8624  1.6074
 5897TIP3    H239183   4.040   6.806  12.711  0.4511 -1.1209 -0.0273
 5898TIP3   OH239184   6.005   4.685   0.142  0.5345  0.2459 -0.1306
 5898TIP3    H139185   6.006   4.596   0.179  0.7281  0.2286 -0.1724
 5898TIP3    H239186   6.038   4.673   0.052 -0.6967  0.1703 -0.5898
 5899TIP3   OH239187   2.269   3.307   5.152 -0.1042 -0.1466  0.3879
 5899TIP3    H139188   2.363   3.293   5.138 -0.3206 -0.3828 -0.9301
 5899TIP3    H239189   2.265   3.381   5.213  0.9396 -0.8997  1.4325
 5900TIP3   OH239190   1.228   2.553   3.082  0.9688  0.5954 -0.2545
 5900TIP3    H139191   1.182   2.479   3.122 -0.0300  0.3573 -1.7365
 5900TIP3    H239192   1.270   2.598   3.155  1.1857 -1.1392  0.7522
 5901TIP3   OH239193   1.774   2.375  12.819 -0.2403  0.4689  0.0726
 5901TIP3    H139194   1.715   2.315  12.773  0.3422  0.6911 -0.9999
 5901TIP3    H239195   1.750   2.366  12.912 -1.6951  0.2780 -0.2943
 5902TIP3   OH239196   3.938   4.242   4.267  0.4770 -0.1993 -0.5166
 5902TIP3    H139197   3.855   4.254   4.312 -0.0889 -1.1258 -1.2514
 5902TIP3    H239198   3.962   4.329   4.235  0.9310  0.4871  1.5646
 5903TIP3   OH239199   5.019   5.974   2.725 -0.3302 -0.6657  0.0391
 5903TIP3    H139200   5.005   5.965   2.630 -0.0931 -1.1255  0.0447
 5903TIP3    H239201   4.993   5.889   2.760 -0.1077 -0.6024  0.3539
 5904TIP3   OH239202   1.860   2.351  15.358  0.4826 -0.6174  0.2132
 5904TIP3    H139203   1.917   2.328  15.431 -0.9412 -1.5409  1.0799
 5904TIP3    H239204   1.808   2.424  15.390  1.2080  0.3094 -0.6219
 5905TIP3   OH239205   2.690   0.398  12.739  0.0388 -0.0481  0.1379
 5905TIP3    H139206   2.716   0.359  12.823 -0.8708 -2.0151 -0.4265
 5905TIP3    H239207   2.676   0.323  12.681 -0.2212  1.2289 -1.5303
 5906TIP3   OH239208   6.207   1.139   2.768  0.1377  0.2227  0.7002
 5906TIP3    H139209   6.212   1.064   2.710  0.7965 -0.0798  1.1328
 5906TIP3    H239210   6.128   1.125   2.821 -1.1048  1.0607 -0.8554
 5907TIP3   OH239211   5.129   2.217   0.896 -0.6662 -0.2255  0.5316
 5907TIP3    H139212   5.207   2.227   0.951 -0.1561 -0.4462 -0.1368
 5907TIP3    H239213   5.133   2.126   0.866 -0.1541  0.2551 -0.9974
 5908TIP3   OH239214   5.102   3.974  12.365 -0.2052 -0.0984 -0.0620
 5908TIP3    H139215   5.172   3.991  12.301 -0.3827 -0.0295 -0.2378
 5908TIP3    H239216   5.044   4.050  12.357  1.0740  1.1884  1.9494
 5909TIP3   OH239217   6.311   1.477   6.030  0.0518 -0.1105 -0.1227
 5909TIP3    H139218   6.371   1.550   6.045 -1.3021  1.6953 -2.8342
 5909TIP3    H239219   6.330   1.416   6.101  4.7223  0.5525 -0.4722
 5910TIP3   OH239220   1.990   2.219   4.096  0.5740 -0.4503  0.5140
 5910TIP3    H139221   1.931   2.206   4.022 -0.0169  0.4950  0.8049
 5910TIP3    H239222   1.998   2.132   4.135 -0.3116 -0.6771  0.2271
 5911TIP3   OH239223   2.902   2.849  11.195 -0.0207 -0.4867  0.6487
 5911TIP3    H139224   2.910   2.838  11.100  1.9983 -1.0688  0.8301
 5911TIP3    H239225   2.953   2.928  11.214  1.0173 -1.3095  1.4068
 5912TIP3   OH239226   0.801   5.707   0.531 -0.1825 -0.3511  0.4345
 5912TIP3    H139227   0.765   5.744   0.612  1.4552 -0.6008  1.3261
 5912TIP3    H239228   0.848   5.780   0.490  0.2487 -0.5921  0.4924
 5913TIP3   OH239229   4.264   1.041  13.918  0.6514 -0.2142  0.1348
 5913TIP3    H139230   4.292   1.060  14.008  0.0452  0.2330  0.2294
 5913TIP3    H239231   4.333   1.078  13.863  0.4464  0.5427  0.3820
 5914TIP3   OH239232   5.043   6.009  15.375 -0.4223 -0.0733  0.2435
 5914TIP3    H139233   4.977   6.076  15.393 -1.6607 -1.4252  0.9316
 5914TIP3    H239234   5.100   6.010  15.451 -0.0459  0.6293 -0.0408
 5915TIP3   OH239235   1.829   0.878  14.675 -0.1040 -0.1966  0.0817
 5915TIP3    H139236   1.877   0.900  14.595 -0.6544 -1.0349 -0.5056
 5915TIP3    H239237   1.896   0.850  14.737  0.4298  1.3489  0.2596
 5916TIP3   OH239238   0.966   3.354   0.200  0.2357  0.1543 -0.1841
 5916TIP3    H139239   0.907   3.356   0.275 -0.2942  2.0440 -0.5883
 5916TIP3    H239240   1.009   3.268   0.204 -1.8206 -0.8878  0.6676
 5917TIP3   OH239241   4.269   0.378  16.951  0.3415 -0.3157  0.0352
 5917TIP3    H139242   4.191   0.379  17.006 -0.7480 -2.9347 -1.3182
 5917TIP3    H239243   4.339   0.347  17.009  0.0105  0.3293  0.7947
 5918TIP3   OH239244   5.623   5.335  16.615  0.0311  0.0149  0.1891
 5918TIP3    H139245   5.621   5.264  16.679  1.8052  1.1544  1.6143
 5918TIP3    H239246   5.655   5.411  16.664 -0.0792  1.3605 -1.6944
 5919TIP3   OH239247   5.073   4.536   0.192 -0.2860  0.7768 -0.0476
 5919TIP3    H139248   5.065   4.571   0.103 -2.0044  0.6200  0.0152
 5919TIP3    H239249   5.005   4.469   0.198  0.1449  0.4180  1.2287
 5920TIP3   OH239250   4.762   0.905   5.475 -0.3442  0.2967 -0.2173
 5920TIP3    H139251   4.695   0.875   5.413  0.3583 -1.3542 -0.2432
 5920TIP3    H239252   4.844   0.902   5.425  0.3466 -1.7592  0.9194
 5921TIP3   OH239253   6.340   4.196  14.314 -0.2082  0.4829 -0.0272
 5921TIP3    H139254   6.317   4.108  14.287 -2.7168  0.7448  1.0070
 5921TIP3    H239255   6.258   4.234  14.346  0.8289  3.1219 -0.2360
 5922TIP3   OH239256   3.952   4.257  13.935 -0.5205  0.1795 -0.1455
 5922TIP3    H139257   3.865   4.218  13.949 -0.4695  0.2321  0.3293
 5922TIP3    H239258   4.011   4.183  13.925 -0.5187  0.1379  0.1713
 5923TIP3   OH239259   4.491   4.719   5.273 -0.3891  0.5889  0.1767
 5923TIP3    H139260   4.414   4.733   5.328 -0.1728  2.0638  0.1268
 5923TIP3    H239261   4.555   4.783   5.303  1.1723 -1.1749  0.7998
 5924TIP3   OH239262   5.969   6.352   4.298  0.3993 -0.1356 -0.1458
 5924TIP3    H139263   5.918   6.412   4.353 -2.2931 -3.8373  1.8744
 5924TIP3    H239264   6.046   6.331   4.351 -0.4968 -1.1289  0.8114
 5925TIP3   OH239265   6.462   4.255   5.285  0.1974 -0.4253 -0.0879
 5925TIP3    H139266   6.433   4.286   5.199  3.5109 -0.0449 -1.2194
 5925TIP3    H239267   6.390   4.202   5.318 -1.5006  0.0892 -2.7277
 5926TIP3   OH239268   2.175   2.295  14.270 -0.5816  0.1364 -0.1391
 5926TIP3    H139269   2.095   2.276  14.220 -0.9314 -0.5211  0.6420
 5926TIP3    H239270   2.216   2.209  14.283 -0.5125  0.2927  0.7213
 5927TIP3   OH239271   0.731   0.919  11.203  0.3036 -0.1094 -0.0108
 5927TIP3    H139272   0.690   0.836  11.226 -0.4755  0.0428 -0.7794
 5927TIP3    H239273   0.765   0.905  11.114 -1.1037  0.8076 -0.7372
 5928TIP3   OH239274   4.500   4.500   1.970  0.1849  0.2987  0.3454
 5928TIP3    H139275   4.441   4.525   2.040 -0.8649  1.9281 -1.0207
 5928TIP3    H239276   4.445   4.455   1.906  0.6973  0.6092 -0.3303
 5929TIP3   OH239277   3.815   5.886  12.449 -0.3755  0.0986  0.1598
 5929TIP3    H139278   3.769   5.820  12.500 -1.6610 -1.9384 -3.3337
 5929TIP3    H239279   3.903   5.851  12.438 -0.1279  0.4916  0.8233
 5930TIP3   OH239280   5.439   6.004   1.445  0.1732  0.0162  0.0310
 5930TIP3    H139281   5.444   6.100   1.446 -1.4968  0.1323 -0.0827
 5930TIP3    H239282   5.524   5.976   1.412  0.8973  1.4324  0.6188
 5931TIP3   OH239283   6.329   1.983  14.407 -0.1440 -0.1251 -0.0514
 5931TIP3    H139284   6.326   1.911  14.343 -0.4115 -0.5465  0.4237
 5931TIP3    H239285   6.331   2.062  14.355  4.4717 -0.4667 -0.8048
 5932TIP3   OH239286   3.747   6.197   1.500 -0.0355 -0.3071 -0.4647
 5932TIP3    H139287   3.667   6.150   1.525 -1.3108  1.9449 -0.0560
 5932TIP3    H239288   3.762   6.172   1.409 -1.3082 -0.6204 -0.6109
 5933TIP3   OH239289   6.756   2.190   2.966  0.0061 -0.0212 -0.5176
 5933TIP3    H139290   6.769   2.284   2.951 -0.1342 -0.1390 -1.4447
 5933TIP3    H239291   6.744   2.153   2.879  1.0504 -1.0630 -0.2538
 5934TIP3   OH239292   4.503   3.616  16.363  0.3712 -0.3155  0.2363
 5934TIP3    H139293   4.590   3.656  16.362 -0.0217  0.5693 -0.1524
 5934TIP3    H239294   4.463   3.648  16.444  0.3346 -0.5682  0.3201
 5935TIP3   OH239295   6.668   0.280   1.357  0.2467  0.4891 -0.0455
 5935TIP3    H139296   6.646   0.269   1.449  1.7405  3.4719  0.7953
 5935TIP3    H239297   6.763   0.292   1.357  0.4294 -0.5262 -2.1561
 5936TIP3   OH239298   5.485   3.093   6.900  0.0114 -0.0590 -0.1966
 5936TIP3    H139299   5.463   3.187   6.903  0.9170  0.1362  1.1412
 5936TIP3    H239300   5.528   3.082   6.815  1.1923  1.0717  0.2092
 5937TIP3   OH239301   0.972   4.461   3.508 -0.2490  0.1740  0.8807
 5937TIP3    H139302   0.969   4.531   3.572  1.8814  0.7294  0.4532
 5937TIP3    H239303   0.880   4.441   3.489 -0.8955  1.9814  1.9134
 5938TIP3   OH239304   3.493   4.394  15.481 -0.3182 -0.2890  0.4613
 5938TIP3    H139305   3.426   4.463  15.477 -1.2476 -1.2436 -1.9543
 5938TIP3    H239306   3.576   4.442  15.484 -0.9996  0.9236  0.8685
 5939TIP3   OH239307   2.015   2.962   5.927 -0.5546  0.6705  0.3530
 5939TIP3    H139308   1.929   2.939   5.961  0.0229 -1.7087  0.3534
 5939TIP3    H239309   2.074   2.896   5.962  0.8138  0.6539 -1.7630
 5940TIP3   OH239310   5.972   5.562  12.324 -0.0793  0.2723  0.0143
 5940TIP3    H139311   5.950   5.590  12.413 -0.9642 -1.1612  0.2798
 5940TIP3    H239312   6.044   5.499  12.336  1.0559  1.4469 -0.4601
 5941TIP3   OH239313   4.896   4.325   2.928  0.1100  0.0074 -0.4224
 5941TIP3    H139314   4.845   4.248   2.953 -2.1394  0.6426 -2.6762
 5941TIP3    H239315   4.854   4.397   2.973  0.4797  0.2577 -0.4753
 5942TIP3   OH239316   6.778   0.817   6.396  0.5215 -0.2799  0.1190
 5942TIP3    H139317   6.741   0.850   6.478 -1.4805 -0.6468 -0.5799
 5942TIP3    H239318   6.843   0.883   6.370  0.7908  0.1054  1.6945
 5943TIP3   OH239319   5.838   1.120  16.946  0.4561 -0.0705  0.1949
 5943TIP3    H139320   5.927   1.147  16.968 -0.2429  1.2867  1.4946
 5943TIP3    H239321   5.814   1.176  16.872 -0.7915  2.7425  2.5398
 5944TIP3   OH239322   6.159   3.840   3.091 -0.2751  0.4939 -1.0233
 5944TIP3    H139323   6.206   3.856   3.008 -0.3484 -0.3125 -1.2302
 5944TIP3    H239324   6.120   3.925   3.112 -1.2196  0.4430 -2.4278
 5945TIP3   OH239325   2.895   6.410   0.883 -0.0592  0.3684  0.3309
 5945TIP3    H139326   2.826   6.348   0.861  2.3404 -1.7968 -1.8851
 5945TIP3    H239327   2.881   6.431   0.975 -2.2228 -1.8707  0.6031
 5946TIP3   OH239328   6.489   1.056  15.127 -0.1755 -0.7458  0.1053
 5946TIP3    H139329   6.544   0.984  15.097 -0.6867 -1.5992  1.1546
 5946TIP3    H239330   6.403   1.017  15.141  0.0562 -0.4887  2.8576
 5947TIP3   OH239331   3.059   6.815  16.500 -0.2040 -0.6898 -0.2338
 5947TIP3    H139332   3.086   6.903  16.473 -2.1403 -0.3083 -1.1444
 5947TIP3    H239333   3.047   6.767  16.418 -3.9218 -0.2274 -0.1648
 5948TIP3   OH239334   4.046   6.256   3.863 -0.0012  0.1558  0.2265
 5948TIP3    H139335   4.134   6.288   3.842  0.0792  0.0883  0.4580
 5948TIP3    H239336   4.038   6.267   3.958 -0.8818  1.7771  0.0074
 5949TIP3   OH239337   5.902   4.322   0.849  0.1892  0.3783 -0.3768
 5949TIP3    H139338   5.989   4.321   0.889  1.6385  2.4259 -3.1038
 5949TIP3    H239339   5.842   4.344   0.921  1.8455 -1.0550  1.5647
 5950TIP3   OH239340   3.837   3.342  11.667 -0.5685 -0.4750  0.0264
 5950TIP3    H139341   3.852   3.386  11.584 -2.0254 -0.8963 -0.4989
 5950TIP3    H239342   3.918   3.353  11.716  0.5902 -0.8319 -1.7300
 5951TIP3   OH239343   6.304   6.789  12.746  0.6473  0.1156  0.2832
 5951TIP3    H139344   6.298   6.782  12.651 -0.6817 -0.9015  0.4190
 5951TIP3    H239345   6.240   6.855  12.770  1.0920  0.4864  0.4636
 5952TIP3   OH239346   2.955   1.900   3.251  0.3672  0.3220 -0.4214
 5952TIP3    H139347   3.039   1.900   3.296  0.5188  0.1951 -0.6963
 5952TIP3    H239348   2.923   1.990   3.260  0.8110  0.5253 -0.8165
 5953TIP3   OH239349   6.277   3.895  15.586 -0.1708 -0.4232  0.1348
 5953TIP3    H139350   6.299   3.813  15.542 -0.2896  0.1473 -1.0262
 5953TIP3    H239351   6.358   3.944  15.589 -0.2837 -0.2315  0.0632
 5954TIP3   OH239352   2.584   2.294   3.201  0.1024 -0.6422  0.0588
 5954TIP3    H139353   2.533   2.249   3.269 -2.3780  0.2063 -1.1191
 5954TIP3    H239354   2.536   2.376   3.186  0.9904 -0.4729 -2.1801
 5955TIP3   OH239355   3.135   0.690  12.334 -0.0198  0.6085 -0.5761
 5955TIP3    H139356   3.095   0.619  12.285 -1.8007 -0.1150  1.7584
 5955TIP3    H239357   3.203   0.648  12.387  0.7186  1.0907 -1.1270
 5956TIP3   OH239358   2.367   5.056  11.353  0.4213 -0.1421  0.3147
 5956TIP3    H139359   2.410   5.027  11.273  2.6191 -0.8566  1.6606
 5956TIP3    H239360   2.376   5.152  11.351 -0.2671 -0.0856 -0.6449
 5957TIP3   OH239361   3.831   5.834  14.317  0.0292  0.0645 -0.0943
 5957TIP3    H139362   3.758   5.851  14.376 -1.7145  2.7310 -2.7195
 5957TIP3    H239363   3.798   5.770  14.255  0.0645  0.9108 -1.0095
 5958TIP3   OH239364   3.803   5.569  11.665 -0.4461 -0.5606 -0.8384
 5958TIP3    H139365   3.736   5.615  11.616 -1.6473 -1.4652 -0.1042
 5958TIP3    H239366   3.881   5.572  11.610 -1.2376  0.0463 -1.9431
 5959TIP3   OH239367   0.856   4.755   0.259 -0.4118  0.5822 -0.2759
 5959TIP3    H139368   0.881   4.772   0.168  0.0802  0.2215 -0.2125
 5959TIP3    H239369   0.812   4.670   0.257  2.3951 -0.9991  0.2533
 5960TIP3   OH239370   5.673   1.615   2.888 -0.5259  0.3978  0.0835
 5960TIP3    H139371   5.678   1.709   2.877 -0.6532  0.5853  1.3874
 5960TIP3    H239372   5.741   1.595   2.953 -0.2963 -0.4538 -0.4007
 5961TIP3   OH239373   4.801   2.798   4.218  0.0201  0.0083  0.5205
 5961TIP3    H139374   4.885   2.842   4.202  0.2804 -0.4059  0.7150
 5961TIP3    H239375   4.826   2.712   4.253 -0.4768 -0.4260 -0.1793
 5962TIP3   OH239376   4.271   1.873  12.358  0.1405 -0.1544  0.3108
 5962TIP3    H139377   4.355   1.890  12.316  0.4305  1.8580  1.5954
 5962TIP3    H239378   4.206   1.897  12.292  0.5727  0.1552 -0.0081
 5963TIP3   OH239379   2.512   3.862  10.819 -0.1007 -0.1031 -0.9726
 5963TIP3    H139380   2.564   3.783  10.804 -2.0912 -1.6520 -0.2110
 5963TIP3    H239381   2.458   3.870  10.741  2.8129  2.9549 -2.9374
 5964TIP3   OH239382   4.321   3.494  14.513 -0.1205 -0.2695  0.4615
 5964TIP3    H139383   4.402   3.476  14.561 -0.8451  0.2261  1.9351
 5964TIP3    H239384   4.328   3.586  14.487  0.0991 -0.4281 -0.0477
 5965TIP3   OH239385   0.203   0.637  16.282 -0.0771 -0.7900 -1.1753
 5965TIP3    H139386   0.167   0.557  16.319 -0.5525 -0.4539 -0.8975
 5965TIP3    H239387   0.130   0.699  16.282  1.0224  0.7225  1.7146
 5966TIP3   OH239388   6.474   3.924  13.122 -0.8849  0.1318 -0.3075
 5966TIP3    H139389   6.405   3.893  13.063 -2.3401  0.4912  1.1612
 5966TIP3    H239390   6.447   3.894  13.208  1.9816 -1.7338  0.0649
 5967TIP3   OH239391   3.632   4.585  15.210 -0.2370 -0.6086  0.3647
 5967TIP3    H139392   3.663   4.614  15.295  0.2631 -0.0552  0.0033
 5967TIP3    H239393   3.537   4.585  15.217 -0.2092 -0.0684  0.7641
 5968TIP3   OH239394   3.567   3.795  16.596  0.2947  0.2454  0.3983
 5968TIP3    H139395   3.607   3.868  16.642  2.2863 -1.4536  1.5097
 5968TIP3    H239396   3.641   3.745  16.561 -1.0486 -0.6108 -1.3739
 5969TIP3   OH239397   4.790   1.387   1.963  0.1056 -0.0333 -0.3099
 5969TIP3    H139398   4.827   1.472   1.938 -0.0896 -0.0197 -0.5534
 5969TIP3    H239399   4.751   1.353   1.883 -1.1550  0.3391  0.1237
 5970TIP3   OH239400   6.082   3.853  14.961  1.0720  0.5179  0.2750
 5970TIP3    H139401   6.071   3.899  15.044  0.3606  0.3011  0.3139
 5970TIP3    H239402   6.024   3.777  14.968  0.8846  0.5769 -0.4699
 5971TIP3   OH239403   5.591   4.024  13.042 -0.3327  0.2105 -0.3907
 5971TIP3    H139404   5.587   4.030  13.137 -0.8544  0.6907 -0.4424
 5971TIP3    H239405   5.611   4.112  13.012  2.5461 -0.4249 -0.6056
 5972TIP3   OH239406   6.123   1.397  15.502 -0.0850 -0.1630 -0.0826
 5972TIP3    H139407   6.166   1.369  15.583  0.4287  0.9314  0.0345
 5972TIP3    H239408   6.032   1.412  15.527 -0.0060 -0.1654  0.2078
 5973TIP3   OH239409   5.874   3.290  13.535  0.6707 -0.2736 -0.3446
 5973TIP3    H139410   5.960   3.318  13.567  0.0569  0.7077  0.4792
 5973TIP3    H239411   5.811   3.334  13.591 -0.3929 -1.0192 -0.9044
 5974TIP3   OH239412   3.116   6.471   3.373  0.1248  0.0004  0.2393
 5974TIP3    H139413   3.054   6.447   3.305  1.1577  1.1763 -1.1909
 5974TIP3    H239414   3.137   6.563   3.355  0.7289  0.2401  1.9312
 5975TIP3   OH239415   5.658   0.434  13.263 -0.0940 -0.0771 -0.6084
 5975TIP3    H139416   5.589   0.494  13.292  0.4231 -0.0956  0.7210
 5975TIP3    H239417   5.704   0.483  13.194 -0.8863  0.2697 -0.9032
 5976TIP3   OH239418   1.392   2.653  11.897 -0.3212  0.3016 -0.2713
 5976TIP3    H139419   1.452   2.693  11.960 -0.6163  0.0888  0.1451
 5976TIP3    H239420   1.325   2.720  11.882 -0.9672 -0.1275  0.6355
 5977TIP3   OH239421   5.843   2.198  16.636 -0.0311  0.2520  0.5129
 5977TIP3    H139422   5.928   2.170  16.602 -0.0111 -0.8635  1.4181
 5977TIP3    H239423   5.781   2.132  16.606 -0.9062  1.8416 -1.4246
 5978TIP3   OH239424   4.714   4.580   5.283 -0.4677  0.1518 -0.6304
 5978TIP3    H139425   4.622   4.602   5.266 -0.4557  0.8681  0.2232
 5978TIP3    H239426   4.763   4.657   5.254 -0.2558  0.3697  0.2886
 5979TIP3   OH239427   6.183   6.062   2.130 -0.0954  0.2397  0.4310
 5979TIP3    H139428   6.096   6.093   2.155 -1.5850 -0.8925 -2.8773
 5979TIP3    H239429   6.171   5.969   2.111  1.4222  0.3991 -1.6203
 5980TIP3   OH239430   6.008   0.849  15.333  0.2104  0.3285 -0.1945
 5980TIP3    H139431   5.955   0.919  15.295  1.8713  0.2730 -2.8565
 5980TIP3    H239432   6.046   0.888  15.413 -0.4061  1.8041 -0.5890
 5981TIP3   OH239433   3.373   0.878  17.046 -0.0053 -0.2780  0.6285
 5981TIP3    H139434   3.413   0.959  17.076 -2.2450  2.2945 -2.5596
 5981TIP3    H239435   3.438   0.840  16.987  0.2262  0.4485  0.3997
 5982TIP3   OH239436   0.739   0.084   2.532 -0.3835  0.1012  0.5559
 5982TIP3    H139437   0.708   0.010   2.479 -0.7345  0.5973  0.0554
 5982TIP3    H239438   0.767   0.044   2.614  0.2248 -0.6856 -0.0218
 5983TIP3   OH239439   1.439   2.406  16.901 -0.3703  0.0141  0.3008
 5983TIP3    H139440   1.418   2.499  16.892 -1.2978 -0.2161  0.0186
 5983TIP3    H239441   1.426   2.387  16.994  2.3610  0.7434  0.9316
 5984TIP3   OH239442   1.417   5.373   1.446 -0.2119 -0.1155 -0.2977
 5984TIP3    H139443   1.492   5.421   1.479  1.9305 -2.8842 -0.7567
 5984TIP3    H239444   1.388   5.423   1.369  1.4378  0.7992 -0.3682
 5985TIP3   OH239445   3.901   2.405   0.292 -0.4800  0.3680  0.2461
 5985TIP3    H139446   3.813   2.368   0.302 -0.7773  0.6358 -1.1664
 5985TIP3    H239447   3.955   2.332   0.262 -0.4053  0.4159  0.2618
 5986TIP3   OH239448   2.270   4.394  17.205 -0.0701  0.1820  0.4886
 5986TIP3    H139449   2.179   4.372  17.222 -0.5436  0.4998 -1.4046
 5986TIP3    H239450   2.320   4.326  17.252 -1.3669 -1.7843 -0.8103
 5987TIP3   OH239451   1.530   4.819   4.890 -0.0362  0.5149  0.6933
 5987TIP3    H139452   1.479   4.890   4.850  0.5600  0.1647 -0.7587
 5987TIP3    H239453   1.528   4.838   4.984  0.9855  3.0693  0.2825
 5988TIP3   OH239454   2.485   2.288   5.997 -0.0115 -0.3660 -0.1883
 5988TIP3    H139455   2.415   2.227   6.017  1.2134 -1.4973  0.7653
 5988TIP3    H239456   2.536   2.295   6.078  1.6322 -0.4600 -1.1679
 5989TIP3   OH239457   2.039   2.083  14.785 -0.0021  0.3268 -0.3401
 5989TIP3    H139458   2.076   2.101  14.699  0.4635  1.3592  0.0542
 5989TIP3    H239459   2.102   2.022  14.825 -1.3609 -1.9700 -1.5204
 5990TIP3   OH239460   5.179   2.899   4.622 -0.3003 -0.3339 -0.0515
 5990TIP3    H139461   5.235   2.965   4.663 -1.0727  1.4569 -1.7232
 5990TIP3    H239462   5.100   2.947   4.596 -1.2943 -2.1301 -0.5136
 5991TIP3   OH239463   1.626   5.904   4.798  0.1732  0.2758  0.0434
 5991TIP3    H139464   1.574   5.828   4.772 -0.5064 -0.3234  2.8488
 5991TIP3    H239465   1.716   5.881   4.777 -0.1932 -0.6842 -0.5039
 5992TIP3   OH239466   2.136   5.100   0.958 -0.3079  0.1084  0.0733
 5992TIP3    H139467   2.143   5.085   0.863 -2.7314 -0.6519 -0.0598
 5992TIP3    H239468   2.087   5.182   0.965 -1.1943 -0.4485  0.6155
 5993TIP3   OH239469   4.617   4.538  16.107  0.4411  0.2261  0.4181
 5993TIP3    H139470   4.579   4.619  16.073 -1.5371 -0.3355  1.1952
 5993TIP3    H239471   4.583   4.470  16.049  1.3443 -0.1778  0.3438
 5994TIP3   OH239472   2.177   5.326  14.982 -0.3340  0.0171  0.0851
 5994TIP3    H139473   2.179   5.236  15.014  0.3688  0.1125  0.3291
 5994TIP3    H239474   2.119   5.371  15.044 -1.4244 -0.4467 -0.5630
 5995TIP3   OH239475   5.595   2.669  15.447 -0.1378 -0.8865  0.1955
 5995TIP3    H139476   5.654   2.607  15.491 -0.4950 -2.2114 -1.1021
 5995TIP3    H239477   5.632   2.755  15.467  0.2213 -1.4690  2.2961
 5996TIP3   OH239478   4.340   1.438  15.368  0.4840  0.4600  0.8056
 5996TIP3    H139479   4.282   1.490  15.424 -0.4992 -1.5920  1.8063
 5996TIP3    H239480   4.412   1.412  15.425  0.5946  0.1412  0.5261
 5997TIP3   OH239481   0.981   5.284  14.032 -0.3489 -0.2782  0.1071
 5997TIP3    H139482   1.067   5.315  14.062  0.6187 -2.0891 -0.6632
 5997TIP3    H239483   0.920   5.317  14.097  0.8818  1.2564  0.5583
 5998TIP3   OH239484   1.469   4.835   5.581 -0.2621  0.0807 -0.0054
 5998TIP3    H139485   1.545   4.785   5.551 -0.5793  0.0234 -0.7264
 5998TIP3    H239486   1.396   4.773   5.578 -0.6834  0.5956 -1.0197
 5999TIP3   OH239487   2.767   3.740   1.221  0.1871 -0.4587 -0.6482
 5999TIP3    H139488   2.828   3.666   1.223 -0.8381 -1.4018 -2.1065
 5999TIP3    H239489   2.684   3.701   1.194 -0.5595  1.1211 -0.7133
 6000TIP3   OH239490   5.271   0.093  13.005 -0.0041 -0.6090 -0.4724
 6000TIP3    H139491   5.210   0.149  13.053  0.2230 -0.8180  0.0716
 6000TIP3    H239492   5.337   0.154  12.970 -1.0368 -0.2626 -1.8957
 6001TIP3   OH239493   3.200   4.233   2.397  0.1360 -0.0066  0.0623
 6001TIP3    H139494   3.270   4.291   2.429  0.8339 -0.6992 -0.1974
 6001TIP3    H239495   3.141   4.224   2.472  0.1467  0.8300  0.1881
 6002TIP3   OH239496   4.265   5.829  13.931  0.2192  0.0796 -0.1015
 6002TIP3    H139497   4.198   5.767  13.962  0.3926 -0.6908 -1.2197
 6002TIP3    H239498   4.337   5.819  13.994 -0.1988 -0.0220  0.3728
 6003TIP3   OH239499   4.492   5.992   2.224 -0.1847  0.2070  0.5556
 6003TIP3    H139500   4.463   6.056   2.289 -0.3730  1.4923 -0.7576
 6003TIP3    H239501   4.564   6.035   2.177 -1.4629  0.2166 -1.5251
 6004TIP3   OH239502   6.637   0.253   1.061 -0.2207  0.0996 -0.0806
 6004TIP3    H139503   6.656   0.160   1.049 -0.6757  0.1606 -1.3791
 6004TIP3    H239504   6.638   0.265   1.156 -1.0899 -1.4312  0.1592
 6005TIP3   OH239505   3.533   0.439  16.522 -0.2018 -0.7225  1.2324
 6005TIP3    H139506   3.522   0.347  16.497 -1.7329 -0.6986  1.7265
 6005TIP3    H239507   3.448   0.465  16.557  0.2746  0.8277  1.3212
 6006TIP3   OH239508   6.691   1.578   4.679 -0.2156  0.3039 -0.6262
 6006TIP3    H139509   6.724   1.492   4.706 -0.8859 -0.3080 -1.7069
 6006TIP3    H239510   6.668   1.622   4.762 -2.8051 -1.7467 -0.1385
 6007TIP3   OH239511   5.715   0.545  12.141 -0.2080  0.1544  0.1396
 6007TIP3    H139512   5.639   0.534  12.084  1.0247 -1.7450 -1.2929
 6007TIP3    H239513   5.701   0.628  12.185 -3.0472 -0.1028 -0.1308
 6008TIP3   OH239514   0.407   2.418  14.065 -0.3059 -0.0430  0.3412
 6008TIP3    H139515   0.426   2.509  14.089 -0.2656  0.1171 -0.2816
 6008TIP3    H239516   0.344   2.426  13.993  1.6369 -0.4276 -1.5114
 6009TIP3   OH239517   0.047   1.133  12.904  0.4820  0.0598  0.2696
 6009TIP3    H139518   0.024   1.151  12.813 -2.6007 -1.4056  0.6284
 6009TIP3    H239519   0.124   1.076  12.899 -0.2001 -0.7722 -1.4821
 6010TIP3   OH239520   3.009   5.617   3.476  0.2165  0.4064  0.1348
 6010TIP3    H139521   2.959   5.694   3.448 -0.6631 -0.6159 -1.2374
 6010TIP3    H239522   2.992   5.612   3.570  0.2339  1.8383  0.2472
 6011TIP3   OH239523   1.503   0.716   4.292  0.5851 -0.4439  0.0929
 6011TIP3    H139524   1.513   0.647   4.226  2.2273  1.0032 -1.2595
 6011TIP3    H239525   1.532   0.796   4.248 -0.7458  1.0414  1.7801
 6012TIP3   OH239526   2.879   6.251   4.464  0.0440 -0.4444 -0.1439
 6012TIP3    H139527   2.913   6.170   4.503 -0.8670 -0.1683  1.3332
 6012TIP3    H239528   2.813   6.281   4.527 -1.3691  0.1706 -1.8336
 6013TIP3   OH239529   2.881   0.177  11.981  0.1534 -0.2533 -0.5708
 6013TIP3    H139530   2.793   0.141  11.994 -0.1003 -0.0548 -1.6432
 6013TIP3    H239531   2.940   0.109  12.013 -0.3915 -0.3354  0.2687
 6014TIP3   OH239532   4.035   1.195  14.200 -0.3262  0.0274  0.2888
 6014TIP3    H139533   4.112   1.140  14.212 -0.2051  0.4242  1.4132
 6014TIP3    H239534   3.966   1.134  14.171 -0.4337 -0.9130  2.3173
 6015TIP3   OH239535   3.064   2.637   3.140 -0.0027 -0.4449 -0.0651
 6015TIP3    H139536   3.117   2.659   3.216 -0.4698  0.6449 -0.0328
 6015TIP3    H239537   3.127   2.630   3.068  0.4582 -1.6541  0.4354
 6016TIP3   OH239538   2.451   4.327   1.112  0.3396 -0.5728  0.7238
 6016TIP3    H139539   2.414   4.242   1.090 -0.5844 -0.2357  0.9147
 6016TIP3    H239540   2.535   4.307   1.153 -0.9507 -1.5325  3.0469
 6017TIP3   OH239541   2.215   3.398  12.575  0.2197  0.2347 -0.1452
 6017TIP3    H139542   2.221   3.445  12.492  1.4612  0.3038 -0.0327
 6017TIP3    H239543   2.212   3.305  12.550 -0.2712  0.2873 -0.2915
 6018TIP3   OH239544   1.774   2.913   5.023  0.1202  0.0710 -0.1304
 6018TIP3    H139545   1.723   2.951   5.095  0.5445 -1.4247  1.0083
 6018TIP3    H239546   1.709   2.869   4.968 -0.1221  0.5530 -0.2299
 6019TIP3   OH239547   0.350   5.887  12.873  0.2135 -0.1733  0.2299
 6019TIP3    H139548   0.274   5.936  12.906  0.8829  1.2904 -0.3061
 6019TIP3    H239549   0.312   5.820  12.816 -0.7237 -0.0862  0.7204
 6020TIP3   OH239550   6.020   2.731   0.826 -0.7798 -0.6898  0.0525
 6020TIP3    H139551   5.998   2.646   0.787  0.3446 -0.1074 -1.9425
 6020TIP3    H239552   6.080   2.710   0.898  0.9175 -1.4980 -1.5448
 6021TIP3   OH239553   2.719   2.932  14.374  0.6570 -0.3224 -0.4249
 6021TIP3    H139554   2.680   2.981  14.447 -1.5203 -0.2965 -1.5102
 6021TIP3    H239555   2.738   2.846  14.411  0.7918  0.0848  0.5009
 6022TIP3   OH239556   6.622   0.925   5.324 -0.5483  0.3807  0.0791
 6022TIP3    H139557   6.654   0.897   5.238 -0.4636  0.1657  0.1814
 6022TIP3    H239558   6.699   0.958   5.369 -0.5959  0.5080  0.0698
 6023TIP3   OH239559   3.379   0.754   3.742 -0.2811 -0.4478 -0.0152
 6023TIP3    H139560   3.343   0.751   3.653 -1.9516 -0.8938  0.6347
 6023TIP3    H239561   3.444   0.824   3.739  0.0352 -0.7671 -1.7008
 6024TIP3   OH239562   1.072   6.439  13.091  0.9076 -0.3136  0.1426
 6024TIP3    H139563   0.999   6.501  13.091  0.3224 -0.8275 -2.8031
 6024TIP3    H239564   1.032   6.353  13.105  0.9460 -0.5605 -1.1325
 6025TIP3   OH239565   3.210   6.440   4.109 -0.8942 -0.4062  1.0442
 6025TIP3    H139566   3.285   6.453   4.051 -1.5671 -0.2907  0.1670
 6025TIP3    H239567   3.248   6.414   4.192  0.0665 -1.7270  0.2296
 6026TIP3   OH239568   1.072   1.683  12.620 -0.1995 -0.1997  0.2701
 6026TIP3    H139569   1.030   1.655  12.701 -0.8167 -0.0617 -0.0006
 6026TIP3    H239570   1.100   1.602  12.577  0.7498 -0.2501  0.9364
 6027TIP3   OH239571   6.442   0.189  12.842  0.0458 -0.0010  0.1683
 6027TIP3    H139572   6.458   0.109  12.791 -1.6247  0.6709 -1.4997
 6027TIP3    H239573   6.348   0.189  12.859 -0.3585  2.4777 -1.5044
 6028TIP3   OH239574   6.282   4.108  17.167  0.4567  0.1057 -0.8473
 6028TIP3    H139575   6.342   4.176  17.197 -2.0650  1.2699  2.2067
 6028TIP3    H239576   6.291   4.108  17.071  5.0577  0.2041 -0.6375
 6029TIP3   OH239577   3.954   3.228   1.927  0.4275  0.3841 -0.0669
 6029TIP3    H139578   3.962   3.133   1.932 -2.1864  0.0176 -1.1872
 6029TIP3    H239579   3.916   3.245   1.841  0.7330  2.4651  0.1351
 6030TIP3   OH239580   3.660   4.481   4.092  0.2800 -0.2832  0.3791
 6030TIP3    H139581   3.752   4.467   4.112  0.0491 -0.3024  1.5215
 6030TIP3    H239582   3.624   4.392   4.083  0.5738 -0.2642 -1.1088
 6031TIP3   OH239583   1.372   6.096   3.636 -0.3995 -0.2719  0.0951
 6031TIP3    H139584   1.467   6.088   3.630 -0.2748  1.2030 -0.3048
 6031TIP3    H239585   1.354   6.103   3.730 -0.0499  0.0085  0.1423
 6032TIP3   OH239586   1.010   6.504  16.834 -0.6554 -0.2858  0.2497
 6032TIP3    H139587   0.978   6.594  16.837  0.6784  0.2652 -0.9773
 6032TIP3    H239588   1.017   6.483  16.741 -0.3697 -1.4433  0.5097
 6033TIP3   OH239589   0.357   0.734   1.114 -0.1469  0.4438  0.5533
 6033TIP3    H139590   0.356   0.656   1.168  0.1693  0.7720  1.0360
 6033TIP3    H239591   0.445   0.738   1.077 -1.3487 -1.8295 -3.0389
 6034TIP3   OH239592   0.380   2.820   4.204 -0.5711 -0.1022  0.1880
 6034TIP3    H139593   0.417   2.908   4.205 -1.8463  0.4633  0.2581
 6034TIP3    H239594   0.348   2.807   4.294  1.0685 -1.3192  0.6518
 6035TIP3   OH239595   0.545   0.985   1.412  0.4225  0.5213 -0.2569
 6035TIP3    H139596   0.478   1.012   1.349 -1.2459  0.4459  1.4027
 6035TIP3    H239597   0.591   0.913   1.368 -0.4299  0.7042 -1.5188
 6036TIP3   OH239598   4.064   3.186  11.790 -0.3045 -0.4855  0.0457
 6036TIP3    H139599   4.105   3.194  11.704 -0.7972 -0.1524 -0.1626
 6036TIP3    H239600   4.111   3.249  11.844  0.3381 -1.0413  0.1612
 6037TIP3   OH239601   4.257   0.505   3.655  0.7475 -0.1042  0.2878
 6037TIP3    H139602   4.210   0.586   3.675  0.8740  0.0420  0.0020
 6037TIP3    H239603   4.239   0.490   3.562  0.8237 -0.3404  0.3106
 6038TIP3   OH239604   0.653   0.479   6.060  0.1848 -0.7950  0.2094
 6038TIP3    H139605   0.631   0.405   6.003  0.8967  0.4032 -1.7206
 6038TIP3    H239606   0.581   0.483   6.122 -1.3026 -1.4174 -1.3786
 6039TIP3   OH239607   2.620   6.650  15.544  0.1322  0.7760 -0.0645
 6039TIP3    H139608   2.603   6.724  15.485 -2.1515 -0.2143 -0.7686
 6039TIP3    H239609   2.712   6.630  15.531 -0.1124  1.0205 -2.8640
 6040TIP3   OH239610   2.948   0.144  14.078 -0.2923 -0.0949 -0.1838
 6040TIP3    H139611   2.997   0.096  14.011  0.0431  0.7226 -0.5419
 6040TIP3    H239612   3.015   0.193  14.126 -0.8315  2.2033 -1.6294
 6041TIP3   OH239613   0.834   2.222   1.929  0.0984  0.3240  0.1695
 6041TIP3    H139614   0.836   2.259   1.841 -0.1532  1.3067  0.5668
 6041TIP3    H239615   0.761   2.160   1.927  0.4014 -0.0292 -0.4443
 6042TIP3   OH239616   0.724   0.685  12.999 -0.8185  0.1272  0.7637
 6042TIP3    H139617   0.711   0.665  13.092 -1.1586 -2.5641  0.2372
 6042TIP3    H239618   0.687   0.773  12.988 -0.8829  0.4704  3.1319
 6043TIP3   OH239619   4.582   2.591  12.289  0.3687  0.3598  0.3059
 6043TIP3    H139620   4.668   2.577  12.329 -0.4878  2.1975  3.1196
 6043TIP3    H239621   4.591   2.676  12.245 -0.2990  1.2172  1.7523
 6044TIP3   OH239622   4.218   6.808   0.451  0.4624 -0.2354 -0.1270
 6044TIP3    H139623   4.163   6.740   0.488  0.0870  0.8629  1.4492
 6044TIP3    H239624   4.237   6.778   0.362 -2.9323 -0.5273 -0.9029
 6045TIP3   OH239625   6.659   6.750   2.202  0.6648  0.0445  0.4267
 6045TIP3    H139626   6.666   6.687   2.130 -1.4744  0.6276 -0.3797
 6045TIP3    H239627   6.625   6.829   2.161  0.0739  0.6209  1.9559
 6046TIP3   OH239628   0.719   2.904   4.047  0.5271  0.1475 -0.3473
 6046TIP3    H139629   0.677   2.842   3.987 -2.8017  1.2252  0.6743
 6046TIP3    H239630   0.745   2.850   4.122 -3.0774 -0.1079  0.9095
 6047TIP3   OH239631   5.767   1.951  15.414  0.0803 -0.1611  0.5772
 6047TIP3    H139632   5.692   1.934  15.357 -0.0464  0.5957  0.5019
 6047TIP3    H239633   5.756   2.042  15.442  0.7373 -0.1753  0.9119
 6048TIP3   OH239634   5.083   1.058  11.201  0.5132 -0.2057  0.0305
 6048TIP3    H139635   5.157   1.001  11.222 -0.4001 -1.6168 -0.5025
 6048TIP3    H239636   5.124   1.136  11.162  1.7412 -0.7196  0.2387
 6049TIP3   OH239637   5.283   3.750  15.963  0.0596 -0.2046  0.3955
 6049TIP3    H139638   5.365   3.738  15.914 -1.3919  0.2625 -2.3865
 6049TIP3    H239639   5.273   3.845  15.970 -0.4616 -0.2503  0.3047
 6050TIP3   OH239640   3.442   0.380  14.118  0.5111  0.2855 -0.7016
 6050TIP3    H139641   3.482   0.369  14.204  1.4602  0.7835 -1.0650
 6050TIP3    H239642   3.510   0.420  14.064  0.3682 -1.1423 -2.0409
 6051TIP3   OH239643   0.830   2.768   3.790 -0.7727  0.3938 -0.1541
 6051TIP3    H139644   0.855   2.860   3.793 -0.8230  0.5073 -1.8970
 6051TIP3    H239645   0.906   2.721   3.824 -0.4536  1.0327  0.0305
 6052TIP3   OH239646   5.666   5.718   2.672  0.5093  0.1036  0.5914
 6052TIP3    H139647   5.732   5.655   2.699  0.5229  0.1047  0.5602
 6052TIP3    H239648   5.685   5.796   2.725  2.1006  1.0103 -1.1943
 6053TIP3   OH239649   4.476   4.727  12.731  0.5581 -0.1443 -0.4908
 6053TIP3    H139650   4.469   4.822  12.740  0.6434 -0.1589 -0.2815
 6053TIP3    H239651   4.389   4.694  12.755  0.1667 -0.0380 -1.6877
 6054TIP3   OH239652   5.294   4.984   4.189 -0.6782  0.0573  0.0890
 6054TIP3    H139653   5.288   4.932   4.269 -0.7178  2.0164  1.4271
 6054TIP3    H239654   5.208   4.977   4.150 -0.0093 -2.8412 -1.1365
 6055TIP3   OH239655   1.313   4.295   1.017  0.3984 -0.1667  0.0648
 6055TIP3    H139656   1.322   4.200   1.017 -1.4683 -0.3831  0.6840
 6055TIP3    H239657   1.219   4.310   1.029  0.5416  1.7517 -0.8833
 6056TIP3   OH239658   3.559   3.183  15.351 -0.1871  0.2401  0.0570
 6056TIP3    H139659   3.475   3.161  15.309  0.4960  1.7260 -2.2929
 6056TIP3    H239660   3.601   3.099  15.365  0.5082 -0.4573 -4.5833
 6057TIP3   OH239661   0.598   0.367  15.983  0.1177  0.4137  0.0046
 6057TIP3    H139662   0.539   0.417  15.927  0.6121  1.0655  0.0534
 6057TIP3    H239663   0.566   0.277  15.978  0.3150  0.3999 -1.5772
 6058TIP3   OH239664   4.862   4.142   5.811  0.3408  0.3356  0.0762
 6058TIP3    H139665   4.891   4.078   5.876  0.0319 -0.6379 -0.7232
 6058TIP3    H239666   4.771   4.117   5.791 -0.0976  1.5840  0.4212
 6059TIP3   OH239667   4.304   0.557   5.036 -0.5944 -0.3029 -0.5777
 6059TIP3    H139668   4.273   0.512   4.958  0.7438  1.0605 -1.9412
 6059TIP3    H239669   4.393   0.525   5.048  0.5810  2.2542 -1.8770
 6060TIP3   OH239670   3.148   0.653  11.703  0.0449  0.1747  0.1546
 6060TIP3    H139671   3.116   0.583  11.759 -2.5974 -0.3679 -1.8066
 6060TIP3    H239672   3.084   0.724  11.715  1.3429  1.3600  0.3254
 6061TIP3   OH239673   2.238   2.708  14.452 -0.6001 -0.0995 -0.3327
 6061TIP3    H139674   2.159   2.669  14.415 -1.1810  0.4302  0.3239
 6061TIP3    H239675   2.215   2.800  14.467 -0.1451 -0.1329  0.6484
 6062TIP3   OH239676   0.080   2.290   0.207  0.3958  0.5701 -0.1663
 6062TIP3    H139677   0.125   2.296   0.123 -0.0086 -1.5435 -0.6023
 6062TIP3    H239678   0.058   2.380   0.230  1.4549  1.2791 -1.8029
 6063TIP3   OH239679   1.143   0.685  13.414  0.3554  0.1613  0.6321
 6063TIP3    H139680   1.155   0.733  13.332 -1.7675  0.3522  0.3763
 6063TIP3    H239681   1.225   0.639  13.427  2.0171  2.7903  0.1873
 6064TIP3   OH239682   0.473   2.566  14.356  0.2118  0.1835  0.1926
 6064TIP3    H139683   0.568   2.566  14.343  0.1322  1.1788 -0.4792
 6064TIP3    H239684   0.459   2.624  14.431  0.2467 -1.2998  1.3866
 6065TIP3   OH239685   1.846   1.417  13.888 -0.0606 -0.4127 -0.6701
 6065TIP3    H139686   1.828   1.491  13.829  1.1786  0.3820 -0.0796
 6065TIP3    H239687   1.773   1.357  13.872  0.0173 -0.0402 -2.7169
 6066TIP3   OH239688   6.391   1.851   4.585  0.0775 -0.0863 -0.4747
 6066TIP3    H139689   6.355   1.929   4.543  0.4798 -0.1846 -1.0272
 6066TIP3    H239690   6.337   1.837   4.662  1.3451  2.0192  0.8656
 6067TIP3   OH239691   0.303   1.894   0.952  0.1792  0.1057 -0.0005
 6067TIP3    H139692   0.301   1.975   1.003 -0.5177  0.0686  0.0402
 6067TIP3    H239693   0.245   1.834   1.000  0.0041 -0.1308 -0.5036
 6068TIP3   OH239694   3.142   6.427   4.578  0.1048 -0.4867  0.0950
 6068TIP3    H139695   3.228   6.399   4.611  0.7686  0.2818 -0.9082
 6068TIP3    H239696   3.087   6.432   4.656  0.8835 -1.2971  0.7165
 6069TIP3   OH239697   6.398   6.338  12.984 -0.6058  0.0692  0.1453
 6069TIP3    H139698   6.484   6.378  12.967 -0.2329 -0.3739  0.9091
 6069TIP3    H239699   6.336   6.396  12.941 -0.0428  1.2976  0.9147
 6070TIP3   OH239700   6.256   6.488   2.915 -0.3187 -0.7780  0.1148
 6070TIP3    H139701   6.221   6.457   2.998  1.8566 -2.8134  0.3700
 6070TIP3    H239702   6.228   6.422   2.851  1.0000 -1.1744 -0.0843
 6071TIP3   OH239703   5.561   2.615   5.853 -0.3179  0.2552 -0.0272
 6071TIP3    H139704   5.645   2.598   5.812  0.0380  1.3471  0.2136
 6071TIP3    H239705   5.546   2.540   5.910 -0.5625 -1.0203 -1.7039
 6072TIP3   OH239706   1.770   4.797   1.656 -0.1290  0.2422 -0.1878
 6072TIP3    H139707   1.693   4.778   1.709  1.4149 -1.2980  1.6742
 6072TIP3    H239708   1.831   4.838   1.716  1.0484  0.1079 -1.2410
 6073TIP3   OH239709   1.068   0.130  12.337  0.3024 -0.5706 -0.3407
 6073TIP3    H139710   1.060   0.058  12.401 -1.5755 -1.0698 -1.0572
 6073TIP3    H239711   1.137   0.101  12.277  2.1571 -0.0615  1.4383
 6074TIP3   OH239712   4.832   6.206  13.610  0.2593 -0.1857 -0.2428
 6074TIP3    H139713   4.833   6.235  13.702 -0.4983  0.6419 -0.4775
 6074TIP3    H239714   4.914   6.157  13.600 -0.1371 -1.1997  1.1474
 6075TIP3   OH239715   0.814   5.746   4.887  0.0311  0.4390 -0.0855
 6075TIP3    H139716   0.897   5.770   4.846 -0.1795  1.1115 -0.1439
 6075TIP3    H239717   0.797   5.818   4.948 -0.5610  0.3658 -0.1604
 6076TIP3   OH239718   4.250   0.086  16.544  0.4888 -0.3057 -0.1797
 6076TIP3    H139719   4.233   0.014  16.482 -0.9740  0.7652 -1.0950
 6076TIP3    H239720   4.335   0.065  16.582  1.6539 -0.8550 -2.8325
 6077TIP3   OH239721   2.053   5.358   0.958  0.1293 -0.0746 -0.3066
 6077TIP3    H139722   2.127   5.419   0.957  1.1431 -1.2484 -2.0806
 6077TIP3    H239723   1.994   5.393   1.024  2.4487  0.6842  1.5041
 6078TIP3   OH239724   1.981   3.294  17.142  0.1011 -0.3533  0.1603
 6078TIP3    H139725   1.972   3.384  17.112 -2.4053 -0.5160  0.1515
 6078TIP3    H239726   1.923   3.243  17.084  0.6774 -1.8014  0.7996
 6079TIP3   OH239727   3.708   5.377   6.534  0.1365  0.2490 -0.5912
 6079TIP3    H139728   3.773   5.342   6.595 -2.1700 -0.8502  1.3980
 6079TIP3    H239729   3.682   5.303   6.480 -0.4360  0.3385 -0.4486
 6080TIP3   OH239730   6.221   5.731  11.838  0.4786 -0.1229  0.2884
 6080TIP3    H139731   6.233   5.729  11.743 -0.2460 -0.1862  0.1937
 6080TIP3    H239732   6.131   5.763  11.851  1.0097  1.1728  0.9910
 6081TIP3   OH239733   4.316   2.941  16.230  0.2413 -0.5247 -0.0716
 6081TIP3    H139734   4.314   2.996  16.309 -0.3983  1.4030 -1.3523
 6081TIP3    H239735   4.268   2.992  16.164  2.4002 -1.1401 -2.2883
 6082TIP3   OH239736   3.111   1.781   0.998 -0.2810 -0.0257 -0.9089
 6082TIP3    H139737   3.079   1.867   0.970 -1.7409 -0.5728 -1.0099
 6082TIP3    H239738   3.041   1.720   0.974  0.0021 -1.0249  0.6498
 6083TIP3   OH239739   3.052   3.269  15.769  0.7084  0.1163 -0.2494
 6083TIP3    H139740   2.960   3.245  15.775  0.5559  0.6316 -0.4407
 6083TIP3    H239741   3.084   3.221  15.692  1.1547 -1.7330  1.0151
 6084TIP3   OH239742   3.725   6.055   5.110 -0.1501 -0.4325  0.0293
 6084TIP3    H139743   3.804   6.066   5.057  0.8126 -1.6352  1.1372
 6084TIP3    H239744   3.717   6.137   5.159  1.5946 -0.9939  1.3730
 6085TIP3   OH239745   1.254   3.739   3.017 -0.0173 -0.0717  0.4314
 6085TIP3    H139746   1.309   3.729   3.094 -1.1068  0.1343  1.2640
 6085TIP3    H239747   1.315   3.752   2.945  1.0444 -1.1728  1.1110
 6086TIP3   OH239748   2.316   0.715   4.252  0.4196  0.1570 -0.4219
 6086TIP3    H139749   2.233   0.761   4.264  0.0355 -0.3020 -1.2150
 6086TIP3    H239750   2.333   0.673   4.336 -0.4669 -0.2351 -0.4229
 6087TIP3   OH239751   3.374   5.628  14.914  0.0779  0.4181  0.5583
 6087TIP3    H139752   3.331   5.712  14.897 -0.2465  0.1784  0.1759
 6087TIP3    H239753   3.308   5.563  14.893  0.0571  0.0814  1.6337
 6088TIP3   OH239754   1.991   4.618   1.545 -0.4575  0.1113  0.7871
 6088TIP3    H139755   2.036   4.651   1.622  1.7163  1.4061 -0.9322
 6088TIP3    H239756   2.019   4.675   1.474 -3.4477 -0.1729 -0.7780
 6089TIP3   OH239757   5.043   6.573   4.514  0.2221 -0.0201  0.2389
 6089TIP3    H139758   5.016   6.498   4.567  0.3825  0.4869  1.0529
 6089TIP3    H239759   5.079   6.635   4.577  0.3196  0.6431 -0.4574
 6090TIP3   OH239760   4.564   6.160  15.712  0.0713  0.8794 -0.3033
 6090TIP3    H139761   4.480   6.199  15.689  0.8099  3.5704  1.0211
 6090TIP3    H239762   4.623   6.235  15.719  2.1866 -0.7555  0.4329
 6091TIP3   OH239763   4.320   0.488  16.368 -0.0403 -0.0085 -0.1465
 6091TIP3    H139764   4.293   0.561  16.424  0.4240 -0.3139  0.4839
 6091TIP3    H239765   4.245   0.429  16.370 -0.1831  0.1680 -0.1784
 6092TIP3   OH239766   4.236   0.575  13.977  0.0718  0.2422  0.2497
 6092TIP3    H139767   4.141   0.564  13.983  0.0146 -1.2073 -2.1086
 6092TIP3    H239768   4.252   0.598  13.885  2.0880 -1.1720  0.1682
 6093TIP3   OH239769   3.494   0.283   2.182  0.3437 -0.0322 -0.4051
 6093TIP3    H139770   3.571   0.332   2.213  1.1258 -0.9817 -0.7735
 6093TIP3    H239771   3.518   0.257   2.093 -0.9378  0.7271 -0.9955
 6094TIP3   OH239772   6.263   5.145   1.806 -0.6814 -0.3040  0.4270
 6094TIP3    H139773   6.216   5.070   1.841  1.1023 -1.6268  0.1553
 6094TIP3    H239774   6.338   5.156   1.865 -0.0924  0.2957 -0.4078
 6095TIP3   OH239775   6.754   6.671   3.518 -0.7595 -0.2474  0.5873
 6095TIP3    H139776   6.835   6.707   3.480 -0.3103 -0.2249  1.5361
 6095TIP3    H239777   6.784   6.616   3.590 -1.5351 -1.2683  0.1460
 6096TIP3   OH239778   6.449   2.559   0.302  0.0243  0.1443  0.3307
 6096TIP3    H139779   6.444   2.566   0.397 -0.2062 -0.1312  0.3417
 6096TIP3    H239780   6.424   2.468   0.283 -2.7429  0.9006 -0.1767
 6097TIP3   OH239781   0.003   0.403   1.641 -0.5173 -0.6686 -0.2696
 6097TIP3    H139782  -0.055   0.473   1.611  0.2356 -0.0130 -0.2214
 6097TIP3    H239783   0.010   0.416   1.735 -0.3800 -0.8172 -0.2585
 6098TIP3   OH239784   1.285   4.640   5.831 -0.1390 -0.8354  0.0471
 6098TIP3    H139785   1.313   4.624   5.741  0.3683  1.0018 -0.1586
 6098TIP3    H239786   1.192   4.617   5.832 -0.0583 -1.2336 -0.8451
 6099TIP3   OH239787   2.924   1.796   2.234 -0.4677  0.2477  0.3347
 6099TIP3    H139788   2.919   1.890   2.250 -2.1728  0.1083  0.7991
 6099TIP3    H239789   2.990   1.764   2.295 -0.4159  1.0333  0.6958
 6100TIP3   OH239790   0.981   0.921  14.422  0.0011  0.4314 -0.8617
 6100TIP3    H139791   1.057   0.954  14.373  0.0303 -0.9337 -1.7768
 6100TIP3    H239792   0.974   0.829  14.397 -0.4318 -0.1304  1.1909
 6101TIP3   OH239793   3.683   1.062   1.313 -0.2463  1.0827  0.3124
 6101TIP3    H139794   3.696   0.967   1.309 -0.9765  0.8985  1.6450
 6101TIP3    H239795   3.694   1.092   1.223 -2.5817 -0.6108 -0.6154
 6102TIP3   OH239796   3.968   1.460  14.853  0.0238  0.3941  0.1874
 6102TIP3    H139797   3.886   1.431  14.814 -0.0968  0.7201  0.1998
 6102TIP3    H239798   4.000   1.384  14.901  0.6556 -0.3307 -1.3288
 6103TIP3   OH239799   2.256   5.624  10.950 -0.3174 -0.2631 -0.4944
 6103TIP3    H139800   2.344   5.592  10.932  0.9501  2.1446  0.8688
 6103TIP3    H239801   2.258   5.645  11.044 -2.3425 -0.1139 -0.4544
 6104TIP3   OH239802   4.862   2.018   6.539  0.2209 -0.1548  0.0338
 6104TIP3    H139803   4.877   2.097   6.590  0.4702  0.4426 -0.9401
 6104TIP3    H239804   4.852   2.049   6.449 -0.6251 -1.1418 -0.2309
 6105TIP3   OH239805   6.069   5.039  16.833 -0.6835  0.4210  0.6447
 6105TIP3    H139806   5.991   4.989  16.854 -0.2020 -0.7034 -0.1475
 6105TIP3    H239807   6.038   5.109  16.776 -1.1897  0.2828  0.7489
 6106TIP3   OH239808   5.902   2.150  12.745 -0.3320 -0.0094  0.3616
 6106TIP3    H139809   5.812   2.182  12.750 -0.3416 -0.1663  1.3139
 6106TIP3    H239810   5.955   2.229  12.732 -0.6699 -0.0108 -1.3327
 6107TIP3   OH239811   1.189   3.563   4.345 -0.2366  0.2555 -0.2267
 6107TIP3    H139812   1.263   3.620   4.366  0.2015 -0.4825  0.2547
 6107TIP3    H239813   1.227   3.492   4.293 -1.0626  1.2957 -2.3913
 6108TIP3   OH239814   3.882   1.027  13.973  0.0986 -0.2067  0.7815
 6108TIP3    H139815   3.794   0.995  13.951  0.0985 -0.4765  1.1669
 6108TIP3    H239816   3.938   0.951  13.964  0.2282 -0.1284  0.9241
 6109TIP3   OH239817   3.557   0.974  16.188 -0.2540  0.2666 -0.3174
 6109TIP3    H139818   3.499   0.910  16.145 -0.9120 -0.5280  1.6294
 6109TIP3    H239819   3.524   1.059  16.158 -1.5810 -0.2097 -0.3090
 6110TIP3   OH239820   0.059   0.940   4.227  0.2187 -0.2713  0.3610
 6110TIP3    H139821   0.117   0.993   4.281 -0.8910 -0.2662  1.6076
 6110TIP3    H239822  -0.026   0.983   4.234 -0.4027 -1.4437  0.2837
 6111TIP3   OH239823   1.110   2.968   4.864  0.2629 -0.4101  0.1472
 6111TIP3    H139824   1.148   2.983   4.951  0.3847 -1.3238  0.2685
 6111TIP3    H239825   1.177   2.918   4.817  0.1992  0.0830 -0.4790
 6112TIP3   OH239826   3.680   4.238  12.889  1.3278 -0.1335 -0.4975
 6112TIP3    H139827   3.587   4.260  12.891  1.7490  1.8188 -0.4793
 6112TIP3    H239828   3.690   4.185  12.811  0.4448  1.0026 -1.4296
 6113TIP3   OH239829   0.079   2.450   5.094  0.1498 -0.3034 -0.5274
 6113TIP3    H139830   0.000   2.486   5.054 -0.1624 -1.2743 -0.8168
 6113TIP3    H239831   0.139   2.435   5.021  0.0120 -1.0184 -0.4959
 6114TIP3   OH239832   6.632   1.628   5.280 -0.6785  0.1709 -0.2601
 6114TIP3    H139833   6.589   1.587   5.355  1.2897  0.5630  1.1540
 6114TIP3    H239834   6.699   1.685   5.318  0.2674  0.5369 -2.3093
 6115TIP3   OH239835   4.988   2.323   0.532  0.0446  0.3423 -0.0315
 6115TIP3    H139836   4.906   2.336   0.485 -0.0722  0.7822  0.2878
 6115TIP3    H239837   5.036   2.258   0.480 -1.2178 -1.2249  0.7018
 6116TIP3   OH239838   3.206   0.484  13.820 -0.2332  0.0514  0.7161
 6116TIP3    H139839   3.279   0.546  13.823  0.4722 -0.7435  0.3522
 6116TIP3    H239840   3.128   0.539  13.831  0.4512  0.7918  2.1361
 6117TIP3   OH239841   1.497   5.068   3.059 -0.4429  0.0379  0.0474
 6117TIP3    H139842   1.471   5.130   3.127 -0.6356  0.9767 -0.8533
 6117TIP3    H239843   1.416   5.046   3.014 -0.2763 -0.3514 -0.0662
 6118TIP3   OH239844   4.249   0.761   2.173  0.1144  0.3260 -0.2920
 6118TIP3    H139845   4.336   0.781   2.138  0.8305 -0.5249  0.9081
 6118TIP3    H239846   4.255   0.669   2.202 -1.6524 -0.2341 -1.5201
 6119TIP3   OH239847   5.062   2.610   6.035  0.2985 -0.0645 -0.7196
 6119TIP3    H139848   5.124   2.609   6.109  0.1458  2.5667 -0.4684
 6119TIP3    H239849   4.998   2.677   6.058 -0.3117  0.1533 -2.8282
 6120TIP3   OH239850   2.508   1.195  16.067  0.6120  0.3609 -0.2667
 6120TIP3    H139851   2.473   1.254  16.134  1.4808 -0.3601  0.8615
 6120TIP3    H239852   2.484   1.236  15.984  2.1467  2.9122  0.4424
 6121TIP3   OH239853   5.951   5.394  11.648 -0.1176 -0.4263  0.3772
 6121TIP3    H139854   5.925   5.342  11.572 -0.6267  0.2908  0.0401
 6121TIP3    H239855   5.924   5.342  11.724  2.0419 -1.9978  0.1478
 6122TIP3   OH239856   6.128   2.240   2.532 -0.1284  0.3025 -0.5130
 6122TIP3    H139857   6.163   2.191   2.606 -3.7565 -0.2075  1.1129
 6122TIP3    H239858   6.090   2.319   2.571 -2.8913 -0.3800 -1.5721
 6123TIP3   OH239859   3.843   1.294   3.683 -0.2547 -0.0085 -0.0921
 6123TIP3    H139860   3.749   1.282   3.699 -0.0965 -0.4618  0.5200
 6123TIP3    H239861   3.858   1.387   3.696 -0.5451 -0.0056  0.2268
 6124TIP3   OH239862   0.703   3.778  11.031 -0.6417  0.2900  0.3333
 6124TIP3    H139863   0.741   3.859  10.997  0.1924  0.0499  0.6705
 6124TIP3    H239864   0.608   3.791  11.023 -0.5109  1.1657  0.0828
 6125TIP3   OH239865   2.388   4.592  15.217  0.0270 -0.3490 -0.2324
 6125TIP3    H139866   2.448   4.537  15.167 -1.0314 -1.7957  0.0195
 6125TIP3    H239867   2.394   4.558  15.306 -1.7086 -1.0709 -0.3498
 6126TIP3   OH239868   0.665   2.041   5.421  0.6930  0.9181  0.0655
 6126TIP3    H139869   0.610   2.092   5.480  1.0635  1.2389  0.1353
 6126TIP3    H239870   0.640   2.070   5.334 -1.0992 -0.7919 -0.0491
 6127TIP3   OH239871   0.911   2.800  12.230 -0.4597 -0.0603 -0.2867
 6127TIP3    H139872   0.818   2.781  12.245 -0.7248  0.1768 -1.5586
 6127TIP3    H239873   0.948   2.716  12.202 -0.6028  0.1531 -1.1507
 6128TIP3   OH239874   1.834   5.007  15.444 -0.2006 -0.0666 -0.5697
 6128TIP3    H139875   1.753   5.058  15.436  0.2918  0.8268 -0.0874
 6128TIP3    H239876   1.815   4.940  15.509 -0.7763 -0.3250 -1.0007
 6129TIP3   OH239877   2.911   1.565   3.375 -0.4968 -0.0426 -0.4698
 6129TIP3    H139878   2.900   1.499   3.444 -0.5773  1.2605  0.8234
 6129TIP3    H239879   2.914   1.515   3.294  1.5390 -1.8391  0.6002
 6130TIP3   OH239880   1.061   3.960   1.119  0.6018 -0.0587 -0.0907
 6130TIP3    H139881   0.969   3.945   1.140  0.6102 -0.6655 -0.4506
 6130TIP3    H239882   1.098   3.998   1.198 -0.1972  1.1978 -0.3006
 6131TIP3   OH239883   3.541   2.399   1.392  0.3858 -0.5185 -0.0415
 6131TIP3    H139884   3.534   2.386   1.487 -2.2866  0.4128 -0.0308
 6131TIP3    H239885   3.579   2.486   1.383 -1.5553  0.4235  0.2927
 6132TIP3   OH239886   5.090   1.715  14.382 -0.1105 -0.7887 -0.5351
 6132TIP3    H139887   5.130   1.690  14.465 -3.3088 -0.6850  1.1959
 6132TIP3    H239888   5.108   1.641  14.324  1.6912 -1.1411  0.3969
 6133TIP3   OH239889   3.465   1.054  15.731  0.4187  0.2475 -0.5863
 6133TIP3    H139890   3.380   1.011  15.720  1.0581 -1.1708 -0.2274
 6133TIP3    H239891   3.453   1.142  15.694 -1.3137  0.2238 -0.1415
 6134TIP3   OH239892   4.073   6.191  15.624 -0.2189  0.5232  0.0889
 6134TIP3    H139893   3.985   6.225  15.641 -0.3659 -0.4332  1.4488
 6134TIP3    H239894   4.064   6.140  15.544 -1.3551 -1.0328  1.1573
 6135TIP3   OH239895   1.577   1.374  13.314 -0.6936  0.2995 -0.4771
 6135TIP3    H139896   1.504   1.349  13.257  0.0364  0.4603 -1.5070
 6135TIP3    H239897   1.652   1.327  13.278 -0.3348 -0.0883  0.7467
 6136TIP3   OH239898   4.711   3.536  14.463  0.0409 -0.2322  0.1427
 6136TIP3    H139899   4.758   3.516  14.544 -0.5338 -0.2434  0.4802
 6136TIP3    H239900   4.644   3.600  14.489  0.0975  0.0540 -0.3987
 6137TIP3   OH239901   6.404   2.299   0.171  0.4822  0.4960 -0.1583
 6137TIP3    H139902   6.341   2.328   0.105  0.0554  0.7452  0.3489
 6137TIP3    H239903   6.479   2.267   0.121  0.1815  0.7234 -0.7588
 6138TIP3   OH239904   2.507   3.868  15.410 -0.1031  0.7613  0.4749
 6138TIP3    H139905   2.539   3.847  15.498  0.3523  2.1565  0.6737
 6138TIP3    H239906   2.414   3.888  15.423  0.2571  2.3463  0.9355
 6139TIP3   OH239907   2.411   6.130  14.385  0.5102  0.2947  0.0215
 6139TIP3    H139908   2.333   6.075  14.392  1.9304 -1.7734  0.5678
 6139TIP3    H239909   2.420   6.146  14.291 -0.1279 -0.1523 -0.1240
 6140TIP3   OH239910   1.823   0.914   5.773  0.3017  0.5869 -0.0373
 6140TIP3    H139911   1.853   0.997   5.811  3.4711  1.4724 -3.8564
 6140TIP3    H239912   1.856   0.847   5.833  0.5979  1.9530  1.4110
 6141TIP3   OH239913   5.040   0.340  15.823  0.0306 -0.0133  0.3772
 6141TIP3    H139914   5.114   0.283  15.806  0.5790  0.4468  1.1847
 6141TIP3    H239915   4.965   0.294  15.784  1.0798  0.6702 -2.6764
 6142TIP3   OH239916   0.934   1.430   5.025 -0.0417  0.2744  0.3999
 6142TIP3    H139917   0.906   1.345   5.060 -0.3614 -0.0079 -0.5143
 6142TIP3    H239918   0.853   1.472   4.997  0.2358  0.3319 -0.3380
 6143TIP3   OH239919   2.020   3.912  11.554 -0.6101  0.3795 -0.0193
 6143TIP3    H139920   1.957   3.840  11.563 -0.6027  0.5358  1.7383
 6143TIP3    H239921   1.975   3.977  11.499 -1.1996 -0.3300 -0.4011
 6144TIP3   OH239922   2.919   0.041   4.771 -0.5181  0.3259  0.5351
 6144TIP3    H139923   2.918   0.102   4.697 -0.3481 -0.8326 -0.4539
 6144TIP3    H239924   3.004  -0.003   4.765 -1.1813 -1.0034  0.3449
 6145TIP3   OH239925   1.113   5.419   2.242  0.2193 -0.2170  0.1230
 6145TIP3    H139926   1.111   5.512   2.217  0.2475 -0.1913  0.2175
 6145TIP3    H239927   1.157   5.376   2.168  2.3447  0.1665  1.0889
 6146TIP3   OH239928   4.631   1.895  17.119 -0.0644  0.1317 -0.0461
 6146TIP3    H139929   4.565   1.929  17.060 -0.6987 -1.0352 -0.0324
 6146TIP3    H239930   4.587   1.826  17.168  0.7609  0.3070  0.9887
 6147TIP3   OH239931   0.823   5.821   2.585 -0.0814 -0.5116  0.9438
 6147TIP3    H139932   0.831   5.753   2.652 -0.2944 -1.6875 -0.1782
 6147TIP3    H239933   0.734   5.812   2.553  0.3216 -0.6336 -0.1740
 6148TIP3   OH239934   2.939   6.804   2.638  0.5637 -0.2459 -0.1334
 6148TIP3    H139935   2.880   6.828   2.710 -0.6977  1.2586 -1.5647
 6148TIP3    H239936   2.921   6.712   2.621 -0.4198 -0.1570  0.3504
 6149TIP3   OH239937   2.314   4.268  13.099  0.1571 -0.6332 -0.0192
 6149TIP3    H139938   2.297   4.251  13.006  0.4745 -0.6957 -0.0667
 6149TIP3    H239939   2.383   4.206  13.122 -0.3609 -1.0632  0.4218
 6150TIP3   OH239940   1.898   5.077   4.144 -0.4742 -0.3401  0.0607
 6150TIP3    H139941   1.857   4.993   4.165  0.7505 -0.5254  1.9685
 6150TIP3    H239942   1.925   5.069   4.053  1.2371 -2.7802  0.6802
 6151TIP3   OH239943   4.030   0.367   4.379 -0.2462 -0.1822  0.3417
 6151TIP3    H139944   4.073   0.303   4.436  0.4955  0.5284  0.5890
 6151TIP3    H239945   4.094   0.383   4.309 -0.8580 -0.5016 -0.3126
 6152TIP3   OH239946   0.541   6.741   5.625 -0.0389  0.1415  0.8155
 6152TIP3    H139947   0.588   6.764   5.545 -0.2312  0.6895  0.8559
 6152TIP3    H239948   0.529   6.824   5.671 -0.1736 -0.1286  1.2851
 6153TIP3   OH239949   5.891   3.523  16.612 -1.0358 -0.4570 -0.0620
 6153TIP3    H139950   5.920   3.579  16.684 -3.1308 -1.9856  2.1349
 6153TIP3    H239951   5.849   3.583  16.551  2.3977  1.1491 -1.0985
 6154TIP3   OH239952   4.131   4.602   5.023  0.0659 -0.6312 -0.2145
 6154TIP3    H139953   4.121   4.522   5.075  4.0554 -0.8984  0.4892
 6154TIP3    H239954   4.089   4.670   5.075 -2.0178 -1.9464 -0.0633
 6155TIP3   OH239955   3.008   4.221  14.340 -0.4238 -0.0977  0.4240
 6155TIP3    H139956   2.977   4.210  14.430 -0.6852 -0.8797  0.2493
 6155TIP3    H239957   3.022   4.315  14.331 -0.8820  0.0505  1.1233
 6156TIP3   OH239958   6.026   4.780   5.330 -0.6808 -0.4570  0.7134
 6156TIP3    H139959   5.952   4.796   5.389 -1.2634  1.6108 -0.4963
 6156TIP3    H239960   6.092   4.739   5.386 -1.3816  0.9719  2.7046
 6157TIP3   OH239961   3.960   6.370   2.314  0.3133 -0.0497 -0.2085
 6157TIP3    H139962   3.947   6.429   2.240  0.0802 -1.4118 -1.2890
 6157TIP3    H239963   3.922   6.287   2.286  0.3596 -0.6446  1.3898
 6158TIP3   OH239964   3.092   4.935  11.604  0.5563 -0.0963 -0.4347
 6158TIP3    H139965   3.045   4.859  11.639  0.8302 -0.1397 -0.1542
 6158TIP3    H239966   3.130   4.905  11.521  1.7350 -0.6654  0.2823
 6159TIP3   OH239967   3.336   0.199  15.698 -0.0933  0.0814 -0.3213
 6159TIP3    H139968   3.280   0.269  15.732 -0.1943 -0.7590  1.3805
 6159TIP3    H239969   3.423   0.239  15.691  0.1473  0.0931  1.9191
 6160TIP3   OH239970   1.650   1.482  10.959  0.4589 -0.1712 -0.3291
 6160TIP3    H139971   1.696   1.451  10.881  1.6143  0.5554  0.0457
 6160TIP3    H239972   1.703   1.451  11.033  0.0243  0.1719  0.1323
 6161TIP3   OH239973   3.477   2.857  11.502  0.1832 -0.4585 -0.2313
 6161TIP3    H139974   3.558   2.866  11.452 -0.2335 -0.8626 -0.9998
 6161TIP3    H239975   3.474   2.764  11.527 -0.3479 -0.5870 -0.7509
 6162TIP3   OH239976   2.594   0.872   2.028 -0.1655  0.2808  0.3123
 6162TIP3    H139977   2.683   0.898   2.054  1.0435 -2.9961 -0.1279
 6162TIP3    H239978   2.547   0.955   2.022  2.6974  2.1421  1.0337
 6163TIP3   OH239979   0.588   3.247   0.412  0.2694 -0.4800 -0.1568
 6163TIP3    H139980   0.502   3.289   0.421  0.2482 -0.8910  2.2406
 6163TIP3    H239981   0.584   3.204   0.327 -0.6981  2.0654 -1.5157
 6164TIP3   OH239982   5.947   4.583  11.074 -0.1044  0.2069 -0.6688
 6164TIP3    H139983   5.907   4.635  11.143  0.5170  1.1088 -0.9636
 6164TIP3    H239984   5.944   4.640  10.997 -1.2121 -0.9593 -1.5232
 6165TIP3   OH239985   3.643   0.400   2.530 -0.0635  0.3764 -0.1368
 6165TIP3    H139986   3.622   0.494   2.530 -3.6639 -0.2931 -0.5082
 6165TIP3    H239987   3.662   0.380   2.439  2.9492  1.0552  0.2479
 6166TIP3   OH239988   5.825   3.934   0.829  0.3669 -0.7857  0.0286
 6166TIP3    H139989   5.829   3.940   0.924  1.9912 -0.2846 -0.0352
 6166TIP3    H239990   5.856   3.845   0.809 -1.7087 -1.5497  0.0120
 6167TIP3   OH239991   5.284   5.996   5.500  0.1755  0.6261  0.4006
 6167TIP3    H139992   5.189   5.997   5.515  0.0458 -0.2461 -0.2980
 6167TIP3    H239993   5.316   5.925   5.555  0.2886  0.3055 -0.0733
 6168TIP3   OH239994   5.530   1.611   6.265 -0.0547 -0.5991  0.3119
 6168TIP3    H139995   5.577   1.562   6.332  1.5259  2.1720  1.3814
 6168TIP3    H239996   5.534   1.702   6.294 -0.0366  0.6441 -3.0993
 6169TIP3   OH239997   0.837   1.187  12.919  0.3461  0.4675 -0.3147
 6169TIP3    H139998   0.930   1.180  12.898  0.5661 -0.4175  0.8611
 6169TIP3    H239999   0.833   1.255  12.988  0.4015 -0.8806  1.0732
 6170TIP3   OH240000   2.352   1.281   1.668  0.4151 -0.4292  0.5190
 6170TIP3    H140001   2.332   1.249   1.756 -1.7815 -0.0854  0.1830
 6170TIP3    H240002   2.444   1.257   1.655  0.5249 -1.3155  2.5366
 6171TIP3   OH240003   6.574   0.293   2.327 -0.0049 -0.1552 -0.2350
 6171TIP3    H140004   6.514   0.368   2.332  1.3304  0.8907  1.2141
 6171TIP3    H240005   6.608   0.294   2.238 -0.1906  0.8301 -0.2982
 6172TIP3   OH240006   2.774   5.446   0.673 -0.2539  0.0241  0.2509
 6172TIP3    H140007   2.834   5.511   0.711 -2.0346  1.2756  1.0616
 6172TIP3    H240008   2.747   5.393   0.748 -1.6292  0.7234  0.2743
 6173TIP3   OH240009   2.294   5.609  13.867  0.5255 -0.5143 -0.0073
 6173TIP3    H140010   2.342   5.669  13.811  0.8353 -0.1096  0.6793
 6173TIP3    H240011   2.254   5.546  13.807  0.6996  0.0171 -0.6868
 6174TIP3   OH240012   2.425   3.179   0.148  0.5097 -0.0032  0.2383
 6174TIP3    H140013   2.447   3.266   0.116 -1.2878  0.0950 -0.8887
 6174TIP3    H240014   2.387   3.135   0.072 -2.1561 -0.4287  1.6959
 6175TIP3   OH240015   2.658   2.262   4.593  0.2539  0.0317 -0.0650
 6175TIP3    H140016   2.603   2.214   4.656 -1.7898  3.5402  1.1619
 6175TIP3    H240017   2.612   2.254   4.510 -0.5408  0.4532  0.3170
 6176TIP3   OH240018   0.699   4.846  13.276 -0.5298  0.8335 -0.0583
 6176TIP3    H140019   0.777   4.803  13.312 -1.8188  0.8946  3.1757
 6176TIP3    H240020   0.723   4.939  13.273  0.5117  0.5433 -2.1050
 6177TIP3   OH240021   6.092   6.577   0.300  0.2716 -0.3638  0.1386
 6177TIP3    H140022   6.130   6.648   0.351  0.9584 -0.8962  0.3712
 6177TIP3    H240023   6.003   6.607   0.280  0.7208  0.7810 -0.2081
 6178TIP3   OH240024   6.653   4.142   3.803  0.8913  0.8016  0.5155
 6178TIP3    H140025   6.577   4.119   3.750  1.3503  0.8687 -0.1892
 6178TIP3    H240026   6.635   4.104   3.889 -0.8868  2.6009  0.9959
 6179TIP3   OH240027   3.491   1.200   6.366 -0.7630 -0.1304  0.0184
 6179TIP3    H140028   3.526   1.238   6.285  0.1774  0.3651  0.6426
 6179TIP3    H240029   3.545   1.237   6.436 -1.2586 -0.9128  0.8433
 6180TIP3   OH240030   3.275   5.074  17.008 -0.3168  0.2469 -0.6763
 6180TIP3    H140031   3.320   5.099  16.927  0.2349 -0.7338 -0.6737
 6180TIP3    H240032   3.334   5.102  17.078  0.2360 -0.8931 -0.6708
 6181TIP3   OH240033   2.650   1.480  17.253 -0.4449  0.0864  0.1281
 6181TIP3    H140034   2.628   1.393  17.220 -1.3260  0.7568 -1.1438
 6181TIP3    H240035   2.739   1.471  17.287 -0.4146 -1.2395 -0.2320
 6182TIP3   OH240036   6.195   2.756   1.033 -0.0306 -0.8654  0.1608
 6182TIP3    H140037   6.163   2.693   1.097  0.6785 -1.0716  0.3168
 6182TIP3    H240038   6.230   2.828   1.086  2.9304 -2.1625  0.1270
 6183TIP3   OH240039   1.784   4.302   0.478  0.2488 -0.1996  0.0180
 6183TIP3    H140040   1.709   4.260   0.434 -1.5247  2.7832 -0.0633
 6183TIP3    H240041   1.855   4.295   0.414 -0.8475 -0.3741 -1.2440
 6184TIP3   OH240042   1.431   3.053  14.419  0.2842  0.0146 -0.1379
 6184TIP3    H140043   1.466   2.965  14.406  0.4519  0.0156  0.2903
 6184TIP3    H240044   1.377   3.046  14.497 -0.0676  0.1892 -0.3627
 6185TIP3   OH240045   5.418   4.795  14.891 -0.6794  0.0976 -0.0580
 6185TIP3    H140046   5.485   4.733  14.919  0.2126  1.0036 -0.1151
 6185TIP3    H240047   5.453   4.880  14.917 -2.2137  0.5249  0.6763
 6186TIP3   OH240048   6.390   1.034   5.721 -0.8753 -0.0113  0.0699
 6186TIP3    H140049   6.394   0.953   5.773  0.5491 -0.0513 -0.0397
 6186TIP3    H240050   6.398   1.104   5.786  0.5293 -0.0522 -0.0228
 6187TIP3   OH240051   5.009   1.953   6.174  0.3619  0.3316 -0.2655
 6187TIP3    H140052   5.031   1.863   6.199  1.8021  0.5005 -0.8539
 6187TIP3    H240053   5.051   1.965   6.089  0.6738  1.7500  0.0665
 6188TIP3   OH240054   2.576   3.738  13.342  0.4271 -0.3614  0.0326
 6188TIP3    H140055   2.487   3.747  13.308 -0.1797 -0.7339  1.4384
 6188TIP3    H240056   2.602   3.827  13.365 -0.0341 -0.3916  0.6869
 6189TIP3   OH240057   4.122   2.802   1.048 -0.0919  0.0461  0.4942
 6189TIP3    H140058   4.059   2.869   1.020  0.2062 -0.1755 -0.7666
 6189TIP3    H240059   4.169   2.843   1.121  0.5997  1.5523 -0.7169
 6190TIP3   OH240060   0.588   0.733  13.460 -0.0937 -0.1079  0.6339
 6190TIP3    H140061   0.647   0.683  13.517 -0.3849 -1.3516 -0.1445
 6190TIP3    H240062   0.647   0.782  13.403  0.3149 -2.9736 -1.6078
 6191TIP3   OH240063   5.932   5.836  13.763 -0.0898 -0.5828 -0.3052
 6191TIP3    H140064   5.959   5.908  13.819 -0.2830 -1.6491  1.2409
 6191TIP3    H240065   5.836   5.839  13.765 -0.1692  0.8002 -2.5755
 6192TIP3   OH240066   1.443   2.408   2.391 -0.2197 -0.3179  0.2993
 6192TIP3    H140067   1.446   2.320   2.353  0.6449  0.1059 -0.6663
 6192TIP3    H240068   1.526   2.416   2.438  0.5600  0.6022 -1.1387
 6193TIP3   OH240069   0.757   1.362  14.946  0.0634 -0.5244 -0.7262
 6193TIP3    H140070   0.836   1.377  14.998 -1.3994  1.6938  1.0675
 6193TIP3    H240071   0.685   1.385  15.004 -1.9130 -1.7088 -2.5421
 6194TIP3   OH240072   4.128   5.586   3.902  0.5536  0.0324 -0.2962
 6194TIP3    H140073   4.143   5.597   3.808  0.0862  0.5091 -0.3149
 6194TIP3    H240074   4.092   5.498   3.910  1.4452 -0.3628 -0.4628
 6195TIP3   OH240075   6.018   4.955  15.758  0.7472 -0.2081 -0.7921
 6195TIP3    H140076   6.089   5.019  15.769  0.2203  0.1422  0.7622
 6195TIP3    H240077   5.946   5.005  15.722  0.2695  0.1583  0.6078
 6196TIP3   OH240078   2.978   2.558   1.551  0.0075 -0.6239  0.2230
 6196TIP3    H140079   3.033   2.634   1.533 -1.4566  0.3456 -0.2806
 6196TIP3    H240080   2.900   2.594   1.592 -1.2703 -1.6945 -1.1595
 6197TIP3   OH240081   2.023   4.836   5.307 -0.0922  0.2523 -0.1994
 6197TIP3    H140082   1.933   4.869   5.295 -0.0312 -0.2401 -2.2707
 6197TIP3    H240083   2.077   4.894   5.254  0.5354 -0.7656 -0.6873
 6198TIP3   OH240084   1.681   4.293   2.581 -0.2875  0.1096 -0.1698
 6198TIP3    H140085   1.664   4.380   2.617  0.3394  0.0739  0.2146
 6198TIP3    H240086   1.766   4.268   2.616 -1.1738 -1.3754  1.0827
 6199TIP3   OH240087   1.250   0.495   6.403  0.2262  0.3823  0.3739
 6199TIP3    H140088   1.197   0.447   6.340 -1.1986 -0.3687  2.0462
 6199TIP3    H240089   1.276   0.430   6.467 -0.7155  1.5549  2.0361
 6200TIP3   OH240090   2.876   6.261  14.641  0.4167  0.3724  0.1487
 6200TIP3    H140091   2.946   6.243  14.578 -0.1410  0.2444 -0.4491
 6200TIP3    H240092   2.921   6.291  14.720  1.1882 -0.4493  0.0397
 6201TIP3   OH240093   1.721   1.912   1.652  0.3075  0.2973 -0.0472
 6201TIP3    H140094   1.798   1.955   1.688  1.7978 -1.9648 -0.3858
 6201TIP3    H240095   1.652   1.929   1.717  1.5063  0.9476  1.0907
 6202TIP3   OH240096   2.216   3.656  16.297  0.6148 -0.6410 -0.2741
 6202TIP3    H140097   2.219   3.679  16.204 -1.0415 -0.6550 -0.3668
 6202TIP3    H240098   2.142   3.705  16.331  0.0747 -2.0253  0.6239
 6203TIP3   OH240099   2.557   0.938  11.402 -0.5726  0.1555  0.2911
 6203TIP3    H140100   2.641   0.913  11.440 -1.1544 -0.3273  1.2951
 6203TIP3    H240101   2.560   0.905  11.313  0.4862  0.5579  0.1674
 6204TIP3   OH240102   2.698   5.449  14.865  0.0748  0.1478  0.5646
 6204TIP3    H140103   2.704   5.424  14.958 -0.6138 -3.0418 -0.1126
 6204TIP3    H240104   2.606   5.469  14.851  0.2297  0.9175  0.6088
 6205TIP3   OH240105   5.906   3.012  11.135 -0.2465  0.1889  0.5201
 6205TIP3    H140106   5.818   3.033  11.169  0.1170  1.5504  0.6773
 6205TIP3    H240107   5.930   3.089  11.083 -0.0765 -1.1266 -1.4482
 6206TIP3   OH240108   6.417   3.509  16.990 -0.0805  0.3834 -0.0567
 6206TIP3    H140109   6.360   3.499  16.914 -0.7510 -1.0502  0.6045
 6206TIP3    H240110   6.366   3.562  17.052  1.2248  3.3416 -1.2863
 6207TIP3   OH240111   0.619   6.746   2.321  0.1134  0.0564 -0.6905
 6207TIP3    H140112   0.528   6.716   2.328 -0.4490  1.9186  0.8033
 6207TIP3    H240113   0.613   6.830   2.277  1.0518  0.4566 -0.0688
 6208TIP3   OH240114   2.851   3.707   0.836 -0.0321 -0.0740  0.5485
 6208TIP3    H140115   2.875   3.788   0.791  2.5343 -1.0151  0.0503
 6208TIP3    H240116   2.881   3.637   0.779 -1.5355 -1.4121  1.3004
 6209TIP3   OH240117   0.240   4.967  15.791 -0.5765 -0.0833  0.0361
 6209TIP3    H140118   0.307   4.967  15.723 -1.4116  2.8131 -0.9453
 6209TIP3    H240119   0.288   4.977  15.873  0.3000  0.1401 -0.4959
 6210TIP3   OH240120   2.170   4.355  16.380 -0.2080 -0.0687 -0.0358
 6210TIP3    H140121   2.113   4.425  16.347  0.0425 -0.0397 -0.4244
 6210TIP3    H240122   2.213   4.321  16.301  0.8336  0.3816  0.3186
 6211TIP3   OH240123   6.122   4.937   1.234  0.6819 -0.4577  0.6864
 6211TIP3    H140124   6.171   4.897   1.306  0.7816  1.9363  2.0654
 6211TIP3    H240125   6.061   4.997   1.277 -0.1632  0.1057 -1.1973
 6212TIP3   OH240126   3.477   4.160   2.827 -0.3176 -0.4670  0.6472
 6212TIP3    H140127   3.551   4.126   2.877  1.6566 -1.4214 -2.6253
 6212TIP3    H240128   3.516   4.218   2.761 -2.6704  0.3702 -0.1423
 6213TIP3   OH240129   3.282   2.039  12.932 -0.4276  0.3678 -0.2060
 6213TIP3    H140130   3.225   2.073  13.000 -0.1605 -0.1750  0.3028
 6213TIP3    H240131   3.271   2.099  12.858 -0.6005  1.0520  0.3704
 6214TIP3   OH240132   5.811   1.080  13.838  0.6947  0.5809 -0.1525
 6214TIP3    H140133   5.866   1.152  13.806  0.5248  0.5998 -0.4077
 6214TIP3    H240134   5.791   1.104  13.929 -1.1903  2.0110 -0.8593
 6215TIP3   OH240135   3.581   2.559   4.281  0.2146  0.5845  0.3647
 6215TIP3    H140136   3.618   2.479   4.317  0.6508  0.8752  0.5712
 6215TIP3    H240137   3.643   2.586   4.213 -0.4717  0.1784 -0.4354
 6216TIP3   OH240138   4.245   2.759  15.396 -0.4602  0.3496  0.8059
 6216TIP3    H140139   4.301   2.822  15.349  0.4211 -0.5293  0.6453
 6216TIP3    H240140   4.170   2.746  15.339  0.4007 -0.3952 -0.1995
 6217TIP3   OH240141   0.251   2.649  16.257  0.3492  0.2507 -0.1465
 6217TIP3    H140142   0.185   2.604  16.310  1.0656 -0.1404  0.4418
 6217TIP3    H240143   0.288   2.714  16.316  1.7407 -0.7491  0.1393
 6218TIP3   OH240144   3.860   4.531  10.596  0.3937 -0.6335  0.1459
 6218TIP3    H140145   3.765   4.520  10.605  0.1152  1.3711 -0.0361
 6218TIP3    H240146   3.884   4.592  10.665  1.0303  1.2762 -1.6817
 6219TIP3   OH240147   6.416   0.559  16.909 -0.0758  0.3096 -0.3507
 6219TIP3    H140148   6.466   0.634  16.941 -0.9781  0.5914  0.4550
 6219TIP3    H240149   6.473   0.519  16.843  1.7607 -0.1038  1.3693
 6220TIP3   OH240150   5.858   6.346  14.565 -0.7153 -0.0376  0.1770
 6220TIP3    H140151   5.891   6.408  14.500 -1.0169  0.8891  0.8878
 6220TIP3    H240152   5.928   6.282  14.574  1.3827  2.3287  2.2899
 6221TIP3   OH240153   4.537   4.790   4.818  0.0217  0.0411  0.6276
 6221TIP3    H140154   4.450   4.822   4.793  0.4074 -0.9849 -2.3683
 6221TIP3    H240155   4.522   4.742   4.900 -2.1181  0.2826  0.4394
 6222TIP3   OH240156   3.671   2.092  11.429  0.4066  0.2393  0.0639
 6222TIP3    H140157   3.693   2.128  11.343  0.3355  0.0584 -0.0317
 6222TIP3    H240158   3.579   2.068  11.422  0.4850 -0.0754  0.0831
 6223TIP3   OH240159   4.348   2.747  13.983 -0.3021 -0.4431 -0.8488
 6223TIP3    H140160   4.405   2.793  14.045  0.6932 -0.0259 -2.0153
 6223TIP3    H240161   4.300   2.684  14.036  2.1263 -1.6523  0.0785
 6224TIP3   OH240162   0.878   0.732   1.330  0.0305  0.0800 -0.2453
 6224TIP3    H140163   0.958   0.781   1.310  0.9290 -2.1829 -2.6969
 6224TIP3    H240164   0.909   0.645   1.354 -1.6714 -0.6349 -0.5452
 6225TIP3   OH240165   1.548   5.249  15.426 -0.5058  0.1355  0.2171
 6225TIP3    H140166   1.628   5.248  15.373  0.3082  0.9563  1.3974
 6225TIP3    H240167   1.533   5.341  15.446 -1.7783 -0.0089 -0.0088
 6226TIP3   OH240168   0.445   5.024   2.518  0.0246 -0.2957 -0.3900
 6226TIP3    H140169   0.391   5.056   2.446  0.1425 -1.0598 -0.8342
 6226TIP3    H240170   0.482   4.942   2.485  0.8448 -0.1691  0.1881
 6227TIP3   OH240171   6.002   2.509  11.504  0.3040 -0.3528  0.0627
 6227TIP3    H140172   5.932   2.497  11.440  1.7258 -0.1425 -1.6203
 6227TIP3    H240173   5.976   2.456  11.579 -3.0913  2.0085  0.7838
 6228TIP3   OH240174   2.976   5.933   4.067 -0.6424  0.8525  0.0591
 6228TIP3    H140175   3.004   6.020   4.093  0.8860 -0.0103  1.4807
 6228TIP3    H240176   2.882   5.942   4.049 -0.2870  2.9895 -0.9460
 6229TIP3   OH240177   0.978   2.311  13.075  0.6314 -0.6234 -0.2179
 6229TIP3    H140178   1.040   2.331  13.005 -0.3583  1.2367 -0.6541
 6229TIP3    H240179   0.971   2.393  13.125 -0.6807 -1.0915  0.4169
 6230TIP3   OH240180   1.247   1.710  15.123 -0.3389 -0.1857  0.1110
 6230TIP3    H140181   1.267   1.618  15.102 -0.3950 -0.0580 -0.5120
 6230TIP3    H240182   1.265   1.757  15.042  0.7237  0.5243  0.7282
 6231TIP3   OH240183   6.213   1.007  13.348  0.2549  0.6594  0.3928
 6231TIP3    H140184   6.258   0.923  13.360  0.2354  0.8005  1.5500
 6231TIP3    H240185   6.189   1.008  13.255 -0.7629 -1.1287  0.5901
 6232TIP3   OH240186   0.832   0.070  14.729 -0.1659 -0.0898  0.0207
 6232TIP3    H140187   0.768   0.023  14.674 -0.1284  0.8243 -0.8173
 6232TIP3    H240188   0.856   0.147  14.678  1.6620 -0.4303  0.2929
 6233TIP3   OH240189   6.680   2.593  12.543 -0.0259  0.6168  0.5481
 6233TIP3    H140190   6.740   2.645  12.595  0.4345  0.6842 -0.0396
 6233TIP3    H240191   6.642   2.655  12.480 -1.4396  0.7818  1.5176
 6234TIP3   OH240192   5.162   6.291  13.435  0.1596 -0.4816  0.2702
 6234TIP3    H140193   5.192   6.380  13.454 -1.6543  0.7257 -1.9098
 6234TIP3    H240194   5.088   6.303  13.375  1.2386 -3.5334 -1.9531
 6235TIP3   OH240195   6.093   1.221  16.939 -0.2930  0.7328  0.4759
 6235TIP3    H140196   6.153   1.199  17.010  1.4222 -0.6738 -1.3160
 6235TIP3    H240197   6.139   1.288  16.888 -1.5189  1.7553  0.6314
 6236TIP3   OH240198   1.857   2.954   6.375  0.0111  0.0744  0.3674
 6236TIP3    H140199   1.852   2.949   6.470 -2.2494 -1.3309  0.2527
 6236TIP3    H240200   1.894   2.870   6.349  0.8142  0.5349  0.0056
 6237TIP3   OH240201   4.360   6.236  16.624  0.2329 -0.3277  0.0788
 6237TIP3    H140202   4.378   6.142  16.622 -1.0000 -0.6337  1.2035
 6237TIP3    H240203   4.286   6.248  16.564  0.5427 -0.0318 -0.2499
 6238TIP3   OH240204   1.128   3.709   6.346 -0.0259 -0.2507 -0.3680
 6238TIP3    H140205   1.119   3.622   6.307  0.7715 -0.5181  0.0050
 6238TIP3    H240206   1.184   3.757   6.285 -0.6649  0.0852 -0.6957
 6239TIP3   OH240207   6.207   4.194  15.230  0.6475 -0.6488 -0.2534
 6239TIP3    H140208   6.236   4.103  15.220  2.1362 -0.3802  1.2584
 6239TIP3    H240209   6.275   4.246  15.186 -0.1074 -0.2256 -0.9609
 6240TIP3   OH240210   4.565   3.002   5.470 -0.2926 -0.6120 -0.3341
 6240TIP3    H140211   4.624   2.979   5.397  2.2455  0.6975  1.1436
 6240TIP3    H240212   4.490   3.043   5.427  2.1755  2.4112 -2.2998
 6241TIP3   OH240213   0.685   6.265   3.117  0.3356 -0.0425 -0.2751
 6241TIP3    H140214   0.687   6.292   3.025  0.2633 -0.5727 -0.4380
 6241TIP3    H240215   0.608   6.308   3.153  1.6058  2.0299  0.1497
 6242TIP3   OH240216   0.503   5.340   3.704  1.1510  0.1137 -0.1808
 6242TIP3    H140217   0.552   5.260   3.726  1.0237 -0.4417 -1.7915
 6242TIP3    H240218   0.420   5.309   3.668  0.9207  0.9903 -0.4395
 6243TIP3   OH240219   4.521   1.467   0.542  0.2554  0.0592 -0.5242
 6243TIP3    H140220   4.604   1.510   0.519  1.7698 -2.4312 -0.0243
 6243TIP3    H240221   4.535   1.434   0.631 -0.3608 -2.4423 -1.2915
 6244TIP3   OH240222   0.817   3.858  14.104 -0.0172 -0.1729 -0.2990
 6244TIP3    H140223   0.731   3.897  14.085  1.0057  0.7033 -3.7956
 6244TIP3    H240224   0.853   3.914  14.173 -1.0283  1.3592 -0.9492
 6245TIP3   OH240225   4.630   0.011   0.995 -0.2588 -0.1358 -0.3049
 6245TIP3    H140226   4.584  -0.062   1.037 -0.6284  0.7647  0.9069
 6245TIP3    H240227   4.567   0.047   0.933 -0.2032 -0.5978 -0.6393
 6246TIP3   OH240228   6.629   6.485  12.923 -0.3363  0.4090  0.2218
 6246TIP3    H140229   6.711   6.440  12.901 -0.3982  0.6435 -0.5148
 6246TIP3    H240230   6.634   6.568  12.876 -0.1637  1.2644  1.6653
 6247TIP3   OH240231   4.020   3.337  16.927 -0.1454  0.1433 -0.0369
 6247TIP3    H140232   4.008   3.356  17.020 -1.5251 -2.8909  0.5480
 6247TIP3    H240233   3.948   3.383  16.884 -2.1038 -1.7213  1.0225
 6248TIP3   OH240234   5.297   2.230  14.344 -0.3563  0.0503  0.5985
 6248TIP3    H140235   5.266   2.140  14.347 -0.0288 -0.0816  0.1274
 6248TIP3    H240236   5.350   2.240  14.423  1.3150 -0.8090 -0.3560
 6249TIP3   OH240237   4.701   0.052   1.369  0.0677 -0.6542  0.7004
 6249TIP3    H140238   4.645   0.103   1.427 -0.3429 -0.4285  0.1196
 6249TIP3    H240239   4.764   0.116   1.334 -0.6671 -0.4573 -0.2987
 6250TIP3   OH240240   4.300   2.735   4.438  0.6197  0.0969  0.2639
 6250TIP3    H140241   4.244   2.659   4.449 -1.0680  0.8002 -2.4176
 6250TIP3    H240242   4.385   2.699   4.412  0.4845 -0.8924  1.1453
 6251TIP3   OH240243   3.782   0.449  15.806  0.0870  0.0919  0.4567
 6251TIP3    H140244   3.692   0.480  15.817 -0.2240 -0.7139  0.2320
 6251TIP3    H240245   3.828   0.482  15.883 -1.2045 -2.3568  2.3916
 6252TIP3   OH240246   6.233   6.759   5.257 -0.6440 -0.5404 -0.2335
 6252TIP3    H140247   6.184   6.770   5.176  0.0274 -2.5539 -0.9708
 6252TIP3    H240248   6.167   6.737   5.323 -1.3832  2.5088  0.1867
 6253TIP3   OH240249   0.492   1.121   4.114  0.2057  0.7622  0.1086
 6253TIP3    H140250   0.406   1.149   4.145  1.1324  1.1882  2.4537
 6253TIP3    H240251   0.531   1.200   4.076 -0.4058  0.5718 -0.9461
 6254TIP3   OH240252   1.487   3.130   2.955 -0.6701  0.3452 -0.3491
 6254TIP3    H140253   1.459   3.158   2.867  2.2168  0.9857 -1.1765
 6254TIP3    H240254   1.557   3.068   2.939 -0.9111 -0.4765  1.5565
 6255TIP3   OH240255   2.313   5.009   1.311 -0.7813  0.3391  0.3538
 6255TIP3    H140256   2.400   5.017   1.348 -0.5101  0.6652 -0.3365
 6255TIP3    H240257   2.280   5.099   1.306 -0.1613  0.5071 -1.6878
 6256TIP3   OH240258   1.951   0.676  11.353 -0.3083 -0.3054  0.4967
 6256TIP3    H140259   1.870   0.648  11.310 -1.0751  0.7884  1.1603
 6256TIP3    H240260   1.935   0.768  11.374  0.1486 -0.6889  2.8033
 6257TIP3   OH240261   4.119   4.362   3.093  0.5128  0.5498 -0.0190
 6257TIP3    H140262   4.207   4.325   3.082  0.9523  1.5250  0.0737
 6257TIP3    H240263   4.123   4.408   3.177 -0.9188 -1.6041  1.3262
 6258TIP3   OH240264   3.010   5.626  11.176  0.4013  0.1843 -0.8329
 6258TIP3    H140265   3.099   5.602  11.201  0.3302 -2.7677 -2.8807
 6258TIP3    H240266   3.021   5.686  11.102  0.6916  0.0815 -0.8736
 6259TIP3   OH240267   1.777   6.348   5.936 -0.0142  0.3272  0.0881
 6259TIP3    H140268   1.852   6.404   5.915  0.6839 -0.5031  0.3322
 6259TIP3    H240269   1.704   6.409   5.946 -0.0801  0.9656 -3.1622
 6260TIP3   OH240270   5.817   1.209  16.683  0.0889  0.8287  0.4779
 6260TIP3    H140271   5.833   1.200  16.589 -1.1436  0.1409  0.3128
 6260TIP3    H240272   5.733   1.253  16.689  0.5949  1.7106  1.2779
 6261TIP3   OH240273   5.906   5.694   5.467  0.4850 -0.4094 -0.5055
 6261TIP3    H140274   5.820   5.658   5.441 -0.3560  0.8047  0.4728
 6261TIP3    H240275   5.909   5.679   5.562  1.3082 -0.3160 -0.5171
 6262TIP3   OH240276   1.800   5.949   2.875  0.2425 -0.3005 -0.4507
 6262TIP3    H140277   1.763   5.927   2.961  0.2599 -2.2158 -0.8804
 6262TIP3    H240278   1.875   6.006   2.894  0.1199 -0.5345  0.7871
 6263TIP3   OH240279   2.993   6.441   3.124 -0.0476  0.2183  0.1681
 6263TIP3    H140280   2.945   6.360   3.140 -0.0378  0.1465 -0.1681
 6263TIP3    H240281   3.076   6.412   3.086 -1.0232  0.5001 -2.3263
 6264TIP3   OH240282   5.624   5.998  16.231 -0.1193  0.0691 -0.2097
 6264TIP3    H140283   5.613   6.093  16.232  1.8330  0.3406 -0.7546
 6264TIP3    H240284   5.535   5.963  16.239 -1.0280  1.9319 -1.6523
 6265TIP3   OH240285   5.891   2.766  12.610 -0.6849  0.4004 -0.6884
 6265TIP3    H140286   5.887   2.766  12.515  0.6937 -1.8096 -0.7985
 6265TIP3    H240287   5.965   2.823  12.631 -1.1789  1.1333 -0.8950
 6266TIP3   OH240288   2.422   0.895  13.680 -0.0515  0.4117  0.0883
 6266TIP3    H140289   2.454   0.805  13.667  0.0794  0.2989  1.0859
 6266TIP3    H240290   2.365   0.911  13.605 -0.7172 -0.8049  0.2994
 6267TIP3   OH240291   6.222   6.791  14.743  0.6352 -0.3220 -0.0924
 6267TIP3    H140292   6.173   6.782  14.661 -0.5689 -0.5714  0.6266
 6267TIP3    H240293   6.181   6.866  14.787  1.1419 -0.3129  0.3813
 6268TIP3   OH240294   4.987   0.948  16.821 -0.3468 -0.1829 -0.1384
 6268TIP3    H140295   4.935   0.963  16.742 -0.2718 -0.9517 -0.3383
 6268TIP3    H240296   4.924   0.919  16.886 -0.3345 -0.0136 -0.0506
 6269TIP3   OH240297   1.163   4.162   1.982 -0.0325 -0.5320 -0.1430
 6269TIP3    H140298   1.093   4.120   2.030  0.4782 -1.1140  0.1029
 6269TIP3    H240299   1.171   4.112   1.901  0.5728 -0.9254  0.1481
 6270TIP3   OH240300   6.075   0.200   5.508  0.1534  0.2431 -0.0483
 6270TIP3    H140301   6.072   0.105   5.507  0.0509  0.2429  0.2488
 6270TIP3    H240302   5.998   0.227   5.458  0.8162  0.1660 -1.1419
 6271TIP3   OH240303   3.189   2.071  15.615 -0.5818  0.0641 -0.3751
 6271TIP3    H140304   3.201   2.124  15.536 -1.4964 -1.2706 -1.4487
 6271TIP3    H240305   3.140   1.994  15.586 -2.2257  0.2040  1.7495
 6272TIP3   OH240306   1.236   5.660  16.652 -0.2551 -0.0571  0.1126
 6272TIP3    H140307   1.165   5.600  16.632  0.3657 -0.0448 -2.5062
 6272TIP3    H240308   1.225   5.682  16.745 -2.3300 -1.7367  0.3131
 6273TIP3   OH240309   1.068   1.006  12.902  0.0531  0.1130 -0.0208
 6273TIP3    H140310   1.022   0.937  12.855 -0.9850 -0.4815  1.7746
 6273TIP3    H240311   1.148   0.964  12.934 -0.0278  0.0489  0.1006
 6274TIP3   OH240312   6.488   2.590   4.377 -0.9918 -0.2500  0.2626
 6274TIP3    H140313   6.514   2.680   4.399 -0.5977 -0.2361 -0.2406
 6274TIP3    H240314   6.434   2.599   4.299 -0.8926 -0.4512  0.1702
 6275TIP3   OH240315   1.962   3.774   1.398  0.0251  0.0130  0.2289
 6275TIP3    H140316   1.886   3.825   1.371 -0.8328 -0.9096  0.8333
 6275TIP3    H240317   1.951   3.689   1.354  0.8953 -0.0096  0.0314
 6276TIP3   OH240318   3.456   1.701   5.369  0.0462 -0.2381 -0.1941
 6276TIP3    H140319   3.535   1.649   5.359  0.4367  0.5114 -1.1842
 6276TIP3    H240320   3.433   1.693   5.461 -0.0380 -2.3301 -0.3600
 6277TIP3   OH240321   5.357   0.687   5.580  0.4361 -0.0870 -0.2960
 6277TIP3    H140322   5.291   0.744   5.541  1.4440  0.7981 -0.7564
 6277TIP3    H240323   5.418   0.670   5.508 -0.0456 -2.1009 -0.2932
 6278TIP3   OH240324   1.532   2.870  17.010  0.1689 -0.2028 -0.1956
 6278TIP3    H140325   1.614   2.826  17.033 -0.2951 -0.2372  1.5281
 6278TIP3    H240326   1.525   2.942  17.073 -1.3842 -0.5277  0.0278
 6279TIP3   OH240327   2.502   0.958  14.793  0.4322 -0.0404 -0.5628
 6279TIP3    H140328   2.539   1.038  14.754 -1.2365  1.7550  1.2965
 6279TIP3    H240329   2.576   0.919  14.840  0.7189  1.9749  0.8070
 6280TIP3   OH240330   1.537   1.653  13.328 -0.2511 -0.2047 -0.5551
 6280TIP3    H140331   1.463   1.678  13.383 -1.4155 -0.0058 -2.1355
 6280TIP3    H240332   1.546   1.559  13.342 -0.2689 -0.0986  0.2501
 6281TIP3   OH240333   2.596   3.831  15.153 -0.0502 -0.6037 -0.1568
 6281TIP3    H140334   2.531   3.869  15.094  2.2640  0.8735 -1.9057
 6281TIP3    H240335   2.570   3.861  15.240 -1.1872  0.7299 -0.9217
 6282TIP3   OH240336   6.541   2.904   3.447  0.3857  0.0243  0.4302
 6282TIP3    H140337   6.501   2.828   3.489  1.1659 -1.3036 -1.0879
 6282TIP3    H240338   6.557   2.876   3.357  2.4554  1.3122  0.3232
 6283TIP3   OH240339   3.308   6.025   3.962  0.7400  0.1908 -1.0891
 6283TIP3    H140340   3.265   6.078   3.895  0.2585  0.9401 -0.1943
 6283TIP3    H240341   3.398   6.018   3.931  0.1596 -0.9475 -2.7121
 6284TIP3   OH240342   2.938   5.415  15.110  0.7851  0.2522 -0.1602
 6284TIP3    H140343   2.945   5.511  15.113 -0.6098  0.3709 -0.3196
 6284TIP3    H240344   2.846   5.397  15.124  0.7227 -1.0044 -1.9048
 6285TIP3   OH240345   2.660   5.758   5.610 -0.4135  0.0555 -0.3057
 6285TIP3    H140346   2.569   5.785   5.601 -0.7382 -0.3955  1.3284
 6285TIP3    H240347   2.710   5.839   5.610 -0.7454  0.2885 -1.6095
 6286TIP3   OH240348   4.873   1.257  13.222  0.1416 -0.2751  0.1248
 6286TIP3    H140349   4.870   1.343  13.180  0.6029 -0.3789 -0.1239
 6286TIP3    H240350   4.784   1.242  13.253  0.5791  1.4151  2.4533
 6287TIP3   OH240351   1.567   6.098  12.172  0.0126 -0.5206 -0.4510
 6287TIP3    H140352   1.660   6.119  12.182 -0.1440 -0.5439  1.3246
 6287TIP3    H240353   1.561   6.005  12.193 -0.3888 -0.5724 -0.7802
 6288TIP3   OH240354   1.358   1.566   1.068  0.3238  0.1086  0.0368
 6288TIP3    H140355   1.409   1.644   1.087 -0.3010  0.4686  0.2478
 6288TIP3    H240356   1.319   1.582   0.982 -1.1185  0.7366  0.7819
 6289TIP3   OH240357   2.461   3.146  15.291 -0.0560  0.6040 -0.1037
 6289TIP3    H140358   2.497   3.073  15.239 -1.2509  0.8111 -1.2759
 6289TIP3    H240359   2.478   3.223  15.237  0.4231  1.0986  0.7363
 6290TIP3   OH240360   1.617   3.115   5.503  0.1420 -0.1916 -0.1308
 6290TIP3    H140361   1.609   3.210   5.506  0.9170 -0.1386  0.4548
 6290TIP3    H240362   1.694   3.095   5.556 -1.1054 -1.2787  1.3466
 6291TIP3   OH240363   4.367   4.721   2.581  0.3063  0.7175  0.2700
 6291TIP3    H140364   4.417   4.687   2.656 -0.1479 -0.9026 -0.1244
 6291TIP3    H240365   4.291   4.764   2.621 -1.4742 -2.5750  0.8080
 6292TIP3   OH240366   2.155   5.374   0.643 -0.0906  0.1640 -0.1895
 6292TIP3    H140367   2.073   5.330   0.620  1.2355 -3.5609  1.3242
 6292TIP3    H240368   2.206   5.371   0.562 -0.4717  0.0237 -0.4310
 6293TIP3   OH240369   1.153   6.686   2.208 -0.3202  0.0762 -0.2361
 6293TIP3    H140370   1.104   6.671   2.127  0.7697 -2.2987 -0.5435
 6293TIP3    H240371   1.241   6.710   2.179  0.5177 -2.3042  0.1404
 6294TIP3   OH240372   4.461   5.685  14.476 -0.5260  0.1402 -0.1910
 6294TIP3    H140373   4.466   5.780  14.486 -0.2371  0.0187  0.9137
 6294TIP3    H240374   4.380   5.660  14.521 -0.1891 -0.2273  0.2132
 6295TIP3   OH240375   2.148   3.996  12.931 -0.9023  0.0988 -0.0163
 6295TIP3    H140376   2.181   3.947  13.006  1.1314 -1.1237 -1.6066
 6295TIP3    H240377   2.057   3.969  12.923 -1.2594  0.5009  2.1530
 6296TIP3   OH240378   0.202   3.768   3.229 -0.2716  0.6531  0.1318
 6296TIP3    H140379   0.195   3.699   3.163 -0.9567  1.0569 -0.2267
 6296TIP3    H240380   0.116   3.769   3.272 -0.8781  2.4097 -1.0145
 6297TIP3   OH240381   3.579   5.760   4.179 -0.0782 -0.3451  0.2986
 6297TIP3    H140382   3.625   5.698   4.123  0.7852  1.2072 -0.7702
 6297TIP3    H240383   3.486   5.747   4.157  0.1363 -0.8244 -0.3510
 6298TIP3   OH240384   5.306   4.525  15.465 -0.1805  0.6351  0.0557
 6298TIP3    H140385   5.217   4.560  15.463 -0.3500  0.1791 -0.5361
 6298TIP3    H240386   5.346   4.558  15.385 -0.5502 -1.0220 -0.8664
 6299TIP3   OH240387   5.039   5.077  10.710  0.1251 -0.5991  0.1099
 6299TIP3    H140388   4.967   5.139  10.696 -0.4359 -1.0899  0.7239
 6299TIP3    H240389   5.117   5.124  10.682 -0.3017  0.3360  0.4430
 6300TIP3   OH240390   4.805   3.999   4.554 -0.6919  0.2773  0.4832
 6300TIP3    H140391   4.861   4.012   4.630 -0.1208  1.0571 -0.0548
 6300TIP3    H240392   4.860   3.951   4.492 -1.4374 -1.1281  0.8738
 6301TIP3   OH240393   3.253   2.665   3.344  0.6056  0.4966 -0.5781
 6301TIP3    H140394   3.315   2.738   3.351 -0.7606  1.5157  2.4505
 6301TIP3    H240395   3.309   2.587   3.339  2.2880  1.3408  2.3079
 6302TIP3   OH240396   6.558   6.597   1.583 -0.1638 -0.0576  0.3618
 6302TIP3    H140397   6.559   6.605   1.678  0.3396  0.5277  0.3160
 6302TIP3    H240398   6.650   6.604   1.558 -0.1142 -1.7900 -0.0516
 6303TIP3   OH240399   4.646   2.299  12.296  0.2570 -0.0566  0.2546
 6303TIP3    H140400   4.600   2.381  12.313  0.7968  0.4009 -0.4099
 6303TIP3    H240401   4.711   2.322  12.229 -0.3977 -1.2840 -0.8647
 6304TIP3   OH240402   4.059   2.604   1.290  0.0472 -0.5683 -0.6474
 6304TIP3    H140403   4.106   2.603   1.373 -2.1471  0.1378  0.7001
 6304TIP3    H240404   4.123   2.635   1.226  1.5913 -0.4125  0.9002
 6305TIP3   OH240405   3.652   6.417   5.588  0.8986  0.1981 -0.4016
 6305TIP3    H140406   3.723   6.426   5.524  3.1549 -0.6761  1.7855
 6305TIP3    H240407   3.623   6.326   5.578  1.3577  0.0145 -0.1280
 6306TIP3   OH240408   2.987   3.305  10.890  0.2754  0.1962 -0.1627
 6306TIP3    H140409   2.970   3.239  10.822  0.3042 -0.8884  0.8375
 6306TIP3    H240410   2.920   3.372  10.875 -2.0378 -1.7253  0.8308
 6307TIP3   OH240411   3.765   2.583   0.736 -0.1236  0.2071 -0.3376
 6307TIP3    H140412   3.687   2.632   0.765 -0.5593 -0.5699 -0.1766
 6307TIP3    H240413   3.805   2.640   0.670 -0.7245  0.7053 -0.2879
 6308TIP3   OH240414   4.677   3.244   1.848 -0.2255  0.3270 -0.1482
 6308TIP3    H140415   4.645   3.308   1.784  0.2644  0.7160 -0.0092
 6308TIP3    H240416   4.739   3.293   1.902 -1.1512  0.1973  1.0789
 6309TIP3   OH240417   2.634   5.886  12.605  0.3754 -0.0903 -0.7945
 6309TIP3    H140418   2.644   5.869  12.511  2.2087  0.5257 -0.7434
 6309TIP3    H240419   2.667   5.975  12.617  0.7453 -0.3869  0.5246
 6310TIP3   OH240420   1.752   5.522  15.593 -0.1523  0.4493 -0.1116
 6310TIP3    H140421   1.781   5.589  15.655  0.1115  1.4995 -1.3502
 6310TIP3    H240422   1.799   5.443  15.621  1.8690  1.4720 -0.4214
 6311TIP3   OH240423   0.304   1.327  16.587 -0.1577 -0.0440 -0.0009
 6311TIP3    H140424   0.393   1.343  16.619 -0.6580 -1.0561  2.0531
 6311TIP3    H240425   0.268   1.414  16.572  0.4909  0.4583  1.1871
 6312TIP3   OH240426   0.873   5.447   6.524  0.2865 -0.1676 -0.4240
 6312TIP3    H140427   0.957   5.472   6.487  1.7001 -1.1524  1.8883
 6312TIP3    H240428   0.879   5.352   6.535 -0.7026 -0.1269  0.6876
 6313TIP3   OH240429   2.575   5.306   5.314  0.2393 -0.3592  0.0419
 6313TIP3    H140430   2.555   5.265   5.230  2.2350 -1.0253 -0.1649
 6313TIP3    H240431   2.571   5.235   5.378  0.7388 -0.2685  0.1762
 6314TIP3   OH240432   4.718   3.049  15.336 -0.3353  0.5009  0.4192
 6314TIP3    H140433   4.700   3.058  15.430 -1.6395 -0.0644  0.2468
 6314TIP3    H240434   4.700   2.957  15.317 -0.4364  0.6901 -0.4437
 6315TIP3   OH240435   0.968   5.727  16.487  0.2265 -0.0385  0.3862
 6315TIP3    H140436   0.873   5.716  16.491 -0.0347  1.4465 -0.7441
 6315TIP3    H240437   0.984   5.813  16.525  0.9350  0.3681 -0.7871
 6316TIP3   OH240438   6.061   5.053  15.121  0.1854 -0.7482 -0.1092
 6316TIP3    H140439   5.978   5.078  15.163  0.0786 -0.1830 -0.6380
 6316TIP3    H240440   6.040   5.050  15.027  0.9917  0.3648 -0.3439
 6317TIP3   OH240441   6.031   0.996  14.996  0.7382  0.2070  0.6368
 6317TIP3    H140442   5.956   0.998  15.056  0.9363 -2.2012  1.0548
 6317TIP3    H240443   5.992   1.009  14.909 -0.0120  0.1467  0.9568
 6318TIP3   OH240444   4.305   3.661   1.293  0.3475  0.1225  0.3349
 6318TIP3    H140445   4.276   3.639   1.204  1.4122 -0.9445  0.2112
 6318TIP3    H240446   4.368   3.732   1.281 -1.0775  1.4398  0.4639
 6319TIP3   OH240447   2.094   5.081  11.154  0.2209 -0.1670  0.3585
 6319TIP3    H140448   2.159   5.085  11.084 -1.9772  0.4063 -1.7992
 6319TIP3    H240449   2.071   5.172  11.172 -1.3666 -0.3796 -0.3665
 6320TIP3   OH240450   2.857   4.993  15.959  0.2127  0.5953 -0.3864
 6320TIP3    H140451   2.824   4.903  15.965  3.5863 -0.8337 -0.6698
 6320TIP3    H240452   2.795   5.045  16.009 -0.8313 -2.2378  1.5445
 6321TIP3   OH240453   1.804   4.228  14.029  0.7267 -0.1494 -0.1102
 6321TIP3    H140454   1.709   4.217  14.026  0.4433  1.0722  2.0286
 6321TIP3    H240455   1.826   4.219  14.121  2.5090  0.8247 -0.3921
 6322TIP3   OH240456   3.993   4.539  10.939 -0.0763  0.1600 -0.2153
 6322TIP3    H140457   3.912   4.581  10.909 -0.0775 -0.6491 -1.4602
 6322TIP3    H240458   4.051   4.612  10.962 -1.9244  0.7661  3.0916
 6323TIP3   OH240459   4.269   3.527   5.811 -0.3278 -0.3496 -0.2217
 6323TIP3    H140460   4.211   3.452   5.822  0.4240 -0.8924  0.1382
 6323TIP3    H240461   4.239   3.591   5.875 -0.1822 -0.8534  0.3560
 6324TIP3   OH240462   1.704   1.588   2.871  0.1669  0.2318  0.1659
 6324TIP3    H140463   1.625   1.640   2.863  1.2189  2.4113  2.4698
 6324TIP3    H240464   1.760   1.618   2.799 -0.2170  0.4174 -0.0574
 6325TIP3   OH240465   6.015   6.199  17.205  0.2286 -0.1944  0.7657
 6325TIP3    H140466   6.102   6.220  17.172  0.0878 -1.3822 -0.4477
 6325TIP3    H240467   5.957   6.262  17.162 -0.1274 -2.4802 -2.4730
 6326TIP3   OH240468   1.508   3.172  12.704 -0.5956 -0.2957 -0.1332
 6326TIP3    H140469   1.554   3.218  12.634 -0.2081 -0.9804 -0.3451
 6326TIP3    H240470   1.446   3.115  12.658 -1.5091  0.4474  0.1435
 6327TIP3   OH240471   4.019   3.039  15.532  0.0241 -0.3380  0.9216
 6327TIP3    H140472   4.075   2.967  15.561  1.2347  0.7326  1.3645
 6327TIP3    H240473   4.079   3.097  15.484 -1.3014 -0.5662 -1.1547
 6328TIP3   OH240474   3.166   2.145   4.757 -0.1591 -0.0262 -0.3048
 6328TIP3    H140475   3.092   2.186   4.713 -0.6796  0.5147  1.0308
 6328TIP3    H240476   3.128   2.096   4.829  0.6516 -1.1139 -0.5846
 6329TIP3   OH240477   0.017   3.349  12.131 -0.0149  0.4757 -0.0831
 6329TIP3    H140478   0.080   3.354  12.059  0.3780  1.0536  0.2912
 6329TIP3    H240479  -0.031   3.432  12.125 -0.5293  0.1770 -0.1685
 6330TIP3   OH240480   5.446   4.280  15.436 -0.6385  0.3610 -0.4162
 6330TIP3    H140481   5.512   4.308  15.373 -1.9713  2.1242 -1.0958
 6330TIP3    H240482   5.395   4.358  15.454 -1.5469 -0.5862  1.3323
 6331TIP3   OH240483   1.063   3.565   1.071  0.5062  0.3342  0.6268
 6331TIP3    H140484   1.104   3.506   1.007 -0.8772  0.7653 -0.7162
 6331TIP3    H240485   1.008   3.622   1.019 -0.9426  0.5018  2.2458
 6332TIP3   OH240486   6.344   0.238   2.978  0.0163  0.1149 -1.0381
 6332TIP3    H140487   6.292   0.162   2.952 -0.6957  0.9568 -2.1336
 6332TIP3    H240488   6.291   0.282   3.045  0.9821 -0.9831  0.5357
 6333TIP3   OH240489   4.138   0.941  10.502  0.8441  0.2591 -0.5097
 6333TIP3    H140490   4.084   0.890  10.442  1.8472  0.1033 -1.3069
 6333TIP3    H240491   4.162   0.879  10.571 -0.6770  0.5533  0.3304
 6334TIP3   OH240492   1.701   3.011  12.173  0.1792 -0.1065 -0.1587
 6334TIP3    H140493   1.692   3.077  12.242  0.3445 -1.0083  0.7409
 6334TIP3    H240494   1.701   3.062  12.092  2.6760  1.2543  0.5904
 6335TIP3   OH240495   5.678   5.576   0.225  0.0586 -0.0482 -0.0260
 6335TIP3    H140496   5.625   5.599   0.148  0.2488 -0.4642 -0.2825
 6335TIP3    H240497   5.615   5.575   0.297 -0.1446  0.2136 -0.1950
 6336TIP3   OH240498   0.774   2.532   0.369  0.4363  0.1319 -0.4444
 6336TIP3    H140499   0.687   2.561   0.340  0.4363 -0.9327 -1.5721
 6336TIP3    H240500   0.802   2.600   0.431 -1.8882 -0.3352  1.2600
 6337TIP3   OH240501   4.632   0.441   6.012 -0.0315 -0.7360  0.7138
 6337TIP3    H140502   4.674   0.465   5.929  1.1647 -1.5406  1.0603
 6337TIP3    H240503   4.570   0.512   6.029 -1.5862 -1.3831 -1.7234
 6338TIP3   OH240504   5.992   2.270   4.140 -0.1818 -0.5161 -0.4369
 6338TIP3    H140505   5.931   2.316   4.082  1.5181  1.4220 -0.8352
 6338TIP3    H240506   5.937   2.236   4.211 -1.5516  3.7848  0.9044
 6339TIP3   OH240507   4.427   5.908  14.140  0.1910  0.3377 -0.2095
 6339TIP3    H140508   4.456   5.967  14.070  1.3744  2.3276  1.8075
 6339TIP3    H240509   4.378   5.964  14.199  0.2174 -1.0222  1.1516
 6340TIP3   OH240510   6.268   0.881   4.448  0.3075  0.1434 -0.1277
 6340TIP3    H140511   6.274   0.809   4.385  1.2127  0.7093 -0.7140
 6340TIP3    H240512   6.266   0.838   4.534 -0.7027 -0.6290 -0.5170
 6341TIP3   OH240513   1.105   3.925  16.023 -0.1362  0.4190  0.2759
 6341TIP3    H140514   1.152   3.842  16.007 -0.0998  0.5716 -0.4451
 6341TIP3    H240515   1.173   3.992  16.019 -0.3277  0.5906 -0.2656
 6342TIP3   OH240516   4.989   0.149   5.830 -0.4515 -0.4815  0.1477
 6342TIP3    H140517   5.031   0.226   5.791  0.0147 -0.6624  0.2814
 6342TIP3    H240518   4.934   0.185   5.899 -0.2246 -0.2630  0.2174
 6343TIP3   OH240519   1.911   2.788  16.014 -0.0052  0.2467  0.7189
 6343TIP3    H140520   1.871   2.739  15.943 -1.8220 -0.2203  2.0069
 6343TIP3    H240521   1.865   2.871  16.016  0.2667  0.3950  1.1374
 6344TIP3   OH240522   2.842   1.526   2.182 -0.4654  0.0624 -0.3520
 6344TIP3    H140523   2.863   1.619   2.171  1.8873 -0.2528  0.8436
 6344TIP3    H240524   2.861   1.487   2.096 -2.0183  0.7135 -1.0358
 6345TIP3   OH240525   3.299   1.427  12.448  0.1123  0.2669  0.6772
 6345TIP3    H140526   3.257   1.505  12.411  1.4019  1.6541  2.0024
 6345TIP3    H240527   3.359   1.462  12.514  1.5166 -1.8102  0.5503
 6346TIP3   OH240528   2.345   4.021   6.046 -0.3059  0.5036  0.1683
 6346TIP3    H140529   2.258   3.989   6.070 -0.7208 -0.3251 -2.2221
 6346TIP3    H240530   2.392   3.944   6.016 -0.0859  1.4891 -2.2201
 6347TIP3   OH240531   0.179   4.010  15.078  0.3469 -0.0828 -0.5890
 6347TIP3    H140532   0.268   3.976  15.074  0.7573  0.9513 -0.6063
 6347TIP3    H240533   0.189   4.101  15.105 -0.7425 -0.0922 -0.0927
 6348TIP3   OH240534   4.047   1.397  15.730 -0.0822  0.0189  0.0990
 6348TIP3    H140535   4.089   1.478  15.702  2.6657 -1.6098 -0.8534
 6348TIP3    H240536   4.017   1.356  15.648  0.8066 -1.0560  0.2873
 6349TIP3   OH240537   1.987   3.385   5.807  0.8017 -0.1185  0.2146
 6349TIP3    H140538   2.058   3.437   5.769  0.6188 -0.1973 -0.2401
 6349TIP3    H240539   1.915   3.447   5.815  0.6107 -0.2792 -0.2470
 6350TIP3   OH240540   3.803   1.214   2.550  0.0329 -0.8190 -0.4111
 6350TIP3    H140541   3.772   1.217   2.460  1.2241 -0.8096 -0.8374
 6350TIP3    H240542   3.842   1.127   2.559 -1.0076 -1.2219  0.4262
 6351TIP3   OH240543   3.754   1.294  15.112 -0.5781 -0.2412  0.0182
 6351TIP3    H140544   3.797   1.287  15.027  0.3477  0.7457  0.3725
 6351TIP3    H240545   3.711   1.209  15.125  0.0776 -0.7472 -0.9889
 6352TIP3   OH240546   1.979   5.435  15.171  0.8638 -0.2182 -0.1249
 6352TIP3    H140547   2.044   5.412  15.237 -0.0138  0.3679  0.9893
 6352TIP3    H240548   1.937   5.514  15.206  0.5477  0.2683 -1.5216
 6353TIP3   OH240549   4.811   5.289  11.130 -0.2832  0.0010  0.2102
 6353TIP3    H140550   4.906   5.293  11.140 -0.2429 -2.0291  1.2358
 6353TIP3    H240551   4.797   5.240  11.049 -0.4677  0.3136  0.0498
 6354TIP3   OH240552   3.639   0.533  12.975 -0.1902 -0.0500 -0.4588
 6354TIP3    H140553   3.671   0.463  12.918 -0.5438  0.0709 -0.8096
 6354TIP3    H240554   3.592   0.592  12.916  1.3125  1.2461 -0.4192
 6355TIP3   OH240555   0.190   6.084   6.314  0.0712 -0.2869 -0.0750
 6355TIP3    H140556   0.192   6.073   6.409  0.3132 -1.6316 -0.2122
 6355TIP3    H240557   0.098   6.073   6.291  0.1372 -0.8626 -0.0789
 6356TIP3   OH240558   2.262   1.191  14.222 -0.0506  0.1092 -0.4859
 6356TIP3    H140559   2.258   1.283  14.246  0.3694 -0.4693  2.0705
 6356TIP3    H240560   2.355   1.169  14.229 -0.0325 -0.3788 -1.8293
 6357TIP3   OH240561   3.411   3.322   5.340  0.0827  0.2715 -0.2352
 6357TIP3    H140562   3.486   3.363   5.383  0.2958 -0.5365  0.1741
 6357TIP3    H240563   3.350   3.394   5.325 -0.2233  0.5094  1.8591
 6358TIP3   OH240564   2.243   6.134   3.084  0.1139 -0.3274 -0.5371
 6358TIP3    H140565   2.316   6.122   3.022  0.0956 -0.7026 -0.4871
 6358TIP3    H240566   2.263   6.216   3.128  0.4404 -0.3601 -0.6191
 6359TIP3   OH240567   3.026   3.760   4.312 -0.0008  0.0703  0.7993
 6359TIP3    H140568   3.044   3.848   4.277 -3.5557  0.1833 -1.1207
 6359TIP3    H240569   3.084   3.702   4.262  1.1846  1.1177  0.9090
 6360TIP3   OH240570   5.770   1.754  16.871 -0.0193 -0.0532 -1.1193
 6360TIP3    H140571   5.734   1.699  16.801  0.3798  1.6662 -2.7825
 6360TIP3    H240572   5.864   1.758  16.852 -0.0973  1.5404 -1.3777
 6361TIP3   OH240573   2.766   4.551   5.165  0.0951 -0.2659  0.7124
 6361TIP3    H140574   2.828   4.487   5.129  1.3208 -0.1062  2.4473
 6361TIP3    H240575   2.794   4.565   5.255 -0.9723  1.7194  0.7997
 6362TIP3   OH240576   3.606   0.935   3.836 -0.2340 -0.2192  0.1268
 6362TIP3    H140577   3.655   0.853   3.828  1.1765  0.4882  1.1635
 6362TIP3    H240578   3.606   0.953   3.930 -1.7415  0.2695  0.0507
 6363TIP3   OH240579   1.411   3.166   1.418  0.6093  0.1559  0.1685
 6363TIP3    H140580   1.498   3.187   1.454  0.5435 -1.8161  1.6933
 6363TIP3    H240581   1.428   3.097   1.355  0.2947  0.9163 -0.7620
 6364TIP3   OH240582   2.284   1.833  15.589  0.2587  0.5771 -0.4128
 6364TIP3    H140583   2.299   1.790  15.673 -2.2822  0.2852 -0.0106
 6364TIP3    H240584   2.335   1.782  15.526  1.3022  0.1012  0.7749
 6365TIP3   OH240585   4.314   6.077   4.107  0.3285  0.0860  0.1065
 6365TIP3    H140586   4.338   5.997   4.153 -0.1589 -0.7157 -0.9833
 6365TIP3    H240587   4.299   6.142   4.176  1.1083 -0.6479  0.9831
 6366TIP3   OH240588   6.712   3.377  16.534  0.0242  0.7678  0.4552
 6366TIP3    H140589   6.725   3.446  16.599 -1.0693 -0.7115  2.3377
 6366TIP3    H240590   6.795   3.327  16.535 -0.1807  0.4304  1.1395
 6367TIP3   OH240591   6.098   4.375  17.242 -0.2848 -0.4037 -0.2724
 6367TIP3    H140592   6.063   4.434  17.175 -2.3796 -0.9356  0.2671
 6367TIP3    H240593   6.187   4.406  17.257 -0.3990  0.8971 -1.9392
 6368TIP3   OH240594   3.527   6.164   2.475  0.0438 -0.2702  0.2630
 6368TIP3    H140595   3.508   6.135   2.564 -0.4753 -0.7071  0.0155
 6368TIP3    H240596   3.452   6.135   2.424  0.6487 -0.6126 -0.4470
 6369TIP3   OH240597   3.719   0.752  13.402 -0.0533 -0.2527 -0.6238
 6369TIP3    H140598   3.673   0.820  13.452  0.3274 -1.7584  1.9673
 6369TIP3    H240599   3.649   0.706  13.355 -0.7263 -0.1165  0.2121
 6370TIP3   OH240600   5.254   3.201   3.627  0.1680 -0.2360  0.0653
 6370TIP3    H140601   5.349   3.191   3.630  0.2572  0.3486 -0.5633
 6370TIP3    H240602   5.222   3.116   3.595  0.6211  0.1175 -1.4144
 6371TIP3   OH240603   6.386   6.297   5.036  0.2664  0.1976 -0.2889
 6371TIP3    H140604   6.364   6.267   4.948 -0.8579  0.6461 -0.1801
 6371TIP3    H240605   6.479   6.320   5.031  0.0724  0.7794 -1.5268
 6372TIP3   OH240606   4.215   1.295  12.382 -0.2875  0.5747  0.0941
 6372TIP3    H140607   4.243   1.343  12.304  0.7724  0.3233  0.3091
 6372TIP3    H240608   4.122   1.277  12.366 -0.4364  1.7380 -0.4727
 6373TIP3   OH240609   0.644   2.454   2.037  0.0376  0.3824  0.3979
 6373TIP3    H140610   0.730   2.414   2.047 -0.7886 -1.0561  2.5914
 6373TIP3    H240611   0.652   2.540   2.080  0.5895  0.6274 -0.1799
 6374TIP3   OH240612   6.156   3.561  13.061  0.0085 -0.8018  0.3215
 6374TIP3    H140613   6.080   3.565  13.003  0.8406 -0.1105 -0.7837
 6374TIP3    H240614   6.126   3.513  13.138 -1.5746 -0.4262 -0.0207
 6375TIP3   OH240615   1.447   0.408   0.806  0.4987  0.0135 -0.2812
 6375TIP3    H140616   1.542   0.418   0.806  0.3946  1.8333 -2.7235
 6375TIP3    H240617   1.426   0.376   0.718 -1.1355 -1.0497  0.4363
 6376TIP3   OH240618   4.360   2.387  15.754  0.0639  0.4648 -0.1591
 6376TIP3    H140619   4.363   2.462  15.813  0.3167  0.1975  0.1638
 6376TIP3    H240620   4.308   2.418  15.680  0.0474  0.9141  0.0375
 6377TIP3   OH240621   3.856   3.296  14.330  0.4381 -0.2443 -0.2121
 6377TIP3    H140622   3.934   3.273  14.279  0.6668 -1.4224  0.6094
 6377TIP3    H240623   3.787   3.306  14.265  1.0899 -0.0343 -0.8840
 6378TIP3   OH240624   6.724   4.366  12.626  0.3990 -0.4068  0.2912
 6378TIP3    H140625   6.713   4.312  12.704  1.2619 -1.5560 -0.3568
 6378TIP3    H240626   6.799   4.327  12.579  0.4121  0.7375 -0.7056
 6379TIP3   OH240627   3.915   4.860  15.335  0.3966 -0.9527 -0.3704
 6379TIP3    H140628   3.907   4.814  15.251 -0.4268 -0.2711 -0.6851
 6379TIP3    H240629   3.994   4.913  15.326 -1.5145  1.8793 -2.1651
 6380TIP3   OH240630   0.292   4.064   3.035  0.0615  0.1659 -0.6877
 6380TIP3    H140631   0.337   4.148   3.038  0.7669 -0.2229 -0.0169
 6380TIP3    H240632   0.299   4.035   2.944 -0.3049  0.8859 -0.9519
 6381TIP3   OH240633   4.265   4.367  12.344 -0.0069 -0.3256 -0.4438
 6381TIP3    H140634   4.292   4.331  12.259 -0.8910  1.6826 -1.6624
 6381TIP3    H240635   4.218   4.448  12.321  1.6413  1.4638  2.0845
 6382TIP3   OH240636   3.494   4.359  16.951  0.1175  0.0552 -1.0909
 6382TIP3    H140637   3.419   4.367  16.892 -0.5029  1.0998 -0.2029
 6382TIP3    H240638   3.545   4.438  16.935  1.7206 -1.2089 -2.5568
 6383TIP3   OH240639   1.221   1.102   2.917  0.3532  0.1048 -0.0535
 6383TIP3    H140640   1.214   1.021   2.867 -0.7448 -0.3771  0.8514
 6383TIP3    H240641   1.135   1.144   2.908  1.1458  1.6154 -1.2003
 6384TIP3   OH240642   1.103   3.362  15.017  0.4129  0.0467  0.4425
 6384TIP3    H140643   1.045   3.426  14.976  0.8192  0.6958  0.8435
 6384TIP3    H240644   1.143   3.315  14.944  0.3944  0.5153  0.1236
 6385TIP3   OH240645   3.200   5.915   0.427 -0.6160 -0.2158 -0.4832
 6385TIP3    H140646   3.255   5.993   0.432 -0.5076 -0.2895 -0.5336
 6385TIP3    H240647   3.128   5.933   0.488 -0.9214  0.1832 -0.9544
 6386TIP3   OH240648   4.219   1.097   3.864 -0.5869 -0.3296  0.5890
 6386TIP3    H140649   4.298   1.043   3.857  0.4680  1.2473 -0.2839
 6386TIP3    H240650   4.230   1.165   3.798 -2.6958 -0.0461  0.4629
 6387TIP3   OH240651   5.863   1.366   2.490 -0.5115 -0.6971 -0.4117
 6387TIP3    H140652   5.812   1.332   2.417 -1.4157 -1.0335  0.3652
 6387TIP3    H240653   5.802   1.368   2.563  0.2050  0.2394  0.1857
 6388TIP3   OH240654   2.544   6.671  15.130 -0.6082  0.0499 -0.5999
 6388TIP3    H140655   2.528   6.752  15.082 -2.8282  0.4510  0.6775
 6388TIP3    H240656   2.483   6.608  15.092  1.3162 -1.1896 -1.7954
 6389TIP3   OH240657   1.674   2.907   1.081 -0.0051 -0.0677  0.1588
 6389TIP3    H140658   1.670   2.818   1.045  2.9064 -1.1868  2.2144
 6389TIP3    H240659   1.739   2.952   1.028  0.3851 -0.0022  0.6836
 6390TIP3   OH240660   5.386   2.923  15.190 -0.0555  0.2740 -0.0002
 6390TIP3    H140661   5.348   2.837  15.209  1.3865 -0.5261 -0.6400
 6390TIP3    H240662   5.479   2.906  15.175  0.6614  2.2105  1.7539
 6391TIP3   OH240663   5.426   1.707  14.409  0.5105  0.2735 -0.3954
 6391TIP3    H140664   5.477   1.777  14.450  0.4661  0.3743 -0.5137
 6391TIP3    H240665   5.378   1.750  14.338  2.0905 -0.2442 -1.8566
 6392TIP3   OH240666   6.302   1.750  12.743  0.1914  0.0862 -0.0213
 6392TIP3    H140667   6.342   1.837  12.741 -0.0599  0.2231  0.6684
 6392TIP3    H240668   6.209   1.766  12.726 -0.3740  0.2986  2.8262
 6393TIP3   OH240669   0.503   1.656   0.505 -0.3977 -0.2871 -0.6273
 6393TIP3    H140670   0.492   1.631   0.597 -0.2841 -0.6982 -0.7243
 6393TIP3    H240671   0.547   1.741   0.509  0.1938 -0.6035 -0.3102
 6394TIP3   OH240672   5.776   0.187  15.621 -0.1546 -0.5899 -0.1614
 6394TIP3    H140673   5.750   0.107  15.667 -0.9806 -1.4524 -2.0342
 6394TIP3    H240674   5.869   0.175  15.603 -0.5970 -1.8927 -1.7954
 6395TIP3   OH240675   2.061   1.473   5.019 -0.1766 -0.0003  0.1403
 6395TIP3    H140676   1.978   1.448   4.978 -0.1223  1.5851 -1.0095
 6395TIP3    H240677   2.036   1.495   5.110 -1.0773  0.6515 -0.2412
 6396TIP3   OH240678   2.930   3.795   2.855  0.1735 -0.8308 -0.6726
 6396TIP3    H140679   2.869   3.868   2.861  0.4936 -0.6700  0.9856
 6396TIP3    H240680   2.986   3.817   2.781  0.0642  0.4476 -0.4005
 6397TIP3   OH240681   0.030   0.110  11.829 -0.2584 -0.1340 -0.6806
 6397TIP3    H140682  -0.049   0.164  11.816 -0.8571 -1.2695 -1.9710
 6397TIP3    H240683   0.078   0.155  11.899 -1.2827  1.4367 -0.9353
 6398TIP3   OH240684   3.231   3.485  13.360 -0.4945 -0.2377 -0.2282
 6398TIP3    H140685   3.243   3.457  13.269  0.7680  0.5861 -0.3362
 6398TIP3    H240686   3.202   3.576  13.353  2.4130  0.8296  0.1649
 6399TIP3   OH240687   5.994   0.978   4.632 -0.1764 -0.0753  0.0617
 6399TIP3    H140688   6.069   0.922   4.611  0.5770  0.6693  0.7128
 6399TIP3    H240689   6.003   0.996   4.726 -0.3095  1.2682 -0.1700
 6400TIP3   OH240690   5.191   1.646  14.630  0.2452  0.4953 -0.0016
 6400TIP3    H140691   5.189   1.550  14.635 -0.5751  0.4629 -0.8696
 6400TIP3    H240692   5.280   1.666  14.602  0.8558  0.0714  1.5124
 6401TIP3   OH240693   2.467   5.550  13.536 -0.2474 -0.1581  0.0443
 6401TIP3    H140694   2.480   5.501  13.617 -1.0668 -1.0915 -0.3692
 6401TIP3    H240695   2.555   5.574  13.508  0.1209 -0.7906  0.6268
 6402TIP3   OH240696   1.910   6.727   2.261 -0.2389 -0.1816 -0.1205
 6402TIP3    H140697   1.844   6.688   2.319  0.5335  0.3529  1.1543
 6402TIP3    H240698   1.972   6.770   2.320  0.5365  0.4615 -1.3561
 6403TIP3   OH240699   5.791   0.284  12.163 -0.1685 -0.4418  0.2145
 6403TIP3    H140700   5.760   0.375  12.164 -0.3287 -0.4936  1.0484
 6403TIP3    H240701   5.796   0.261  12.070 -0.6161  0.2555  0.0081
 6404TIP3   OH240702   1.317   3.133   4.051  0.1801 -0.6047 -0.1650
 6404TIP3    H140703   1.268   3.085   4.116 -0.4204  0.5292  0.2388
 6404TIP3    H240704   1.275   3.112   3.968 -0.3982 -0.3847  0.0703
 6405TIP3   OH240705   3.731   1.278  12.149 -0.9999 -0.0767  0.6113
 6405TIP3    H140706   3.655   1.227  12.123 -0.5469 -0.4701  0.0374
 6405TIP3    H240707   3.765   1.314  12.068 -0.1449 -0.5143  0.7664
 6406TIP3   OH240708   1.450   5.066  14.786  1.1352  0.4644 -0.1384
 6406TIP3    H140709   1.414   5.075  14.698  0.4144  0.1598  0.1194
 6406TIP3    H240710   1.374   5.073  14.844  0.9637 -3.1845  0.3108
 6407TIP3   OH240711   4.883   6.664   5.440  0.4786  0.2015 -0.1722
 6407TIP3    H140712   4.879   6.578   5.482 -0.8729  0.9845  1.4374
 6407TIP3    H240713   4.957   6.708   5.481 -1.7238  1.5231  2.7547
 6408TIP3   OH240714   3.619   3.901   2.325  0.1429 -0.3819  0.4002
 6408TIP3    H140715   3.665   3.817   2.328 -0.6814 -0.9824 -1.8467
 6408TIP3    H240716   3.527   3.877   2.313 -0.4169  0.8423  1.9079
 6409TIP3   OH240717   4.185   5.186   4.519  0.2483 -0.2784 -0.3068
 6409TIP3    H140718   4.222   5.175   4.431 -2.9407  2.0728 -2.1336
 6409TIP3    H240719   4.249   5.243   4.564  2.1334 -1.8490 -0.8422
 6410TIP3   OH240720   0.696   6.121  11.115  0.7168  0.0687 -0.3258
 6410TIP3    H140721   0.605   6.131  11.087  0.2553 -1.3797  0.5564
 6410TIP3    H240722   0.709   6.194  11.176  0.2096  0.3916 -0.5936
 6411TIP3   OH240723   2.721   3.930   1.403  0.1827  0.4989 -0.0153
 6411TIP3    H140724   2.726   3.872   1.327  0.2933  0.7844 -0.2296
 6411TIP3    H240725   2.810   3.932   1.438  0.2998  0.9619 -0.3308
 6412TIP3   OH240726   6.304   3.056  13.068 -0.0279  0.9711 -0.2487
 6412TIP3    H140727   6.287   3.095  12.983  1.8015 -0.5636 -1.4131
 6412TIP3    H240728   6.398   3.035  13.066 -0.0867  0.2823  1.8814
 6413TIP3   OH240729   5.462   5.705  15.811  0.3008  0.0850 -0.4451
 6413TIP3    H140730   5.393   5.772  15.812  2.3703  2.3786 -0.1048
 6413TIP3    H240731   5.487   5.699  15.718 -0.2854 -0.7126 -0.5615
 6414TIP3   OH240732   5.063   5.451   4.364  0.3319 -0.7148  0.4849
 6414TIP3    H140733   5.010   5.432   4.286 -1.4605  0.2619  1.4002
 6414TIP3    H240734   5.082   5.545   4.358 -0.3200 -0.5002  1.4801
 6415TIP3   OH240735   0.274   1.878  15.075 -0.0024  0.3284  0.2062
 6415TIP3    H140736   0.340   1.853  15.010  0.0185 -1.1386  0.7362
 6415TIP3    H240737   0.287   1.815  15.147 -1.6530  0.3085  0.5262
 6416TIP3   OH240738   1.929   1.567  14.794  0.2755 -0.1797  0.1433
 6416TIP3    H140739   1.971   1.504  14.735  2.1797  1.4003 -0.2852
 6416TIP3    H240740   1.945   1.532  14.882  0.0792 -0.9820 -0.1269
 6417TIP3   OH240741   5.619   0.381   5.451  0.0910  0.3036  0.1936
 6417TIP3    H140742   5.689   0.339   5.499  0.2958 -1.3686 -1.4658
 6417TIP3    H240743   5.551   0.397   5.517  0.4397 -1.6841  1.1176
 6418TIP3   OH240744   3.905   5.462  12.539 -0.7150 -0.2796  0.2889
 6418TIP3    H140745   3.897   5.541  12.592  0.3397  0.4870 -0.6523
 6418TIP3    H240746   3.976   5.413  12.581  2.0039  1.5704 -1.7970
 6419TIP3   OH240747   3.255   3.227   5.095  0.2654  0.2108 -0.5596
 6419TIP3    H140748   3.304   3.278   5.161  0.5580  0.6600 -1.1132
 6419TIP3    H240749   3.253   3.284   5.018 -2.6111  0.9652 -0.0543
 6420TIP3   OH240750   0.659   5.868  12.538 -0.2107  0.0468 -0.2387
 6420TIP3    H140751   0.738   5.815  12.544 -0.7324 -0.7135  0.0636
 6420TIP3    H240752   0.688   5.957  12.560  0.5053 -0.2727  0.1404
 6421TIP3   OH240753   3.180   1.506  16.613  0.0469  0.0470  0.9909
 6421TIP3    H140754   3.102   1.473  16.657 -0.7484  1.9633  1.0805
 6421TIP3    H240755   3.163   1.489  16.520 -0.3612  0.2269  1.0314
 6422TIP3   OH240756   6.782   3.813   4.560  0.6622 -0.1626  0.4580
 6422TIP3    H140757   6.874   3.784   4.565  0.5908 -0.1940  2.1060
 6422TIP3    H240758   6.775   3.883   4.625 -0.1062  0.9931 -0.8119
 6423TIP3   OH240759   3.982   2.238  14.044  0.3622  0.5278  0.6741
 6423TIP3    H140760   3.994   2.157  13.994  0.0919  0.7446  0.2502
 6423TIP3    H240761   4.008   2.215  14.133 -0.5240 -0.2585  0.7440
 6424TIP3   OH240762   0.732   0.528   1.952 -0.1326  0.8746 -0.0488
 6424TIP3    H140763   0.723   0.618   1.922  1.5752  1.1113  0.0185
 6424TIP3    H240764   0.725   0.475   1.873  2.9639  1.3988 -0.8288
 6425TIP3   OH240765   3.193   0.312  10.478  0.0148  0.1345  0.0455
 6425TIP3    H140766   3.201   0.236  10.420  1.0658 -0.9405  1.5145
 6425TIP3    H240767   3.101   0.312  10.504  0.0158 -0.6922  0.0773
 6426TIP3   OH240768   1.991   6.661  13.644 -0.0963  0.5273 -0.4251
 6426TIP3    H140769   1.940   6.726  13.693  1.7241  2.0417 -0.4103
 6426TIP3    H240770   1.995   6.697  13.555  2.3881  1.4237 -0.0225
 6427TIP3   OH240771   3.064   6.217  14.443  0.4197 -0.4087  0.0166
 6427TIP3    H140772   2.997   6.253  14.385  0.7833  2.9170  1.4267
 6427TIP3    H240773   3.142   6.210  14.388  0.4326  1.4980 -0.2838
 6428TIP3   OH240774   1.541   5.206   0.193  0.5563 -0.1346  0.2376
 6428TIP3    H140775   1.493   5.235   0.270  1.3083 -0.6989  0.9329
 6428TIP3    H240776   1.632   5.200   0.222  0.7610 -0.9375 -0.5205
 6429TIP3   OH240777   4.034   0.031   3.643  0.2878  0.1062 -0.2128
 6429TIP3    H140778   4.077   0.095   3.700 -0.0258 -1.2978  1.6865
 6429TIP3    H240779   4.084  -0.049   3.654  0.5525 -0.1055 -2.4146
 6430TIP3   OH240780   1.649   0.973  12.924 -0.1522 -0.5038  0.3071
 6430TIP3    H140781   1.625   0.895  12.973  0.8552 -1.2909 -0.3996
 6430TIP3    H240782   1.568   1.002  12.882 -0.6839 -0.7391  1.1565
 6431TIP3   OH240783   5.648   0.263   5.186 -0.8486  0.3602  0.0007
 6431TIP3    H140784   5.587   0.317   5.136 -1.2815 -0.6436 -0.5759
 6431TIP3    H240785   5.626   0.280   5.277 -1.5463  0.5263 -0.1934
 6432TIP3   OH240786   0.664   5.992  10.796  0.2788 -0.3097 -0.5400
 6432TIP3    H140787   0.644   5.909  10.839  0.6824  0.0498  0.3667
 6432TIP3    H240788   0.682   5.968  10.705 -2.3162 -0.8947 -0.9878
 6433TIP3   OH240789   6.118   0.420   1.050 -0.5684 -0.1754 -0.3062
 6433TIP3    H140790   6.028   0.452   1.059 -0.2308  0.9793 -0.8395
 6433TIP3    H240791   6.150   0.463   0.971  1.2225  1.2743  1.1362
 6434TIP3   OH240792   1.220   0.239  15.478  0.5735 -0.5218  0.6827
 6434TIP3    H140793   1.157   0.206  15.413  0.9987 -0.4107  0.2101
 6434TIP3    H240794   1.255   0.160  15.519  0.1112 -0.5840  0.9627
 6435TIP3   OH240795   1.189   0.098  16.937  0.4374 -0.0261  0.3544
 6435TIP3    H140796   1.263   0.157  16.922  1.0832 -0.8799  0.1277
 6435TIP3    H240797   1.219   0.013  16.907 -0.1307 -0.6845  1.5560
 6436TIP3   OH240798   6.090   6.154  14.511 -0.2864  0.6246  0.3821
 6436TIP3    H140799   6.104   6.061  14.529  0.5656  0.4461 -1.0598
 6436TIP3    H240800   6.177   6.189  14.496 -0.3708  2.1814  3.0375
 6437TIP3   OH240801   0.474   3.173  16.182  0.1875 -0.4377 -0.0437
 6437TIP3    H140802   0.537   3.241  16.208  1.9547 -2.5018  1.3739
 6437TIP3    H240803   0.396   3.222  16.155  0.8074  2.1433  2.3649
 6438TIP3   OH240804   4.404   6.654   0.808 -0.3056 -0.7333 -0.0625
 6438TIP3    H140805   4.311   6.634   0.800 -0.3628 -0.1851 -0.9600
 6438TIP3    H240806   4.426   6.629   0.897 -0.7090 -3.2724 -0.5864
 6439TIP3   OH240807   5.698   2.907  16.062 -0.0638  0.6782 -0.5067
 6439TIP3    H140808   5.701   2.813  16.078 -1.2192  0.5776 -0.7747
 6439TIP3    H240809   5.688   2.946  16.149 -0.7658  0.4741 -0.4901
 6440TIP3   OH240810   2.389   0.500  12.531 -0.5400  0.0867  0.5287
 6440TIP3    H140811   2.397   0.572  12.594 -0.5473 -0.5251  1.2393
 6440TIP3    H240812   2.322   0.443  12.568 -0.1342 -0.5791  0.2604
 6441TIP3   OH240813   4.298   2.233  13.630  0.1085  0.2775  0.2131
 6441TIP3    H140814   4.254   2.250  13.547  0.9172  1.7770  0.0581
 6441TIP3    H240815   4.382   2.193  13.604  0.5334  1.1138  0.2623
 6442TIP3   OH240816   0.421   1.696   3.088  0.4197  0.4569  0.0036
 6442TIP3    H140817   0.432   1.613   3.042  1.7353  0.7914 -0.3362
 6442TIP3    H240818   0.363   1.675   3.161 -0.0056 -0.5506 -0.6046
 6443TIP3   OH240819   3.193   3.760   4.895 -0.2511  0.0701 -0.2661
 6443TIP3    H140820   3.184   3.799   4.982 -1.8229 -0.9432  0.0565
 6443TIP3    H240821   3.141   3.816   4.837  1.7367  1.4400 -0.8502
 6444TIP3   OH240822   1.635   0.864   6.373  0.5312 -0.4403 -0.7130
 6444TIP3    H140823   1.673   0.940   6.417  0.4383 -0.6303 -0.2951
 6444TIP3    H240824   1.621   0.801   6.443 -0.3780 -0.4464 -0.8855
 6445TIP3   OH240825   1.088   6.246  15.315 -0.0992  0.0021  0.5323
 6445TIP3    H140826   1.142   6.230  15.238  0.2538  0.5496  0.6631
 6445TIP3    H240827   1.150   6.265  15.385 -0.4269 -0.2976  0.9071
 6446TIP3   OH240828   1.081   2.121   1.365 -0.1639  0.5497 -0.0765
 6446TIP3    H140829   0.997   2.111   1.319  0.1018 -0.2661 -0.3928
 6446TIP3    H240830   1.126   2.038   1.351  0.6926  0.9757  0.1082
 6447TIP3   OH240831   1.494   5.584  13.070  1.0223 -0.4780 -0.1205
 6447TIP3    H140832   1.541   5.521  13.124  0.8956 -0.3114  0.1874
 6447TIP3    H240833   1.548   5.663  13.073  1.3486 -0.6681 -0.7718
 6448TIP3   OH240834   5.604   1.858  11.688 -0.5025  0.1239  1.1758
 6448TIP3    H140835   5.572   1.943  11.720  0.1464  1.3945 -1.2840
 6448TIP3    H240836   5.691   1.850  11.726 -0.2409  0.9798  0.7788
 6449TIP3   OH240837   6.047   3.645   1.676  0.0081 -0.0939  0.8274
 6449TIP3    H140838   6.040   3.713   1.743 -1.3722  0.0835  0.5238
 6449TIP3    H240839   6.116   3.587   1.709 -1.6525 -0.8884  3.2410
 6450TIP3   OH240840   0.491   2.471   5.315  0.0823 -0.1310  0.1728
 6450TIP3    H140841   0.399   2.496   5.323 -0.0012  0.3435 -1.7035
 6450TIP3    H240842   0.489   2.391   5.262  0.7360 -0.2918  0.3884
 6451TIP3   OH240843   1.963   6.463   1.138 -0.2893  0.4292 -0.5851
 6451TIP3    H140844   1.890   6.408   1.111  0.1753 -1.0133  0.8851
 6451TIP3    H240845   1.923   6.543   1.171 -1.1376  0.0391 -0.6526
 6452TIP3   OH240846   1.806   1.866  16.362 -0.4710  0.5375  0.0514
 6452TIP3    H140847   1.718   1.870  16.324  0.3120  1.6265 -1.8166
 6452TIP3    H240848   1.854   1.936  16.317  0.7336  1.5856  2.7444
 6453TIP3   OH240849   4.385   1.624  14.819  0.3706  0.0188 -0.2378
 6453TIP3    H140850   4.356   1.715  14.817  1.0485  0.2321 -0.7976
 6453TIP3    H240851   4.413   1.609  14.910 -2.9326 -0.6881  0.7867
 6454TIP3   OH240852   2.813   3.910   3.544  0.5649  0.3150  0.0309
 6454TIP3    H140853   2.770   3.909   3.630  1.7713 -2.2792  0.6870
 6454TIP3    H240854   2.878   3.980   3.552 -2.6092  3.6609 -0.6618
 6455TIP3   OH240855   6.566   6.176  15.637  0.2815 -0.1843  0.0191
 6455TIP3    H140856   6.482   6.150  15.599  0.4060  1.4725 -1.4965
 6455TIP3    H240857   6.555   6.161  15.731 -1.6718 -0.1079 -0.1630
 6456TIP3   OH240858   3.029   2.246   4.396 -0.2273  0.2478  0.0868
 6456TIP3    H140859   3.105   2.188   4.387  0.3549  1.1409 -0.9547
 6456TIP3    H240860   2.978   2.207   4.467  1.1554 -0.4197  0.7580
 6457TIP3   OH240861   4.831   4.693  16.688 -0.5437  0.3022  0.4025
 6457TIP3    H140862   4.877   4.774  16.666  0.8534 -0.5012  0.2636
 6457TIP3    H240863   4.794   4.663  16.604  1.7519 -0.8902 -0.2663
 6458TIP3   OH240864   4.246   3.151   6.061  0.2387  0.0247 -0.8980
 6458TIP3    H140865   4.284   3.196   6.136 -0.3179  0.4666 -0.8713
 6458TIP3    H240866   4.261   3.058   6.078 -0.6148  0.0584  0.1798
 6459TIP3   OH240867   5.637   3.888   3.025 -0.2949  0.1607 -0.0731
 6459TIP3    H140868   5.589   3.806   3.022 -1.5234  0.7770  1.3045
 6459TIP3    H240869   5.640   3.911   3.118 -0.0281  1.6949 -0.4290
 6460TIP3   OH240870   3.086   1.856  15.472  0.3581 -0.0669  0.3460
 6460TIP3    H140871   3.089   1.832  15.379 -0.0306 -0.5447  0.4516
 6460TIP3    H240872   3.108   1.776  15.519  1.8775  0.5067  0.6480
 6461TIP3   OH240873   3.585   2.904   4.003 -0.3325  0.5540 -0.1332
 6461TIP3    H140874   3.611   2.974   3.944  1.3326 -1.4527 -1.9602
 6461TIP3    H240875   3.666   2.879   4.048 -0.4380 -1.3521 -0.8944
 6462TIP3   OH240876   6.070   6.314  14.219 -0.1575 -0.0490  0.2474
 6462TIP3    H140877   6.088   6.220  14.210 -0.6214  0.0274 -2.6734
 6462TIP3    H240878   6.149   6.357  14.186 -0.7310  0.5212 -0.4185
 6463TIP3   OH240879   0.270   4.680  10.688 -0.2525  0.3781 -0.6311
 6463TIP3    H140880   0.357   4.645  10.667 -1.2170 -1.3065 -2.1309
 6463TIP3    H240881   0.239   4.718  10.606 -1.5992 -0.6408 -0.6375
 6464TIP3   OH240882   3.306   1.499  13.031 -0.2762  0.4972  0.4047
 6464TIP3    H140883   3.261   1.543  12.960  1.5590  1.3244 -0.2867
 6464TIP3    H240884   3.350   1.425  12.990 -0.3049  0.1831  0.9207
 6465TIP3   OH240885   3.814   0.096  17.211 -0.7072  0.1024  0.2217
 6465TIP3    H140886   3.722   0.101  17.183 -0.9853 -0.0028  1.0749
 6465TIP3    H240887   3.821   0.161  17.281 -0.1394  0.0851  0.1856
 6466TIP3   OH240888   1.833   6.172   6.299  0.0487  0.3089  0.3862
 6466TIP3    H140889   1.918   6.129   6.291 -0.4072 -0.7770  1.1425
 6466TIP3    H240890   1.804   6.151   6.388 -0.6651  1.3381  0.4155
 6467TIP3   OH240891   5.682   1.248   2.345 -0.2337  0.7336 -0.4018
 6467TIP3    H140892   5.623   1.258   2.271 -0.5031 -0.9415 -0.4476
 6467TIP3    H240893   5.624   1.229   2.419  0.0571  2.0737  0.2086
 6468TIP3   OH240894   6.059   2.752   4.521  0.6681 -0.6556  0.3130
 6468TIP3    H140895   6.043   2.664   4.555  2.3151 -1.0494  0.1512
 6468TIP3    H240896   6.019   2.811   4.585  2.1743 -1.4384  2.0403
 6469TIP3   OH240897   0.660   4.329  11.799  0.2893 -0.1238 -0.3994
 6469TIP3    H140898   0.701   4.398  11.747  1.0450 -1.0604 -1.0736
 6469TIP3    H240899   0.576   4.367  11.827  0.6887  1.0650 -0.7283
 6470TIP3   OH240900   1.962   5.311   4.282  0.5659 -0.1827 -0.2712
 6470TIP3    H140901   1.963   5.217   4.261 -0.7056 -0.7337  1.8229
 6470TIP3    H240902   1.919   5.351   4.207 -0.7569 -1.5839 -0.3179
 6471TIP3   OH240903   6.042   2.110  14.820 -0.2586 -0.1094  0.1823
 6471TIP3    H140904   6.098   2.154  14.884 -1.4084  1.2585  0.3078
 6471TIP3    H240905   6.083   2.025  14.806  1.0681  0.3136  1.2932
 6472TIP3   OH240906   5.506   3.740  15.831  0.3249  0.1565 -0.5957
 6472TIP3    H140907   5.585   3.779  15.869 -0.2614  0.8568 -0.0693
 6472TIP3    H240908   5.537   3.694  15.754  1.0834  1.4966 -1.1285
 6473TIP3   OH240909   4.809   2.026   1.888 -0.2039 -0.9781 -0.6656
 6473TIP3    H140910   4.877   2.067   1.943 -1.6363  1.3555 -0.4703
 6473TIP3    H240911   4.857   1.967   1.830  1.8163 -0.4835  0.4076
 6474TIP3   OH240912   6.580   5.456   1.719 -0.1901 -0.8818 -0.1988
 6474TIP3    H140913   6.649   5.519   1.737 -1.1648  0.4340 -0.8793
 6474TIP3    H240914   6.510   5.508   1.679 -0.6397 -2.5640 -1.7306
 6475TIP3   OH240915   4.944   4.249  11.567 -1.0128 -0.1754  0.0865
 6475TIP3    H140916   4.969   4.187  11.636  0.3880  0.8878  0.5905
 6475TIP3    H240917   4.848   4.247  11.567 -1.0028 -1.6812  0.6821
 6476TIP3   OH240918   1.073   2.325  15.726 -0.2837 -0.3211  0.5770
 6476TIP3    H140919   1.148   2.303  15.782 -1.3572 -1.6752  1.5576
 6476TIP3    H240920   1.105   2.312  15.637  1.3258  1.4203  0.8456
 6477TIP3   OH240921   6.679   3.406   1.396 -0.3067  0.2215  0.1107
 6477TIP3    H140922   6.701   3.341   1.462  1.0007  0.4528 -0.0571
 6477TIP3    H240923   6.718   3.372   1.315  0.3551  1.1737  0.0135
 6478TIP3   OH240924   1.891   0.035   3.788 -0.0180  0.6148  0.3076
 6478TIP3    H140925   1.881  -0.025   3.861 -1.6185  0.5778  0.0962
 6478TIP3    H240926   1.878  -0.019   3.710  2.4749  0.4896 -0.0875
 6479TIP3   OH240927   0.756   5.674  16.666  0.1449  0.4930  0.1650
 6479TIP3    H140928   0.806   5.619  16.725 -1.0468  1.2187  1.9531
 6479TIP3    H240929   0.763   5.762  16.703 -1.8717  0.7214  0.1542
 6480TIP3   OH240930   2.483   3.616  10.505 -0.3057  0.3551 -0.0774
 6480TIP3    H140931   2.492   3.529  10.466  1.7115 -0.1471  1.3302
 6480TIP3    H240932   2.541   3.613  10.581 -0.8792  2.6626  0.5034
 6481TIP3   OH240933   4.054   6.142   4.709 -0.2006 -0.4951 -0.0557
 6481TIP3    H140934   4.136   6.181   4.740 -1.7578  2.0950  1.1497
 6481TIP3    H240935   4.028   6.198   4.635 -1.8845  0.0858  0.9139
 6482TIP3   OH240936   4.671   6.627   6.376  0.1513 -0.1554 -0.1192
 6482TIP3    H140937   4.741   6.691   6.361 -0.0868  0.0171 -0.5242
 6482TIP3    H240938   4.680   6.565   6.304  1.3048 -1.4355  1.0627
 6483TIP3   OH240939   3.345   5.307   5.082 -0.2222  0.0815 -0.2934
 6483TIP3    H140940   3.399   5.257   5.020 -0.1582 -0.7162  0.3756
 6483TIP3    H240941   3.280   5.244   5.114 -1.7907  1.1162 -1.3267
 6484TIP3   OH240942   6.385   2.191  15.189 -0.2544 -0.2289 -0.1789
 6484TIP3    H140943   6.447   2.265  15.181  0.6155 -0.9860 -0.6636
 6484TIP3    H240944   6.431   2.118  15.148 -1.0779 -1.0641  0.3705
 6485TIP3   OH240945   0.294   2.987  16.968  0.2323  0.0047  0.0526
 6485TIP3    H140946   0.334   2.956  17.050  1.2942 -0.6796 -0.6997
 6485TIP3    H240947   0.223   3.045  16.997 -0.6197 -1.6500  1.4851
 6486TIP3   OH240948   5.124   6.520   0.597 -0.2391 -0.0920 -0.0056
 6486TIP3    H140949   5.120   6.592   0.659  0.9513  0.2386 -0.2998
 6486TIP3    H240950   5.065   6.546   0.526  1.9720  1.7753 -1.2953
 6487TIP3   OH240951   3.421   5.755   5.192 -0.3218  0.9046 -0.2814
 6487TIP3    H140952   3.367   5.751   5.114  0.2655  0.0569 -0.6500
 6487TIP3    H240953   3.416   5.668   5.231 -1.7460  1.6906  1.4241
 6488TIP3   OH240954   5.723   4.638   4.023  0.6061 -0.2531  0.2737
 6488TIP3    H140955   5.723   4.582   3.945 -1.7618 -0.6481  0.4821
 6488TIP3    H240956   5.732   4.726   3.988 -0.4007 -0.4258 -0.4840
 6489TIP3   OH240957   4.160   3.446   4.649 -0.5413 -0.1257 -0.0759
 6489TIP3    H140958   4.171   3.520   4.590 -1.0706  0.0393  0.0227
 6489TIP3    H240959   4.207   3.470   4.729  0.0224 -0.2719 -0.3622
 6490TIP3   OH240960   0.501   0.928   4.351 -0.4387  0.4754  0.0988
 6490TIP3    H140961   0.420   0.887   4.319  0.1266 -0.5453 -0.0512
 6490TIP3    H240962   0.490   1.021   4.329 -1.5016  0.3313 -0.0604
 6491TIP3   OH240963   6.811   5.330   2.120 -0.7996 -0.0886  0.0716
 6491TIP3    H140964   6.811   5.246   2.166 -1.0038  0.4314  1.0458
 6491TIP3    H240965   6.720   5.341   2.091 -1.1497  0.4904  1.2930
 6492TIP3   OH240966   4.588   0.602  12.819 -0.0394  0.2310 -0.2258
 6492TIP3    H140967   4.567   0.527  12.765 -0.9320  1.9306 -2.3765
 6492TIP3    H240968   4.631   0.664  12.760 -0.2627  1.8451  1.1946
 6493TIP3   OH240969   5.531   3.921  15.309  0.4506 -0.0843  0.2363
 6493TIP3    H140970   5.618   3.923  15.270 -0.0469  1.4976 -0.9156
 6493TIP3    H240971   5.543   3.955  15.398  0.8773  1.0661 -0.2458
 6494TIP3   OH240972   2.667   3.367   1.347  0.6647 -0.2149  0.1574
 6494TIP3    H140973   2.642   3.378   1.255 -0.0539 -0.5716  0.3045
 6494TIP3    H240974   2.750   3.415   1.355  0.1353  0.8324 -0.3976
 6495TIP3   OH240975   1.508   3.261   3.202 -0.0587 -0.1518 -0.3701
 6495TIP3    H140976   1.544   3.199   3.266  3.0781 -0.6366 -2.3807
 6495TIP3    H240977   1.509   3.214   3.119 -3.9323  0.4820 -0.9516
 6496TIP3   OH240978   3.481   3.155  16.246  0.6635 -0.9558  0.1929
 6496TIP3    H140979   3.539   3.139  16.320  1.2127  0.0861  0.0106
 6496TIP3    H240980   3.492   3.249  16.227 -0.7834 -0.8212 -0.0944
 6497TIP3   OH240981   6.748   3.683   1.497 -0.4262  0.3118  0.2577
 6497TIP3    H140982   6.729   3.604   1.446  1.3275 -1.0066  1.4821
 6497TIP3    H240983   6.842   3.676   1.517 -0.5708  1.8991  1.7364
 6498TIP3   OH240984   2.386   2.601  16.659  0.0808  0.3906 -0.2397
 6498TIP3    H140985   2.438   2.585  16.580  0.0623  0.2443 -0.2242
 6498TIP3    H240986   2.323   2.668  16.633  0.0722  0.3405 -0.3519
 6499TIP3   OH240987   6.113   5.158   5.917  0.2364 -0.1562 -0.2638
 6499TIP3    H140988   6.060   5.237   5.910 -0.1586 -0.4769 -1.0711
 6499TIP3    H240989   6.177   5.177   5.986 -1.1797  0.0924  1.0278
 6500TIP3   OH240990   0.337   1.972  12.565  0.0811  0.1800  0.8057
 6500TIP3    H140991   0.400   2.023  12.615 -1.9051  2.0162  1.6019
 6500TIP3    H240992   0.343   2.006  12.476 -0.1852  0.7932  1.0139
 6501TIP3   OH240993   3.500   4.548  12.199  0.6951 -0.6027  0.0704
 6501TIP3    H140994   3.522   4.466  12.155  0.4021 -1.3074  1.2009
 6501TIP3    H240995   3.561   4.554  12.272  0.4489 -0.0196  0.2380
 6502TIP3   OH240996   4.036   1.068  12.708 -0.3146 -0.2925  0.2012
 6502TIP3    H140997   4.049   0.975  12.695  2.8899  0.0386  0.3494
 6502TIP3    H240998   4.012   1.076  12.800  0.0559 -0.9306  0.3599
 6503TIP3   OH240999   6.733   5.592  16.094 -0.1912  1.1284  0.0176
 6503TIP3    H141000   6.732   5.569  16.001 -0.0364 -0.6144  0.4095
 6503TIP3    H241001   6.642   5.587  16.121 -0.4459  3.1376 -0.3450
 6504TIP3   OH241002   1.113   1.220  10.390 -0.1165  0.1733  0.3185
 6504TIP3    H141003   1.037   1.201  10.336 -0.8143  0.6808  1.0927
 6504TIP3    H241004   1.085   1.292  10.447  1.1879  0.9059  0.0880
 6505TIP3   OH241005   4.322   0.060  11.880  0.2549 -0.0266 -0.3059
 6505TIP3    H141006   4.274   0.134  11.916  1.0812  1.2144 -1.6543
 6505TIP3    H241007   4.375   0.028  11.953  0.6581  1.3866  0.0573
 6506TIP3   OH241008   3.850   3.311   3.935 -0.7276 -0.3411 -0.1101
 6506TIP3    H141009   3.773   3.254   3.928 -0.6069 -0.3042 -2.5323
 6506TIP3    H241010   3.900   3.294   3.855  0.9172  0.9151  0.5829
 6507TIP3   OH241011   2.706   0.753   3.544 -0.6928 -0.2173 -0.2546
 6507TIP3    H141012   2.689   0.676   3.489  1.8461 -1.6096  0.7705
 6507TIP3    H241013   2.783   0.730   3.596  0.8777  3.4379 -0.6407
 6508TIP3   OH241014   6.731   1.230   5.262 -0.1247  0.5789  0.9119
 6508TIP3    H141015   6.664   1.248   5.328  0.3651 -0.7123  1.8074
 6508TIP3    H241016   6.693   1.261   5.180 -1.8792 -0.2405  1.3710
 6509TIP3   OH241017   3.303   5.374  14.818  0.5923 -0.3754 -0.5142
 6509TIP3    H141018   3.253   5.359  14.738 -0.4331  0.1236  0.0150
 6509TIP3    H241019   3.262   5.317  14.883  2.0075 -1.4796 -0.5489
 6510TIP3   OH241020   0.543   3.101   4.710 -0.4937  0.0020 -0.0112
 6510TIP3    H141021   0.451   3.114   4.687 -0.2765 -1.4684 -1.9417
 6510TIP3    H241022   0.582   3.062   4.632  1.8506  0.8371  0.6666
 6511TIP3   OH241023   1.127   5.415  16.536 -0.0580  0.0087 -0.1838
 6511TIP3    H141024   1.077   5.431  16.456 -2.5503 -0.5460  1.1380
 6511TIP3    H241025   1.089   5.334  16.571  0.0919  0.8785  2.1547
 6512TIP3   OH241026   2.788   6.413   5.676 -0.4604  0.6202  0.5711
 6512TIP3    H141027   2.720   6.470   5.641 -0.2550 -0.1886 -1.2172
 6512TIP3    H241028   2.787   6.336   5.620  0.3314 -0.4563  1.9798
 6513TIP3   OH241029   2.635   0.092   2.060  0.2675  0.0996  0.2968
 6513TIP3    H141030   2.726   0.088   2.090  0.3080 -0.3911  0.1110
 6513TIP3    H241031   2.590   0.139   2.130  0.8769  1.3987 -0.1383
 6514TIP3   OH241032   5.353   5.208   4.381 -0.2043 -0.1718  0.3015
 6514TIP3    H141033   5.341   5.130   4.327  1.5713 -1.7482  2.0373
 6514TIP3    H241034   5.377   5.277   4.319  0.0887 -1.4671 -1.0876
 6515TIP3   OH241035   6.446   6.682  14.596  0.5135 -0.2561  0.2917
 6515TIP3    H141036   6.519   6.738  14.567 -0.1481  0.5874  0.2111
 6515TIP3    H241037   6.372   6.743  14.606  0.6184 -0.4703  3.5223
 6516TIP3   OH241038   1.480   3.414  12.840  0.7156 -0.3604  0.3878
 6516TIP3    H141039   1.398   3.456  12.868  1.1130  0.8681 -0.1908
 6516TIP3    H241040   1.452   3.343  12.782  0.0683  0.5624 -0.4686
 6517TIP3   OH241041   2.803   0.937  13.644  0.1209  0.1228 -0.0004
 6517TIP3    H141042   2.752   0.972  13.571 -2.0421  0.2497  1.4793
 6517TIP3    H241043   2.849   1.014  13.679  0.3410  0.2570 -0.5602
 6518TIP3   OH241044   6.408   3.984  16.134  0.3402 -0.2541 -0.5925
 6518TIP3    H141045   6.470   3.920  16.099 -0.4284 -1.0643 -0.4877
 6518TIP3    H241046   6.452   4.069  16.122  1.1358 -0.7429 -1.2245
 6519TIP3   OH241047   0.067   5.793  13.624  0.2040 -0.4916 -0.1027
 6519TIP3    H141048   0.032   5.710  13.591 -0.5572 -2.0249  3.9226
 6519TIP3    H241049   0.013   5.860  13.584 -0.9675 -2.1285 -1.4048
 6520TIP3   OH241050   3.116   5.968  14.569 -0.1072  0.0700 -0.1150
 6520TIP3    H141051   3.066   5.977  14.650 -1.1307 -1.1296 -0.5799
 6520TIP3    H241052   3.119   6.057  14.533  0.3117  0.6123  1.1787
 6521TIP3   OH241053   4.154   6.484   1.968  0.0357 -0.5237 -0.8292
 6521TIP3    H141054   4.183   6.394   1.988  0.2587 -0.2985 -0.0778
 6521TIP3    H241055   4.230   6.525   1.928  1.1332  0.2948  1.8243
 6522TIP3   OH241056   5.097   3.398   5.045  0.0026  0.1026 -0.1776
 6522TIP3    H141057   5.071   3.460   5.114 -1.1853  1.4179 -1.7195
 6522TIP3    H241058   5.173   3.353   5.081 -0.5678  0.7197  1.9890
 6523TIP3   OH241059   1.332   4.690  16.456 -0.2696 -0.7790  0.8759
 6523TIP3    H141060   1.415   4.685  16.408 -0.2823  3.1045  0.1131
 6523TIP3    H241061   1.358   4.697  16.548  0.1923 -0.6847  0.7414
 6524TIP3   OH241062   6.445   3.385  12.993  0.1366 -0.3342 -0.2884
 6524TIP3    H141063   6.400   3.338  12.923 -0.4800 -2.8197  1.6352
 6524TIP3    H241064   6.375   3.425  13.044  0.5769  1.4294 -1.0050
 6525TIP3   OH241065   3.457   2.572  15.839 -0.5628 -0.2583 -0.2987
 6525TIP3    H141066   3.434   2.654  15.882 -0.2271 -0.4114  0.1884
 6525TIP3    H241067   3.378   2.518  15.848 -1.2100  0.4138 -1.6784
 6526TIP3   OH241068   6.723   0.330  14.669 -0.0580  0.4805  0.3404
 6526TIP3    H141069   6.797   0.391  14.675 -1.4262  2.1116  1.8020
 6526TIP3    H241070   6.692   0.321  14.759  0.6616 -3.2568  0.3409
 6527TIP3   OH241071   4.585   4.320   5.392  0.0304  0.1578  0.0109
 6527TIP3    H141072   4.565   4.258   5.462 -0.7005 -0.1994 -0.4993
 6527TIP3    H241073   4.502   4.366   5.376  0.0683 -0.0583 -0.8972
 6528TIP3   OH241074   6.147   1.020  16.449 -0.5003 -0.1635  0.6790
 6528TIP3    H141075   6.190   0.945  16.407 -0.4697  0.7197 -0.9612
 6528TIP3    H241076   6.054   0.995  16.453 -0.8010  0.3957 -1.5762
 6529TIP3   OH241077   5.812   4.435  13.393  0.1123  0.8395  0.3273
 6529TIP3    H141078   5.743   4.495  13.421 -0.3813  0.7358 -0.6223
 6529TIP3    H241079   5.821   4.373  13.465 -0.7466  0.8932  0.4865
 6530TIP3   OH241080   1.683   0.509   2.271 -0.2919  0.2251  0.0457
 6530TIP3    H141081   1.679   0.545   2.359  1.9042  2.3771 -0.6440
 6530TIP3    H241082   1.752   0.443   2.275 -1.7130 -1.3316  0.3794
 6531TIP3   OH241083   3.657   1.147  14.285  0.0857 -0.0450 -0.4205
 6531TIP3    H141084   3.673   1.205  14.210 -2.8800  0.1644 -0.9956
 6531TIP3    H241085   3.640   1.062  14.246 -0.4467 -0.1727  0.0900
 6532TIP3   OH241086   1.325   6.602   4.961  0.1979  0.1436  0.2516
 6532TIP3    H141087   1.405   6.643   4.996  0.9690 -1.3256  0.3135
 6532TIP3    H241088   1.340   6.509   4.974 -0.7193 -0.2745 -1.4812
 6533TIP3   OH241089   0.831   2.857   2.613  0.0645  0.4066 -0.6366
 6533TIP3    H141090   0.831   2.908   2.533  0.2468 -0.7035 -1.3717
 6533TIP3    H241091   0.883   2.908   2.675  0.7513  0.8101 -1.5326
 6534TIP3   OH241092   1.634   4.559   2.229  0.0139  0.0560 -0.0015
 6534TIP3    H141093   1.642   4.617   2.305  1.0013 -2.1251  1.6548
 6534TIP3    H241094   1.544   4.528   2.232  0.8180 -2.4133  2.2464
 6535TIP3   OH241095   2.678   4.990  15.720  0.5732 -0.1870 -0.7316
 6535TIP3    H141096   2.736   5.026  15.787 -0.8528 -2.5079  1.9687
 6535TIP3    H241097   2.642   5.067  15.676  3.0107  1.3896 -0.1646
 6536TIP3   OH241098   4.553   3.893   3.138  0.2214 -0.0759  0.4708
 6536TIP3    H141099   4.516   3.976   3.109  0.6699  0.0671  0.2905
 6536TIP3    H241100   4.643   3.895   3.107  0.7450  0.1016  1.9110
 6537TIP3   OH241101   0.970   6.756  14.356  0.3618  0.0724  0.5092
 6537TIP3    H141102   1.017   6.689  14.405  1.9153 -0.4976 -1.6504
 6537TIP3    H241103   0.885   6.763  14.401  1.3275 -1.0596  2.6570
 6538TIP3   OH241104   2.506   6.624  13.922 -0.0760  0.1741  0.0087
 6538TIP3    H141105   2.427   6.586  13.961 -0.0808  0.6154  0.4334
 6538TIP3    H241106   2.485   6.716  13.910 -0.6217 -0.1848 -2.4173
 6539TIP3   OH241107   5.312   5.744   5.650  0.0278 -0.3134  0.7362
 6539TIP3    H141108   5.322   5.682   5.722  2.5844 -0.7400  0.1325
 6539TIP3    H241109   5.401   5.753   5.614 -0.8803  1.0851 -1.3659
 6540TIP3   OH241110   5.761   6.324  13.958 -0.0630 -0.2596 -0.0115
 6540TIP3    H141111   5.750   6.367  13.873 -3.6680 -0.2291  0.2999
 6540TIP3    H241112   5.778   6.232  13.936 -0.8601 -0.2379 -0.7972
 6541TIP3   OH241113   6.301   3.704   1.013 -0.3175  0.0463  0.3672
 6541TIP3    H141114   6.252   3.622   1.016  0.6024 -0.7400 -2.6493
 6541TIP3    H241115   6.242   3.769   1.051 -1.8981 -1.6300  0.8922
 6542TIP3   OH241116   1.966   3.103   0.149 -0.1856  0.1774 -0.3854
 6542TIP3    H141117   1.987   3.146   0.065  0.4134 -0.6480 -0.6774
 6542TIP3    H241118   2.051   3.074   0.182 -0.1957  2.0496  1.4021
 6543TIP3   OH241119   3.150   5.063   4.715  0.4319  0.0909 -0.4051
 6543TIP3    H141120   3.151   4.983   4.662 -0.1354 -0.6234  0.6237
 6543TIP3    H241121   3.228   5.111   4.687  1.0652 -1.0631 -0.6891
 6544TIP3   OH241122   5.873   2.756  15.685  0.4628 -0.2795 -0.0229
 6544TIP3    H141123   5.965   2.731  15.681  0.1533 -1.4777 -0.1567
 6544TIP3    H241124   5.826   2.676  15.661 -0.5790  0.6488 -1.1599
 6545TIP3   OH241125   2.206   3.967  15.521 -0.4365 -0.0078  0.1488
 6545TIP3    H141126   2.223   3.958  15.615  2.4596  2.0169 -0.0389
 6545TIP3    H241127   2.142   4.038  15.514 -1.0099 -0.4737  0.5845
 6546TIP3   OH241128   4.007   0.215  11.835  0.5988  0.3204 -0.9006
 6546TIP3    H141129   4.061   0.293  11.851  1.4935 -0.5054  0.2773
 6546TIP3    H241130   3.954   0.206  11.915  2.8286 -2.0639  0.4721
 6547TIP3   OH241131   4.573   2.398   0.086  0.0059 -0.3979 -0.8792
 6547TIP3    H141132   4.489   2.445   0.087  0.2847  0.0956 -0.7454
 6547TIP3    H241133   4.609   2.417  -0.001 -0.3334 -1.1750 -1.2023
 6548TIP3   OH241134   2.343   2.590   0.054 -0.2993  0.5326 -0.0642
 6548TIP3    H141135   2.437   2.595   0.039  0.0474 -1.4787  1.0334
 6548TIP3    H241136   2.323   2.496   0.045 -1.9032  0.7037  1.2966
 6549TIP3   OH241137   2.462   1.303  15.416 -0.3303 -0.6105  0.2032
 6549TIP3    H141138   2.467   1.210  15.396 -0.6869 -0.3062 -1.4682
 6549TIP3    H241139   2.503   1.346  15.341 -2.4042  0.6524 -0.2791
 6550TIP3   OH241140   4.386   2.430  16.182  0.0115 -0.1414 -0.2846
 6550TIP3    H141141   4.444   2.411  16.255 -0.8006 -2.3821 -0.1289
 6550TIP3    H241142   4.429   2.391  16.106  0.7437  1.9747 -1.0148
 6551TIP3   OH241143   5.297   2.754   4.081 -0.0191  0.0559 -0.1565
 6551TIP3    H141144   5.307   2.774   4.175 -0.4375  0.8779 -0.2813
 6551TIP3    H241145   5.387   2.742   4.050  0.1247 -0.1978  0.3461
 6552TIP3   OH241146   5.502   3.516  16.201 -0.0811 -0.2182  0.0395
 6552TIP3    H141147   5.507   3.531  16.295 -0.8738  0.8585 -0.0608
 6552TIP3    H241148   5.592   3.504  16.173  0.3236  1.1922  0.6796
 6553TIP3   OH241149   3.547   6.319  14.563  0.7999  0.0277  0.0420
 6553TIP3    H141150   3.586   6.243  14.606  0.6547 -0.5526 -0.8295
 6553TIP3    H241151   3.593   6.326  14.480 -0.4831 -0.2781 -0.7187
 6554TIP3   OH241152   0.823   6.575  14.604  0.1079 -0.0552 -0.1444
 6554TIP3    H141153   0.801   6.532  14.686  0.9537 -0.4755 -0.1200
 6554TIP3    H241154   0.742   6.616  14.575 -0.1063  0.4577  1.1123
 6555TIP3   OH241155   3.915   2.180   6.737 -0.6120 -0.4483 -0.1933
 6555TIP3    H141156   3.850   2.196   6.806  0.0221  0.3206  0.2375
 6555TIP3    H241157   3.944   2.090   6.752 -0.5646 -0.3266  0.4687
 6556TIP3   OH241158   4.902   0.571   2.035  0.0891 -0.0570  0.4357
 6556TIP3    H141159   4.950   0.607   2.110 -1.5547  1.9939  0.6184
 6556TIP3    H241160   4.821   0.537   2.074  0.0690 -0.7496 -0.1978
 6557TIP3   OH241161   5.176   0.117  10.730  0.2639 -0.2867  0.0896
 6557TIP3    H141162   5.102   0.127  10.670 -0.1384 -1.4133  0.3778
 6557TIP3    H241163   5.187   0.204  10.768 -0.4097  0.0849 -0.5340
 6558TIP3   OH241164   3.294   2.568   5.053 -0.7162 -0.5492  0.0041
 6558TIP3    H141165   3.239   2.562   5.132 -0.4816 -0.0173  0.2150
 6558TIP3    H241166   3.338   2.653   5.061 -1.5291  0.0251 -1.2460
 6559TIP3   OH241167   5.148   3.624  11.044  0.1789  0.3180  0.5065
 6559TIP3    H141168   5.053   3.619  11.052 -0.0515 -0.2708 -1.8841
 6559TIP3    H241169   5.181   3.575  11.120 -1.4672 -1.1662  0.3270
 6560TIP3   OH241170   5.178   0.136   3.010  0.1044  0.0314 -0.5035
 6560TIP3    H141171   5.141   0.157   3.095 -0.1663  0.7754 -0.8024
 6560TIP3    H241172   5.111   0.082   2.968  1.0017 -1.9395  0.4504
 6561TIP3   OH241173   3.974   6.049   0.436  0.0743 -0.3814  0.1622
 6561TIP3    H141174   3.959   6.129   0.385  0.0684  0.4575  1.4467
 6561TIP3    H241175   3.887   6.024   0.469  0.2876 -0.0791  0.9708
 6562TIP3   OH241176   6.652   0.911   2.493  0.2653 -0.0530 -0.0010
 6562TIP3    H141177   6.645   1.005   2.473  2.1001 -0.0278 -0.7947
 6562TIP3    H241178   6.566   0.875   2.472 -0.6730  1.5414  0.9126
 6563TIP3   OH241179   6.325   4.685   3.149  0.5945 -0.4969  0.5567
 6563TIP3    H141180   6.290   4.735   3.076 -0.6638 -1.0793  0.7274
 6563TIP3    H241181   6.417   4.709   3.153  0.1821  1.2375  0.2011
 6564TIP3   OH241182   4.404   5.066  15.790  0.3048 -0.6024 -0.9879
 6564TIP3    H141183   4.407   5.047  15.884  0.7998 -3.5172 -1.5035
 6564TIP3    H241184   4.491   5.099  15.769 -0.3898  2.0200 -0.1650
 6565TIP3   OH241185   6.179   1.754   1.364  0.5602  0.5115  0.4253
 6565TIP3    H141186   6.168   1.844   1.331  1.8005  0.9285  1.0802
 6565TIP3    H241187   6.201   1.766   1.457 -0.0483 -0.5197  0.7184
 6566TIP3   OH241188   1.886   0.754  13.090 -0.2512  0.2057  0.5091
 6566TIP3    H141189   1.886   0.658  13.097  0.4227  0.2070  0.5970
 6566TIP3    H241190   1.834   0.783  13.165 -0.8661 -0.1033  0.2118
 6567TIP3   OH241191   1.741   4.919   3.067  0.2401  0.2426  0.1382
 6567TIP3    H141192   1.775   4.975   2.998 -1.9379  0.2896 -0.9799
 6567TIP3    H241193   1.668   4.969   3.105 -0.7394 -1.1687  0.1803
 6568TIP3   OH241194   3.362   5.543  13.699  0.4556  0.2192 -0.0534
 6568TIP3    H141195   3.268   5.552  13.716  0.2957  0.3337 -0.9334
 6568TIP3    H241196   3.371   5.563  13.605  1.2423 -0.6081 -0.1668
 6569TIP3   OH241197   2.707   3.936  17.245  0.2421  0.0700  0.2458
 6569TIP3    H141198   2.617   3.942  17.212  0.5817  1.9425 -0.4747
 6569TIP3    H241199   2.762   3.934  17.166  0.8721  0.0268  0.6771
 6570TIP3   OH241200   5.286   5.710  16.446 -0.6605 -0.1632 -0.3669
 6570TIP3    H141201   5.331   5.729  16.364  1.0986  0.2558  0.6361
 6570TIP3    H241202   5.280   5.615  16.448  0.9898 -0.2996 -0.1725
 6571TIP3   OH241203   6.629   0.831  15.102  0.1901  0.0672 -0.2795
 6571TIP3    H141204   6.564   0.763  15.082  0.4921 -0.2434 -0.2199
 6571TIP3    H241205   6.694   0.786  15.155  0.9258  0.1451 -1.0962
 6572TIP3   OH241206   1.991   2.981  11.145 -0.5608 -0.1553 -0.1091
 6572TIP3    H141207   1.933   2.951  11.075 -0.1408 -0.0795 -0.4900
 6572TIP3    H241208   2.037   2.902  11.174  0.0063 -0.0088 -0.6097
 6573TIP3   OH241209   2.610   3.069  14.616 -0.0456  0.2844  0.0547
 6573TIP3    H141210   2.572   3.015  14.686 -0.8982  0.4730 -0.2515
 6573TIP3    H241211   2.544   3.136  14.599  0.2670  0.3929 -0.7643
 6574TIP3   OH241212   3.051   3.346   6.260 -0.0395  0.7547  0.1758
 6574TIP3    H141213   3.061   3.266   6.312 -1.4450  0.4973  0.0821
 6574TIP3    H241214   2.964   3.338   6.221 -0.5960  2.7657  0.9040
 6575TIP3   OH241215   0.459   2.975   3.155  0.0947 -0.3914  0.1894
 6575TIP3    H141216   0.546   2.966   3.194  0.3259  0.6093 -0.0707
 6575TIP3    H241217   0.399   2.975   3.230  0.3928 -0.1469  0.4297
 6576TIP3   OH241218   1.674   3.465  14.928 -0.0210 -0.2351  0.0421
 6576TIP3    H141219   1.601   3.453  14.868 -0.8802 -0.5666  1.1150
 6576TIP3    H241220   1.709   3.552  14.907 -0.4938 -0.2233 -0.7167
 6577TIP3   OH241221   1.871   4.211  16.379  0.0919 -0.2966 -0.2663
 6577TIP3    H141222   1.812   4.286  16.390  0.6995  0.2327 -0.4998
 6577TIP3    H241223   1.913   4.202  16.464 -0.0849 -0.4637 -0.1971
 6578TIP3   OH241224   6.738   3.104  11.270  0.7651 -0.1010 -0.7178
 6578TIP3    H141225   6.753   3.190  11.232 -0.5515  0.0083 -1.0551
 6578TIP3    H241226   6.793   3.045  11.218  0.2126  0.2772 -1.7603
 6579TIP3   OH241227   3.955   1.691  15.025  1.0639  0.0799  0.4690
 6579TIP3    H141228   3.978   1.601  14.999  1.4019  0.4953 -0.7133
 6579TIP3    H241229   3.878   1.712  14.972  1.2672  0.6606  0.4049
 6580TIP3   OH241230   0.737   0.686  10.281 -0.2854 -0.0278 -0.1220
 6580TIP3    H141231   0.759   0.776  10.257  2.4341 -0.1994  1.2124
 6580TIP3    H241232   0.649   0.691  10.318  0.3288  2.3828  1.2186
 6581TIP3   OH241233   1.927   4.985  15.827 -0.2999  0.2372  0.7323
 6581TIP3    H141234   1.860   4.933  15.872 -0.1287 -0.1127  0.5879
 6581TIP3    H241235   1.880   5.059  15.790 -0.8714 -0.7651 -0.6227
 6582TIP3   OH241236   0.987   4.784   1.924 -0.3359 -0.1149 -0.2094
 6582TIP3    H141237   1.019   4.710   1.974 -1.5062  0.1118  0.9391
 6582TIP3    H241238   1.000   4.859   1.982  0.2209  0.4868 -1.0932
 6583TIP3   OH241239   1.938   1.305  15.394  0.7051  0.2770 -0.2468
 6583TIP3    H141240   1.991   1.329  15.318 -0.7076  0.8543 -1.0996
 6583TIP3    H241241   1.902   1.388  15.425 -2.1018 -0.3184 -1.5795
 6584TIP3   OH241242   0.120   0.908   1.668  0.0988  0.3189  0.3425
 6584TIP3    H141243   0.077   0.993   1.656 -0.6054  0.0950  1.1240
 6584TIP3    H241244   0.197   0.927   1.722 -0.7950  0.2997  1.6776
 6585TIP3   OH241245   1.163   4.433  15.472 -0.4999  0.5188  0.1725
 6585TIP3    H141246   1.142   4.521  15.443  1.5410  0.9381 -0.1870
 6585TIP3    H241247   1.105   4.417  15.546 -0.0037  2.6802  1.1017
 6586TIP3   OH241248   1.286   1.428   1.701  0.1151 -0.3074  0.6601
 6586TIP3    H141249   1.322   1.375   1.772 -2.1537 -2.1269  0.5699
 6586TIP3    H241250   1.347   1.415   1.628 -0.1095 -2.5409  0.7830
 6587TIP3   OH241251   5.299   5.449  11.226 -0.3778  0.1401 -0.2233
 6587TIP3    H141252   5.365   5.406  11.171 -1.7639 -0.5325 -1.4363
 6587TIP3    H241253   5.349   5.487  11.298  1.1903 -1.5136 -0.3512
 6588TIP3   OH241254   1.518   5.803  15.142 -0.6210 -0.0751  0.3623
 6588TIP3    H141255   1.611   5.823  15.133  0.1504 -3.3825 -0.3471
 6588TIP3    H241256   1.500   5.811  15.235  0.5790 -0.1193  0.6101
 6589TIP3   OH241257   3.716   5.164   4.614  0.2149 -0.1055 -0.1802
 6589TIP3    H141258   3.768   5.110   4.555  0.9170 -2.0084  1.9910
 6589TIP3    H241259   3.771   5.239   4.634  0.6451 -0.2991 -0.6320
 6590TIP3   OH241260   0.413   4.986  13.539 -0.1122  0.1097  0.1262
 6590TIP3    H141261   0.417   5.016  13.448 -1.4460 -3.9317 -1.4946
 6590TIP3    H241262   0.375   4.899  13.534  1.3446 -1.0356  4.4616
 6591TIP3   OH241263   2.033   1.216  11.657  0.2272  0.1543  0.1829
 6591TIP3    H141264   2.082   1.297  11.672  2.6839 -1.5397  2.0706
 6591TIP3    H241265   2.037   1.170  11.740  0.0798 -2.5133 -1.1780
 6592TIP3   OH241266   2.194   5.559   3.202 -0.0182  0.0369 -0.1259
 6592TIP3    H141267   2.187   5.645   3.244 -1.3591 -0.1966  0.1464
 6592TIP3    H241268   2.150   5.570   3.118 -1.2139 -0.6807  0.3917
 6593TIP3   OH241269   5.389   6.244  16.074  0.4311  0.1196 -0.1621
 6593TIP3    H141270   5.377   6.338  16.088 -0.3781 -0.0417  0.2650
 6593TIP3    H241271   5.471   6.223  16.119 -0.8421  0.0936  2.2443
 6594TIP3   OH241272   3.089   1.275   5.530  0.0336  0.1213 -0.1103
 6594TIP3    H141273   3.089   1.299   5.438 -1.0607 -1.1700 -0.4741
 6594TIP3    H241274   3.178   1.243   5.546  0.2721  0.4840 -0.6721
 6595TIP3   OH241275   1.323   4.044   0.785  0.2118  0.5992  0.0457
 6595TIP3    H141276   1.242   4.016   0.741  0.4582  2.0465 -1.4349
 6595TIP3    H241277   1.318   4.005   0.872 -0.1415 -2.7514 -1.3276
 6596TIP3   OH241278   4.387   1.895  14.469  0.1656 -0.2272  0.3009
 6596TIP3    H141279   4.429   1.883  14.383 -1.0997  0.5287 -0.4580
 6596TIP3    H241280   4.312   1.836  14.467  0.2368 -0.3386  0.9690
 6597TIP3   OH241281   2.015   1.233   3.188  0.1112 -0.7715 -0.0277
 6597TIP3    H141282   1.926   1.196   3.186  0.2014 -0.9826 -0.1256
 6597TIP3    H241283   2.013   1.302   3.121 -0.1305 -0.4244  0.3268
 6598TIP3   OH241284   5.652   0.472   6.578  0.5611 -0.4026 -0.0057
 6598TIP3    H141285   5.661   0.567   6.590 -0.1797 -0.3367  0.0971
 6598TIP3    H241286   5.727   0.435   6.623  0.7496  0.1266  0.1266
 6599TIP3   OH241287   5.545   2.230  11.625 -0.1622  0.2977  0.3512
 6599TIP3    H141288   5.577   2.314  11.656 -0.9835 -0.0964  2.3977
 6599TIP3    H241289   5.619   2.192  11.577  1.4630  0.6585  2.4401
 6600TIP3   OH241290   3.934   3.790   5.306 -0.6803  0.2546 -0.0739
 6600TIP3    H141291   3.957   3.699   5.289  2.4909  0.9678 -0.1407
 6600TIP3    H241292   3.941   3.833   5.221 -0.9518  0.7911  0.1735
 6601TIP3   OH241293   3.315   6.222  12.065 -0.1553  0.2593 -0.1582
 6601TIP3    H141294   3.283   6.228  11.975  0.6684 -1.3892 -0.5988
 6601TIP3    H241295   3.401   6.263  12.062 -1.4946  3.4022  0.7152
 6602TIP3   OH241296   1.397   1.984  13.061  0.2724 -0.2556  0.0667
 6602TIP3    H141297   1.478   1.979  13.111  1.2950  0.2771 -1.4911
 6602TIP3    H241298   1.379   2.078  13.052  0.2420 -0.3300 -0.7643
 6603TIP3   OH241299   5.432   0.735   0.945  0.1971 -0.3768 -0.7003
 6603TIP3    H141300   5.353   0.788   0.934  0.7755  1.2635  2.0702
 6603TIP3    H241301   5.494   0.772   0.882  0.7917  2.9131  1.5418
 6604TIP3   OH241302   6.166   4.582   3.854  0.0274  0.2137 -0.5623
 6604TIP3    H141303   6.079   4.593   3.815 -0.4041 -0.9877 -0.0111
 6604TIP3    H241304   6.206   4.513   3.802 -0.3489 -1.0282  0.7284
 6605TIP3   OH241305   4.775   6.518  11.816  0.2631  0.5221  0.0904
 6605TIP3    H141306   4.829   6.459  11.869  0.4694 -0.2689 -0.9538
 6605TIP3    H241307   4.724   6.459  11.760 -0.7028  1.3011  0.1203
 6606TIP3   OH241308   6.394   2.447   1.365  0.1751 -0.3889  0.1786
 6606TIP3    H141309   6.413   2.498   1.286 -0.0971  1.0852  1.0183
 6606TIP3    H241310   6.304   2.471   1.388  0.6820  0.2156  1.6444
 6607TIP3   OH241311   6.053   6.746   5.470  0.0690  0.2560  0.4384
 6607TIP3    H141312   6.118   6.716   5.534  0.0808 -2.4220 -0.6713
 6607TIP3    H241313   5.972   6.703   5.498 -0.5690  1.3046  0.2195
 6608TIP3   OH241314   0.019   6.345  11.512  0.4137 -0.0425 -0.1808
 6608TIP3    H141315   0.025   6.357  11.606  2.2294 -0.7719 -0.1744
 6608TIP3    H241316   0.058   6.425  11.474 -0.1074  0.1502 -0.3266
 6609TIP3   OH241317   4.190   2.595  14.142 -0.1867 -0.4321  0.3325
 6609TIP3    H141318   4.125   2.553  14.085  2.6213 -1.1794 -2.6201
 6609TIP3    H241319   4.239   2.522  14.180  1.3221  0.0562 -0.5775
 6610TIP3   OH241320   5.128   6.712   3.919 -0.4012 -0.7673 -0.2372
 6610TIP3    H141321   5.050   6.684   3.968 -0.7756  0.7274  0.0842
 6610TIP3    H241322   5.103   6.797   3.882  0.9790 -0.4069 -0.3884
 6611TIP3   OH241323   3.596   4.725  14.693  0.3862  0.2168 -0.2298
 6611TIP3    H141324   3.604   4.767  14.607 -1.1511  1.9971  0.4162
 6611TIP3    H241325   3.600   4.798  14.755 -0.6933 -0.7888  1.0845
 6612TIP3   OH241326   2.255   3.470   2.227 -0.0889  0.3940  0.5740
 6612TIP3    H141327   2.321   3.417   2.272 -0.5393 -1.7426 -1.1145
 6612TIP3    H241328   2.190   3.489   2.295 -0.0854 -1.5822  1.2108
 6613TIP3   OH241329   2.061   3.670   2.477 -0.2275  0.0411  0.3318
 6613TIP3    H141330   2.079   3.585   2.517  1.5934  0.6809  0.9286
 6613TIP3    H241331   2.036   3.727   2.550  1.4179  0.7542  0.3867
 6614TIP3   OH241332   1.650   6.199  15.089 -0.0180  0.0452 -0.4269
 6614TIP3    H141333   1.715   6.269  15.084 -0.2103  0.1792 -1.2155
 6614TIP3    H241334   1.700   6.121  15.111  0.1351  0.5070  0.9471
 6615TIP3   OH241335   6.500   6.405   5.324  0.2337  0.3497 -0.3487
 6615TIP3    H141336   6.463   6.344   5.388  0.0822 -1.1595 -1.8056
 6615TIP3    H241337   6.594   6.385   5.324  0.0730 -0.4618 -1.3899
 6616TIP3   OH241338   6.180   4.404  15.914 -0.7739  0.1552  0.1844
 6616TIP3    H141339   6.257   4.351  15.893 -1.0976  0.2243 -1.3428
 6616TIP3    H241340   6.109   4.341  15.923 -0.9468  0.2355 -0.5535
 6617TIP3   OH241341   1.658   6.744   2.529 -0.1158 -0.2448 -0.0815
 6617TIP3    H141342   1.742   6.786   2.543 -0.4450  0.7912 -1.0367
 6617TIP3    H241343   1.679   6.651   2.516  0.9859  0.1423 -1.2742
 6618TIP3   OH241344   5.781   2.346  13.084  0.0115 -0.2298 -0.2404
 6618TIP3    H141345   5.714   2.378  13.023 -0.1631 -0.0507  0.0402
 6618TIP3    H241346   5.807   2.424  13.133  0.2258 -0.3537 -0.1583
 6619TIP3   OH241347   4.968   0.305  11.623  0.0511  0.2614 -0.2367
 6619TIP3    H141348   5.002   0.392  11.642  0.3308  0.0645  0.1963
 6619TIP3    H241349   4.904   0.318  11.554  0.4568  0.7441 -0.5290
 6620TIP3   OH241350   3.109   4.172  15.386 -0.2987 -0.1746  0.9067
 6620TIP3    H141351   3.138   4.121  15.310  3.7356  2.5229  0.3153
 6620TIP3    H241352   3.182   4.168  15.447 -1.0846  2.2684  2.1397
 6621TIP3   OH241353   0.259   2.258  11.144 -0.5254 -0.2830  0.3541
 6621TIP3    H141354   0.312   2.178  11.152  0.1592  0.2756  1.7011
 6621TIP3    H241355   0.252   2.272  11.050  0.8616 -0.9592  0.1105
 6622TIP3   OH241356   6.688   3.887   3.529 -0.8369 -0.2551  0.2046
 6622TIP3    H141357   6.679   3.845   3.615  0.2107 -1.1361 -0.0877
 6622TIP3    H241358   6.626   3.960   3.531  1.2948  1.7479  2.9384
 6623TIP3   OH241359   4.124   6.398  11.944 -0.1209 -0.4507 -0.1307
 6623TIP3    H141360   4.167   6.476  11.979 -0.2114 -0.2406 -0.4935
 6623TIP3    H241361   4.155   6.327  12.001  1.8796 -0.5512 -1.2754
 6624TIP3   OH241362   1.790   0.935  16.143  0.3557  0.0449 -0.1414
 6624TIP3    H141363   1.739   0.997  16.091 -2.6637  0.3958  2.8978
 6624TIP3    H241364   1.781   0.852  16.096 -5.1124 -0.4401  1.1306
 6625TIP3   OH241365   1.137   4.039  15.461 -0.3727  0.0984  0.0934
 6625TIP3    H141366   1.068   4.075  15.517  0.3681  0.2183  0.9343
 6625TIP3    H241367   1.108   3.950  15.441 -0.4673 -0.0743  0.9721
 6626TIP3   OH241368   0.740   5.151   4.634  0.5420 -0.3272 -0.0202
 6626TIP3    H141369   0.752   5.072   4.687  0.1890 -0.0558  0.4768
 6626TIP3    H241370   0.717   5.219   4.698  0.2251  0.0317 -0.5141
 6627TIP3   OH241371   3.758   5.356   2.330 -0.6513 -0.0424 -0.0347
 6627TIP3    H141372   3.743   5.278   2.383 -1.6747  1.5084  2.1513
 6627TIP3    H241373   3.851   5.375   2.342 -0.7969  0.0940  1.0140
 6628TIP3   OH241374   2.788   2.763   5.873 -0.2640 -0.1707 -0.4772
 6628TIP3    H141375   2.876   2.726   5.874 -1.2003 -2.8554 -2.6906
 6628TIP3    H241376   2.750   2.736   5.956  0.1274 -1.5230 -0.7152
 6629TIP3   OH241377   0.205   3.755   1.885 -0.1861  0.3756  0.0169
 6629TIP3    H141378   0.161   3.822   1.833  0.0541  1.6885  1.4105
 6629TIP3    H241379   0.294   3.790   1.898  0.9974 -1.6992 -1.8300
 6630TIP3   OH241380   5.714   1.064   5.276 -0.4530  0.2388  0.0517
 6630TIP3    H141381   5.735   1.092   5.365 -0.9513  2.7880 -0.5327
 6630TIP3    H241382   5.765   0.985   5.262 -1.5555 -1.1319  3.0997
 6631TIP3   OH241383   5.553   2.368   0.888 -0.2696  0.4771  0.1467
 6631TIP3    H141384   5.462   2.371   0.858  0.3623  1.2365 -1.8329
 6631TIP3    H241385   5.560   2.284   0.934 -1.3811 -0.7153 -1.7263
 6632TIP3   OH241386   5.277   3.621   0.509  0.0385 -0.2549 -0.7850
 6632TIP3    H141387   5.261   3.684   0.439 -2.0987 -1.2582 -1.2692
 6632TIP3    H241388   5.219   3.548   0.490 -0.7300 -0.5373  2.0657
 6633TIP3   OH241389   0.588   2.583  13.548 -0.5364  0.4116 -0.1830
 6633TIP3    H141390   0.603   2.613  13.458  0.9770  0.1153 -0.0618
 6633TIP3    H241391   0.673   2.594  13.591 -0.9482 -0.4743  0.9078
 6634TIP3   OH241392   5.431   6.737   6.133 -0.4220  0.2876  0.7024
 6634TIP3    H141393   5.366   6.671   6.158 -0.2959  0.5538  1.7880
 6634TIP3    H241394   5.396   6.776   6.053 -1.1061 -0.2612  0.7238
 6635TIP3   OH241395   5.456   4.548   4.138 -0.6170 -0.5009 -0.0352
 6635TIP3    H141396   5.525   4.606   4.170  0.6481 -1.7147 -0.4657
 6635TIP3    H241397   5.497   4.499   4.066 -1.7177 -1.7310  0.1423
 6636TIP3   OH241398   0.965   4.658   4.525 -0.3958  0.0296  0.1794
 6636TIP3    H141399   0.960   4.715   4.449 -0.3920 -0.9831 -0.6013
 6636TIP3    H241400   0.991   4.573   4.490 -0.0705 -0.3761  1.3562
 6637TIP3   OH241401   1.567   5.851  17.008 -0.1146  0.3072 -0.3609
 6637TIP3    H141402   1.474   5.865  16.991 -0.0016 -0.1059 -1.3773
 6637TIP3    H241403   1.574   5.758  17.029  0.2392  0.0500 -1.5716
 6638TIP3   OH241404   6.206   1.524  16.284  0.3629  0.3482 -0.3066
 6638TIP3    H141405   6.220   1.463  16.211  1.4570  0.2160 -0.0017
 6638TIP3    H241406   6.149   1.592  16.248  0.5520  0.0653 -1.1628
 6639TIP3   OH241407   5.879   6.729   3.387 -0.2799  0.2101 -0.4619
 6639TIP3    H141408   5.872   6.793   3.458  1.2074  1.8954 -1.7346
 6639TIP3    H241409   5.899   6.646   3.430 -2.7299  0.4182  1.2915
 6640TIP3   OH241410   1.386   6.759  12.774 -0.2413  0.1083  0.1883
 6640TIP3    H141411   1.292   6.771  12.780 -0.4320 -1.5686  0.8490
 6640TIP3    H241412   1.421   6.849  12.774 -1.7084  0.7331  1.8547
 6641TIP3   OH241413   6.802   4.606  11.757 -0.5259  0.2579 -0.1775
 6641TIP3    H141414   6.833   4.643  11.840  1.8260 -4.2165  1.3141
 6641TIP3    H241415   6.866   4.636  11.693 -1.6206  2.7109 -0.2293
 6642TIP3   OH241416   5.262   5.010  13.994  0.1799  0.3373 -0.4894
 6642TIP3    H141417   5.298   4.963  14.070 -0.0353  0.9605  0.0002
 6642TIP3    H241418   5.333   5.067  13.965  0.7232 -0.8389 -1.5810
 6643TIP3   OH241419   4.508   0.461   3.742  0.2269  0.6583 -0.1523
 6643TIP3    H141420   4.511   0.484   3.835 -0.9010 -2.9693  0.9261
 6643TIP3    H241421   4.415   0.470   3.718  0.1759 -0.3656 -0.3610
 6644TIP3   OH241422   5.492   2.501   4.211 -0.7758  0.7136 -0.0833
 6644TIP3    H141423   5.572   2.529   4.256 -0.8530  1.2759 -0.2836
 6644TIP3    H241424   5.456   2.432   4.267 -0.8135  1.3263  0.6778
 6645TIP3   OH241425   3.665   0.403  13.928  0.1844 -0.3495 -0.2251
 6645TIP3    H141426   3.691   0.333  13.987 -1.6129 -0.0467  1.0041
 6645TIP3    H241427   3.590   0.368  13.880  0.0929  0.2759 -0.5504
 6646TIP3   OH241428   0.567   1.160  13.494  0.0136 -0.0934  0.1343
 6646TIP3    H141429   0.634   1.101  13.528 -0.2607  0.2036  1.2189
 6646TIP3    H241430   0.508   1.175  13.568 -1.0331 -0.0314 -0.6851
 6647TIP3   OH241431   2.699   6.584   5.411  0.3471 -1.1037 -0.2852
 6647TIP3    H141432   2.660   6.561   5.496  0.7290 -2.0073 -0.3453
 6647TIP3    H241433   2.637   6.550   5.346  0.1245 -0.5358 -0.3721
 6648TIP3   OH241434   0.595   4.147   4.898 -0.1497 -0.3553  0.2127
 6648TIP3    H141435   0.544   4.137   4.978  1.3070  1.0922  1.3859
 6648TIP3    H241436   0.672   4.198   4.924  1.2069 -1.2435 -1.7715
 6649TIP3   OH241437   0.094   1.957   1.259 -0.3653 -0.0508  0.1460
 6649TIP3    H141438   0.122   1.913   1.178 -1.2123 -0.3308 -0.0039
 6649TIP3    H241439  -0.002   1.954   1.256 -0.4067  0.1583  1.0452
 6650TIP3   OH241440   1.557   4.888  13.624  0.2416  0.1796 -0.3588
 6650TIP3    H141441   1.520   4.925  13.704  0.0521  1.1469 -0.8872
 6650TIP3    H241442   1.576   4.963  13.569 -1.3310 -0.5217 -1.9597
 6651TIP3   OH241443   5.658   0.335   3.745  0.1770  0.3814  0.0447
 6651TIP3    H141444   5.586   0.277   3.770  1.1609 -0.2975  1.4439
 6651TIP3    H241445   5.659   0.402   3.814  0.5713  0.6879 -0.2551
 6652TIP3   OH241446   6.547   3.383  16.318  0.2953  0.4435 -0.2832
 6652TIP3    H141447   6.554   3.299  16.273 -1.8321 -0.6507  1.2633
 6652TIP3    H241448   6.576   3.365  16.408  0.8129  1.6403 -0.1875
 6653TIP3   OH241449   6.701   2.801  15.460 -0.0256 -0.0946 -0.0292
 6653TIP3    H141450   6.693   2.708  15.440  1.8555 -0.5077  0.9861
 6653TIP3    H241451   6.776   2.807  15.519 -0.5825  1.9822  0.5430
 6654TIP3   OH241452   0.478   2.446   2.629  0.7613  0.5647  0.2463
 6654TIP3    H141453   0.433   2.509   2.685 -1.0119 -0.2881 -0.1596
 6654TIP3    H241454   0.486   2.491   2.544  0.7562  0.7516  0.3436
 6655TIP3   OH241455   1.248   4.689   5.272 -0.1893  0.1294 -0.4331
 6655TIP3    H141456   1.332   4.646   5.260  1.3231  2.2553  1.4896
 6655TIP3    H241457   1.193   4.624   5.316  1.2607 -0.5648  0.4031
 6656TIP3   OH241458   5.462   3.452   0.165 -0.6654  0.3779  0.5200
 6656TIP3    H141459   5.537   3.410   0.124 -0.2979  0.3911  1.1679
 6656TIP3    H241460   5.407   3.379   0.194 -0.2816  0.3500  1.1802
 6657TIP3   OH241461   6.431   1.600  14.333  0.2332 -0.2298  0.5462
 6657TIP3    H141462   6.499   1.535  14.316  0.4789 -0.1653  1.2682
 6657TIP3    H241463   6.433   1.613  14.427  0.3408  0.9865  0.3951
 6658TIP3   OH241464   3.418   2.590  16.214  0.7266 -0.6134 -0.4526
 6658TIP3    H141465   3.467   2.668  16.187  1.5620 -0.0108  2.4950
 6658TIP3    H241466   3.483   2.519  16.209  0.6831 -0.6377 -0.6805
 6659TIP3   OH241467   1.613   4.989   4.595 -0.0390  0.1183 -0.4338
 6659TIP3    H141468   1.608   5.054   4.665 -1.1735  0.3215 -0.6833
 6659TIP3    H241469   1.705   4.962   4.594  0.2362  0.9668  0.3509
 6660TIP3   OH241470   3.917   0.439  16.679 -0.1126 -0.5271  0.1230
 6660TIP3    H141471   3.998   0.388  16.677 -0.4374 -1.0375 -1.8105
 6660TIP3    H241472   3.866   0.405  16.605 -1.0767  1.4338 -0.1594
 6661TIP3   OH241473   6.539   5.286   3.932  0.2229  0.4333  0.6906
 6661TIP3    H141474   6.576   5.316   4.015  0.3288 -1.3364  1.3379
 6661TIP3    H241475   6.457   5.335   3.923 -0.2095  0.0806  2.2880
 6662TIP3   OH241476   6.767   0.807   0.647  0.2240 -0.5002 -0.4082
 6662TIP3    H141477   6.753   0.896   0.681  2.3852  0.1488 -1.0721
 6662TIP3    H241478   6.682   0.781   0.613 -0.6834  0.9485  0.6320
 6663TIP3   OH241479   5.087   6.418   2.946 -0.1827 -0.2337  0.1235
 6663TIP3    H141480   5.014   6.448   3.001  0.2521  0.3808  0.3808
 6663TIP3    H241481   5.154   6.391   3.008  0.0151 -0.2724 -0.1070
 6664TIP3   OH241482   2.732   3.581  14.256  0.3067 -0.9350 -0.3514
 6664TIP3    H141483   2.671   3.635  14.205 -1.2148 -1.0386  1.2810
 6664TIP3    H241484   2.757   3.510  14.196 -0.6667 -0.5211 -1.2688
 6665TIP3   OH241485   3.872   0.257   4.153 -0.1206  0.0633 -0.6927
 6665TIP3    H141486   3.894   0.349   4.138  0.1419 -0.0664 -1.1220
 6665TIP3    H241487   3.805   0.237   4.088 -1.2927  0.3577  0.3849
 6666TIP3   OH241488   6.779   0.199  12.437 -0.6732  0.2050  0.2948
 6666TIP3    H141489   6.800   0.194  12.344 -0.6164 -0.0141  0.3178
 6666TIP3    H241490   6.732   0.281  12.447  0.0485  0.6309  0.2236
 6667TIP3   OH241491   1.628   3.478  11.793 -0.1233 -0.0402  0.1391
 6667TIP3    H141492   1.592   3.533  11.723 -1.6203 -0.8838  0.2073
 6667TIP3    H241493   1.555   3.466  11.854  1.4009  1.4730  2.4081
 6668TIP3   OH241494   5.571   4.992  14.693  0.3492  0.2397  0.3516
 6668TIP3    H141495   5.586   4.919  14.633  0.8770  1.3667 -0.9478
 6668TIP3    H241496   5.600   4.959  14.778 -0.2345 -1.3353 -0.0346
 6669TIP3   OH241497   2.911   4.700   1.236  0.2994  0.3892  0.3041
 6669TIP3    H141498   3.000   4.668   1.224  0.9089  1.1564  2.3121
 6669TIP3    H241499   2.920   4.794   1.249 -0.9061  0.6162 -0.3598
 6670TIP3   OH241500   4.521   3.376  11.452 -0.1541 -0.1231 -0.3711
 6670TIP3    H141501   4.448   3.432  11.426 -0.2812 -0.4087 -0.6341
 6670TIP3    H241502   4.580   3.376  11.376  0.2667  0.3360 -0.0566
 6671TIP3   OH241503   2.898   2.413  13.690  0.7001  0.3527  0.0447
 6671TIP3    H141504   2.858   2.433  13.605  0.5887  1.4530  0.3407
 6671TIP3    H241505   2.850   2.336  13.721  0.7187 -0.0369 -0.8689
 6672TIP3   OH241506   4.438   5.720   4.046 -0.2272  0.5029 -0.0933
 6672TIP3    H141507   4.408   5.651   4.106 -0.0802  0.0835 -0.5012
 6672TIP3    H241508   4.531   5.732   4.068 -0.2901  0.6878  0.0837
 6673TIP3   OH241509   2.249   3.942  14.655  0.1534  0.4242  0.5221
 6673TIP3    H141510   2.245   3.850  14.627  0.2941  0.5505  0.0819
 6673TIP3    H241511   2.287   3.988  14.581  1.7008  0.5886  1.3792
 6674TIP3   OH241512   4.200   5.030  13.266 -0.1123 -0.4276 -0.9870
 6674TIP3    H141513   4.244   5.019  13.350  2.8055  2.4668 -1.9412
 6674TIP3    H241514   4.107   5.024  13.288  0.5267 -1.1831  2.1475
 6675TIP3   OH241515   1.406   2.169  11.531  0.0998  0.1594  0.2475
 6675TIP3    H141516   1.483   2.223  11.514 -0.0524  0.1386 -0.5581
 6675TIP3    H241517   1.357   2.170  11.449 -2.1114  2.2917  1.4575
 6676TIP3   OH241518   3.855   3.966   0.507 -0.5625 -0.3841 -0.3543
 6676TIP3    H141519   3.848   4.038   0.445  2.8750 -0.9682 -1.6869
 6676TIP3    H241520   3.929   3.990   0.563  0.8123 -2.8478 -0.9665
 6677TIP3   OH241521   6.557   0.081   4.133 -0.3075  0.7172  0.1326
 6677TIP3    H141522   6.468   0.091   4.099 -0.5762  0.0567  0.6192
 6677TIP3    H241523   6.606   0.040   4.062 -0.2086  1.7139 -0.3910
 6678TIP3   OH241524   1.784   1.001   3.913  0.1382 -0.3260  0.2123
 6678TIP3    H141525   1.735   1.027   3.834 -0.2654 -0.2069  0.4988
 6678TIP3    H241526   1.823   1.082   3.945  0.8944 -0.4929 -0.2606
 6679TIP3   OH241527   2.745   5.748   1.470 -0.4184 -0.5978 -0.4442
 6679TIP3    H141528   2.772   5.791   1.551  1.3888 -0.3257 -1.1558
 6679TIP3    H241529   2.777   5.658   1.479  1.4595 -0.0823 -1.6039
 6680TIP3   OH241530   6.067   5.111  14.030 -0.0772  0.6058  0.4906
 6680TIP3    H141531   6.109   5.054  14.094 -0.0974 -0.4059 -0.3589
 6680TIP3    H241532   6.025   5.180  14.081  0.9335  0.5128  1.4731
 6681TIP3   OH241533   2.433   3.556  10.846 -0.2669 -0.2636 -0.1575
 6681TIP3    H141534   2.509   3.589  10.798  0.2799 -0.9028  0.2486
 6681TIP3    H241535   2.441   3.597  10.932 -1.2529  0.8933 -0.5858
 6682TIP3   OH241536   2.970   4.939  16.875 -0.1773 -0.2192  0.2821
 6682TIP3    H141537   2.883   4.902  16.859 -1.0241  1.4821  0.6641
 6682TIP3    H241538   3.018   4.924  16.794 -1.7911  1.2942 -1.0697
 6683TIP3   OH241539   1.676   2.481  16.713  0.2384 -0.4384 -0.4865
 6683TIP3    H141540   1.726   2.521  16.784 -0.0500 -0.4258 -0.2916
 6683TIP3    H241541   1.699   2.534  16.636 -1.6224  1.3520  0.1166
 6684TIP3   OH241542   0.041   3.071   4.788  0.0194  0.0841  0.8269
 6684TIP3    H141543  -0.037   3.060   4.842  0.5128 -1.8124  1.2216
 6684TIP3    H241544   0.082   3.151   4.822 -1.7553  1.1646  0.5491
 6685TIP3   OH241545   2.143   1.140   0.300  0.2020  0.4224  0.1663
 6685TIP3    H141546   2.184   1.095   0.374  0.4904  1.5043  0.6897
 6685TIP3    H241547   2.207   1.206   0.273  0.0668  0.1025 -1.0060
 6686TIP3   OH241548   5.717   6.497   3.350 -0.5343 -0.0797  0.4461
 6686TIP3    H141549   5.779   6.511   3.421  1.1156  0.2438 -1.0070
 6686TIP3    H241550   5.731   6.571   3.290 -2.1168 -0.1571 -0.0855
 6687TIP3   OH241551   1.054   4.284   3.776 -0.2252 -0.1475 -0.1966
 6687TIP3    H141552   1.101   4.318   3.699 -1.1801 -0.5577 -0.9821
 6687TIP3    H241553   1.005   4.359   3.810 -0.3572 -0.1295 -0.4223
 6688TIP3   OH241554   2.832   0.928  11.504 -0.3674 -0.0751  0.5500
 6688TIP3    H141555   2.795   0.841  11.518  0.1376 -0.1635  1.4592
 6688TIP3    H241556   2.927   0.913  11.495 -0.4410  0.2196 -0.9956
 6689TIP3   OH241557   0.720   0.086  14.125 -0.5946  0.5903 -0.3935
 6689TIP3    H141558   0.732   0.132  14.042 -2.7232  1.4754 -0.2741
 6689TIP3    H241559   0.702  -0.004  14.100 -1.5571  0.9204 -0.9368
 6690TIP3   OH241560   4.005   5.334   2.464 -0.0897  0.8169 -0.2985
 6690TIP3    H141561   4.082   5.279   2.471  0.4150  1.2492 -1.9400
 6690TIP3    H241562   4.002   5.383   2.546  0.5833 -0.1939  0.3474
 6691TIP3   OH241563   1.541   2.619   5.596 -0.6508 -0.1949  0.7324
 6691TIP3    H141564   1.585   2.655   5.674 -1.3715  0.9420  0.6297
 6691TIP3    H241565   1.578   2.669   5.523 -1.2600 -0.0360  0.5299
 6692TIP3   OH241566   0.694   6.125  12.638 -0.0514 -0.1501  0.3633
 6692TIP3    H141567   0.707   6.193  12.572  0.9221 -0.1370  0.5650
 6692TIP3    H241568   0.630   6.163  12.698 -1.5219 -0.4501 -0.9487
 6693TIP3   OH241569   5.589   5.079   1.475 -0.1128 -0.3811  0.8251
 6693TIP3    H141570   5.494   5.090   1.479 -0.2142 -1.3058  1.4846
 6693TIP3    H241571   5.620   5.107   1.561  0.2525  0.2199  0.5017
 6694TIP3   OH241572   3.899   5.886  12.961  0.2083 -0.1131  0.1491
 6694TIP3    H141573   3.975   5.828  12.949  1.6995  2.1607 -2.5735
 6694TIP3    H241574   3.840   5.864  12.890 -1.1796 -1.0047  1.5262
 6695TIP3   OH241575   1.314   1.879   6.130 -0.3839  0.1364 -0.0025
 6695TIP3    H141576   1.241   1.937   6.151 -0.8820  0.8940 -3.2298
 6695TIP3    H241577   1.284   1.792   6.158 -1.6271  0.7339  0.6055
 6696TIP3   OH241578   5.114   3.339  13.647  0.1312 -0.3956 -0.0583
 6696TIP3    H141579   5.175   3.369  13.714 -0.3293  2.3513 -0.7268
 6696TIP3    H241580   5.063   3.417  13.624  0.0044 -1.2707 -3.3284
 6697TIP3   OH241581   0.003   2.816  13.533  0.6795  0.1210  0.1083
 6697TIP3    H141582   0.055   2.893  13.557 -0.6659  0.4004  2.3979
 6697TIP3    H241583   0.003   2.762  13.612 -0.5486 -0.9945 -0.6204
 6698TIP3   OH241584   6.606   0.944  10.939 -0.0104 -0.5217  0.0494
 6698TIP3    H141585   6.639   1.022  10.894  1.6012 -1.0159  0.3139
 6698TIP3    H241586   6.510   0.952  10.934  0.1272  0.7647 -1.1302
 6699TIP3   OH241587   2.393   3.547   3.653  0.5165  0.5482  0.2351
 6699TIP3    H141588   2.430   3.468   3.693  1.5274  0.9212  0.0703
 6699TIP3    H241589   2.351   3.517   3.572  0.3640  0.1032  0.4778
 6700TIP3   OH241590   0.898   4.234   5.905 -0.4693 -0.2868  0.1752
 6700TIP3    H141591   0.940   4.317   5.880  0.0554 -0.8451 -0.8742
 6700TIP3    H241592   0.806   4.256   5.917 -0.4641  0.3293 -0.7919
 6701TIP3   OH241593   1.880   2.019  15.589 -0.0061 -0.1502 -0.5342
 6701TIP3    H141594   1.914   2.098  15.632  1.2321 -0.8231 -0.2296
 6701TIP3    H241595   1.845   1.966  15.660 -1.5493  0.4235 -0.8176
 6702TIP3   OH241596   5.498   4.311   4.814 -0.4508 -0.2876  0.5163
 6702TIP3    H141597   5.545   4.237   4.853  0.4246  0.8829  1.8032
 6702TIP3    H241598   5.501   4.295   4.720  2.9073 -0.1537  0.4734
 6703TIP3   OH241599   6.636   0.165  10.808  0.3152  0.2655  0.3625
 6703TIP3    H141600   6.581   0.211  10.871 -2.1119 -1.3020 -0.4648
 6703TIP3    H241601   6.707   0.128  10.861 -0.4937  0.7195  1.8167
 6704TIP3   OH241602   1.610   5.547  12.465  0.2177  0.6653  0.2170
 6704TIP3    H141603   1.683   5.541  12.526 -0.2170  0.2726  0.7128
 6704TIP3    H241604   1.550   5.477  12.492  0.2910  0.0915 -1.0226
 6705TIP3   OH241605   0.037   4.747   4.264  0.0088 -0.5391  0.5214
 6705TIP3    H141606   0.114   4.690   4.267 -0.2791 -1.0394 -0.7276
 6705TIP3    H241607   0.068   4.828   4.224 -0.1605 -0.8686 -0.3104
 6706TIP3   OH241608   4.556   0.141   5.849  0.2777  0.1555 -0.7466
 6706TIP3    H141609   4.614   0.211   5.819  1.5235 -0.2693  0.5305
 6706TIP3    H241610   4.501   0.121   5.773  1.0592  1.3303 -1.6679
 6707TIP3   OH241611   1.395   3.642   5.005 -0.0920 -0.6669  0.5419
 6707TIP3    H141612   1.444   3.704   4.950 -1.9894  0.2581 -0.1975
 6707TIP3    H241613   1.463   3.595   5.054  1.6684 -0.9669 -1.9657
 6708TIP3   OH241614   4.181   5.046   0.283  0.7289  0.0040  0.3492
 6708TIP3    H141615   4.157   5.034   0.375 -0.2819 -2.5840 -0.1643
 6708TIP3    H241616   4.099   5.065   0.239  1.4558  3.3150  0.1469
 6709TIP3   OH241617   6.399   0.536   1.099 -0.3547  0.4222  0.3373
 6709TIP3    H141618   6.338   0.464   1.108  0.0721  0.1168  0.8829
 6709TIP3    H241619   6.429   0.532   1.008 -0.5742  0.1132  0.2786
 6710TIP3   OH241620   0.476   5.393   0.190  0.2332 -0.1068  0.1232
 6710TIP3    H141621   0.495   5.451   0.264 -0.1254  0.1250  0.0344
 6710TIP3    H241622   0.480   5.305   0.227 -0.0487  0.0135  0.4394
 6711TIP3   OH241623   4.003   6.304   1.523 -0.0683 -0.4040  0.6810
 6711TIP3    H141624   3.912   6.276   1.508  0.2562 -0.7785 -0.7993
 6711TIP3    H241625   4.052   6.222   1.527  0.4708 -0.1707 -0.6352
 6712TIP3   OH241626   6.639   2.626   3.711 -0.2353 -0.3017 -0.1819
 6712TIP3    H141627   6.716   2.647   3.658  1.3931 -4.2241  0.3086
 6712TIP3    H241628   6.649   2.680   3.790  1.5394 -0.1112 -0.5002
 6713TIP3   OH241629   5.413   5.035  15.409  0.1053 -0.3742  0.2768
 6713TIP3    H141630   5.323   5.031  15.376  0.7671 -1.4033 -1.5633
 6713TIP3    H241631   5.430   4.946  15.440  0.7063 -0.3745 -0.0485
 6714TIP3   OH241632   3.345   2.819  14.508 -0.0257 -0.0726  0.1817
 6714TIP3    H141633   3.348   2.824  14.604  1.9012 -1.0135  0.2077
 6714TIP3    H241634   3.437   2.819  14.481 -0.3081 -3.7437 -1.3994
 6715TIP3   OH241635   4.790   5.556   0.097 -0.0710  0.1354  0.6676
 6715TIP3    H141636   4.824   5.509   0.021  0.3563  1.2197  0.1574
 6715TIP3    H241637   4.717   5.502   0.129 -0.8316  0.0888 -1.0418
 6716TIP3   OH241638   6.358   3.845  11.625 -0.3594 -0.1885 -0.1512
 6716TIP3    H141639   6.350   3.761  11.671 -0.0313  0.1270  0.4965
 6716TIP3    H241640   6.450   3.870  11.636  0.5544 -1.5200 -3.5350
 6717TIP3   OH241641   3.844   2.169   0.613  0.0274  0.7564  0.1598
 6717TIP3    H141642   3.873   2.247   0.660 -0.5509 -0.2063  2.1949
 6717TIP3    H241643   3.753   2.188   0.590 -0.0748  0.7397  0.5441
 6718TIP3   OH241644   6.107   5.570   6.091 -0.0481 -0.4272 -0.4094
 6718TIP3    H141645   6.075   5.654   6.125 -0.7383 -0.3143 -1.2964
 6718TIP3    H241646   6.115   5.514   6.169 -2.1178 -0.3520 -0.0812
 6719TIP3   OH241647   2.825   2.165   3.309 -0.3864 -0.0128 -0.9762
 6719TIP3    H141648   2.896   2.218   3.271 -0.5932 -0.6877 -2.3912
 6719TIP3    H241649   2.750   2.224   3.312  0.0754  0.5372 -0.0165
 6720TIP3   OH241650   1.030   5.030   2.087 -0.0868 -0.1526 -0.2785
 6720TIP3    H141651   0.986   5.070   2.162  0.2960  1.1150 -0.6990
 6720TIP3    H241652   1.028   5.098   2.019  0.3140 -0.9742 -1.1362
 6721TIP3   OH241653   5.562   5.031   0.854 -0.5139 -0.4057  0.4289
 6721TIP3    H141654   5.508   4.957   0.881 -0.1551 -0.8984 -0.1694
 6721TIP3    H241655   5.613   5.053   0.932  1.0123 -2.2522  0.0238
 6722TIP3   OH241656   0.231   2.871   5.070 -0.1415  0.6953 -0.3535
 6722TIP3    H141657   0.252   2.778   5.071 -0.1916  0.6011 -2.8048
 6722TIP3    H241658   0.141   2.875   5.038  0.5733  1.6111 -2.4387
 6723TIP3   OH241659   6.001   2.168   3.193  0.0085  0.0305  0.2505
 6723TIP3    H141660   5.935   2.196   3.129  0.6322 -0.5456 -0.6724
 6723TIP3    H241661   6.075   2.138   3.140  0.7396 -0.0132  1.2542
 6724TIP3   OH241662   2.008   3.749   3.722  0.1546  0.0291 -0.3543
 6724TIP3    H141663   2.000   3.794   3.638 -0.1202  2.2095  0.7737
 6724TIP3    H241664   2.101   3.730   3.730  0.3304  0.6822 -0.7496
 6725TIP3   OH241665   0.279   5.601   2.275 -0.0788 -0.6125 -0.6890
 6725TIP3    H141666   0.251   5.678   2.323 -2.3531 -1.7838 -0.0276
 6725TIP3    H241667   0.334   5.553   2.336 -1.4281 -1.1586  0.1331
 6726TIP3   OH241668   3.584   1.320  16.996  0.4945  0.4947  0.7989
 6726TIP3    H141669   3.514   1.355  16.940  0.4251 -1.4726 -0.4240
 6726TIP3    H241670   3.664   1.356  16.957  0.3418  0.3740  0.3567
 6727TIP3   OH241671   2.836   0.730  12.119 -0.8346  0.3209  0.4375
 6727TIP3    H141672   2.853   0.778  12.200 -0.1624 -0.5635  0.8369
 6727TIP3    H241673   2.745   0.749  12.099 -0.4691  2.1621  0.3077
 6728TIP3   OH241674   1.471   3.539   1.555 -0.9012  0.2562  0.6562
 6728TIP3    H141675   1.561   3.521   1.528 -1.6741 -1.1448 -1.2165
 6728TIP3    H241676   1.478   3.614   1.613  1.2615  1.5296 -1.1056
 6729TIP3   OH241677   4.636   6.023  16.648  0.3279  0.6699 -0.1457
 6729TIP3    H141678   4.722   6.033  16.608  0.7406  0.1169  0.5725
 6729TIP3    H241679   4.649   5.959  16.719 -0.8918 -0.2258 -0.6798
 6730TIP3   OH241680   0.118   3.010   1.159  0.0277 -0.0429  0.4567
 6730TIP3    H141681   0.158   2.933   1.119 -0.2363 -0.2066  0.5073
 6730TIP3    H241682   0.188   3.051   1.209  0.1689 -0.2461  0.4226
 6731TIP3   OH241683   1.121   3.362  13.373 -0.6026  0.5058 -0.4600
 6731TIP3    H141684   1.077   3.323  13.298 -0.8435  0.5104 -0.3221
 6731TIP3    H241685   1.198   3.307  13.388 -0.0016  1.0814 -1.3333
 6732TIP3   OH241686   3.820   1.143   2.278  0.0444 -0.5624 -0.0564
 6732TIP3    H141687   3.773   1.166   2.198 -0.4087 -0.3769  0.2584
 6732TIP3    H241688   3.907   1.180   2.266 -1.0262  2.6054  0.9895
 6733TIP3   OH241689   4.808   3.380  13.817  0.4582 -0.7097  0.2291
 6733TIP3    H141690   4.871   3.314  13.845  0.2684 -0.7800  0.4915
 6733TIP3    H241691   4.820   3.452  13.880 -0.6657 -1.2683  1.1348
 6734TIP3   OH241692   4.005   3.835  11.432 -0.1869 -0.4210  0.1034
 6734TIP3    H141693   4.082   3.802  11.478  2.5694  2.2253 -2.1785
 6734TIP3    H241694   3.992   3.924  11.466  0.7307  0.8739 -2.6465
 6735TIP3   OH241695   3.872   5.974   2.645 -0.0731 -0.3875 -0.1818
 6735TIP3    H141696   3.792   5.972   2.592 -0.0500 -0.3256 -0.2186
 6735TIP3    H241697   3.939   5.936   2.590  0.6767  2.4117 -1.3887
 6736TIP3   OH241698   3.946   0.415   3.804  0.4703 -0.1338  0.0320
 6736TIP3    H141699   3.873   0.370   3.760  0.1420  1.3662 -1.0291
 6736TIP3    H241700   3.932   0.398   3.897 -1.2500  0.1188 -0.1476
 6737TIP3   OH241701   2.836   1.960  10.941  0.5483 -0.2864 -1.0153
 6737TIP3    H141702   2.808   2.025  10.876 -1.5921 -1.4087 -1.2956
 6737TIP3    H241703   2.898   1.905  10.894 -0.1133 -0.3973 -1.7975
 6738TIP3   OH241704   2.295   6.423   1.629 -0.3617  0.3722  0.0864
 6738TIP3    H141705   2.261   6.470   1.553 -0.7270  0.3492  0.2309
 6738TIP3    H241706   2.389   6.421   1.617 -0.5354 -1.1426 -1.2551
 6739TIP3   OH241707   1.093   2.712  13.643 -0.2334 -0.2772 -0.1178
 6739TIP3    H141708   1.033   2.775  13.604 -0.9623  1.0031  2.7963
 6739TIP3    H241709   1.160   2.766  13.686  3.0611 -1.6438 -3.0403
 6740TIP3   OH241710   6.501   1.406  16.679  0.5317  0.2832  0.2174
 6740TIP3    H141711   6.474   1.322  16.642 -0.2507  1.2556 -1.5018
 6740TIP3    H241712   6.451   1.471  16.630  1.1547  1.7713  1.4848
 6741TIP3   OH241713   1.853   0.486   3.884  0.4746  0.2632  0.2889
 6741TIP3    H141714   1.940   0.457   3.854  0.1883 -0.8982  0.5134
 6741TIP3    H241715   1.859   0.483   3.980  0.7722  2.0475  0.3494
 6742TIP3   OH241716   4.183   1.925   6.547 -0.3300 -0.0320  0.3812
 6742TIP3    H141717   4.189   1.836   6.580 -1.3104  0.1927  1.2352
 6742TIP3    H241718   4.146   1.975   6.620  3.0919  1.7557  1.1128
 6743TIP3   OH241719   3.687   4.936   1.187  0.3558  0.2281  0.1664
 6743TIP3    H141720   3.710   4.859   1.239  0.9486 -0.3262 -0.8762
 6743TIP3    H241721   3.699   5.010   1.246  0.6238 -0.4138  0.9249
 6744TIP3   OH241722   4.980   6.034  12.713 -0.0995 -0.1898  0.3914
 6744TIP3    H141723   4.905   5.992  12.754  0.5764 -0.4345  1.4003
 6744TIP3    H241724   4.978   6.124  12.746  0.4876 -0.4069  1.0314
 6745TIP3   OH241725   1.412   3.546   0.810 -0.1311 -0.0779  0.3169
 6745TIP3    H141726   1.489   3.579   0.764 -0.9869  0.1757 -0.9694
 6745TIP3    H241727   1.429   3.452   0.821  1.4083  0.3438  2.2153
 6746TIP3   OH241728   5.743   3.602  17.110  0.8301 -0.0952  0.2819
 6746TIP3    H141729   5.822   3.627  17.159  0.3761  0.3298  0.8004
 6746TIP3    H241730   5.683   3.675  17.122  0.5098 -0.2221 -0.4813
 6747TIP3   OH241731   2.009   1.996   4.249 -0.1779 -0.5098  0.0149
 6747TIP3    H141732   1.961   1.967   4.326 -0.6752 -1.2213 -0.5605
 6747TIP3    H241733   2.011   1.920   4.191 -0.2580  0.1716 -0.9003
 6748TIP3   OH241734   3.084   6.813  13.882 -0.6058 -0.1975  0.2762
 6748TIP3    H141735   3.168   6.844  13.917 -0.9610 -0.0234  0.9954
 6748TIP3    H241736   3.068   6.868  13.805  1.5903 -2.4695 -1.9988
 6749TIP3   OH241737   0.434   5.924   3.481  0.4583  0.2490 -0.3372
 6749TIP3    H141738   0.472   5.851   3.529 -0.4217 -0.8614 -1.2596
 6749TIP3    H241739   0.508   5.971   3.443  0.9828 -0.9788 -0.8595
 6750TIP3   OH241740   6.680   2.983  13.370 -0.3038 -0.3107  0.9222
 6750TIP3    H141741   6.709   2.913  13.429  0.5820 -1.1072 -0.4045
 6750TIP3    H241742   6.755   3.000  13.314 -1.5291 -0.5876 -0.8934
 6751TIP3   OH241743   1.809   2.635  16.916  0.0896 -0.0957 -0.0455
 6751TIP3    H141744   1.790   2.675  17.001  0.6791 -0.8724  0.4698
 6751TIP3    H241745   1.883   2.577  16.933 -0.4327 -1.0312 -0.8717
 6752TIP3   OH241746   0.951   0.495   4.451  0.0501 -1.1157  0.3958
 6752TIP3    H141747   0.980   0.420   4.502 -0.2939 -3.2791 -2.3241
 6752TIP3    H241748   1.026   0.517   4.395 -0.3587 -0.4332  0.0955
 6753TIP3   OH241749   2.002   4.837  14.053 -0.4701  0.4297 -0.4853
 6753TIP3    H141750   2.096   4.838  14.033 -0.4226  1.3134 -0.2474
 6753TIP3    H241751   1.967   4.767  13.998  0.0716  1.1066 -1.7311
 6754TIP3   OH241752   3.722   3.888   2.017  0.4016 -0.1267 -0.4139
 6754TIP3    H141753   3.633   3.923   2.009  0.6688  0.9776  1.0700
 6754TIP3    H241754   3.762   3.903   1.932 -0.7305 -0.3787 -1.0121
 6755TIP3   OH241755   5.319   0.690   3.564  0.1955  0.3577  0.3899
 6755TIP3    H141756   5.292   0.749   3.494 -1.4744  0.6105  1.2019
 6755TIP3    H241757   5.317   0.745   3.643 -0.6766 -0.5939  1.0485
 6756TIP3   OH241758   4.212   3.713   2.994 -0.3617 -0.7031 -0.1141
 6756TIP3    H141759   4.128   3.680   3.026  0.2192 -0.8039  1.4125
 6756TIP3    H241760   4.248   3.762   3.068  1.1048 -0.9984 -0.5950
 6757TIP3   OH241761   4.828   3.692  11.037  0.2298  0.3269 -0.1085
 6757TIP3    H141762   4.780   3.624  11.085 -0.9902  1.5420  0.4336
 6757TIP3    H241763   4.762   3.731  10.979  1.5785 -0.8885 -2.6153
 6758TIP3   OH241764   2.661   0.480   5.649 -0.3783  0.0968  0.1326
 6758TIP3    H141765   2.687   0.523   5.567  0.0683  0.0401  0.2388
 6758TIP3    H241766   2.741   0.479   5.701  0.0505 -2.2241 -0.4472
 6759TIP3   OH241767   5.814   3.333   4.111 -0.3288 -0.0136  0.1032
 6759TIP3    H141768   5.888   3.274   4.123  0.6889  1.3655  0.8621
 6759TIP3    H241769   5.834   3.380   4.030 -0.1474  0.6663  0.5371
 6760TIP3   OH241770   2.750   5.457  13.981 -0.6247  0.0718  0.0541
 6760TIP3    H141771   2.677   5.518  13.973  0.5886  1.7405  1.1171
 6760TIP3    H241772   2.712   5.380  14.024 -2.2454 -0.1081 -1.5641
 6761TIP3   OH241773   3.873   2.054  13.035  0.2850 -0.5701 -0.1944
 6761TIP3    H141774   3.926   2.098  13.101 -0.9321  0.5962  0.0459
 6761TIP3    H241775   3.912   2.080  12.951 -1.0408  1.9441 -0.1195
 6762TIP3   OH241776   0.877   1.126  15.596 -0.1687  0.3430 -0.1128
 6762TIP3    H141777   0.858   1.121  15.502  2.5235 -0.2877 -0.7133
 6762TIP3    H241778   0.921   1.210  15.607  1.1949 -0.3755  0.1796
 6763TIP3   OH241779   3.273   4.921  15.234 -0.3155  0.1378 -0.1109
 6763TIP3    H141780   3.257   4.968  15.316  0.9417 -0.4816  0.5289
 6763TIP3    H241781   3.315   4.985  15.177  0.5301  0.0849  0.4228
 6764TIP3   OH241782   1.276   1.333   4.432  0.3871 -0.5202  0.0915
 6764TIP3    H141783   1.351   1.323   4.372 -1.8558 -1.3464 -2.8137
 6764TIP3    H241784   1.266   1.427   4.441 -0.5667 -0.2222 -2.8858
 6765TIP3   OH241785   2.383   0.914  11.613  0.7920  0.4482  0.4238
 6765TIP3    H141786   2.438   0.887  11.540 -0.2913 -1.3199  0.1982
 6765TIP3    H241787   2.389   1.009  11.614  1.2325  0.4899 -1.6681
 6766TIP3   OH241788   1.328   1.248  14.074 -0.3723 -0.3256 -0.4193
 6766TIP3    H141789   1.407   1.255  14.129 -0.8392 -1.2728  0.4242
 6766TIP3    H241790   1.355   1.193  14.000  0.4511  1.5279 -1.5540
 6767TIP3   OH241791   2.250   6.566   2.416 -0.1864  0.0247 -0.3178
 6767TIP3    H141792   2.308   6.514   2.472 -0.3007  1.1468  0.9143
 6767TIP3    H241793   2.162   6.541   2.444 -0.2413  1.1277  0.5805
 6768TIP3   OH241794   3.311   6.293  12.389 -0.1012 -0.8897 -0.3152
 6768TIP3    H141795   3.276   6.377  12.357 -0.5191 -1.0166 -0.2067
 6768TIP3    H241796   3.403   6.295  12.366  0.1116  0.0048  0.5204
 6769TIP3   OH241797   5.473   6.289   0.237  0.2463  0.1985 -0.9370
 6769TIP3    H141798   5.553   6.289   0.290 -0.8273 -0.8222  0.7839
 6769TIP3    H241799   5.442   6.379   0.241  0.5977  0.3045 -0.4974
 6770TIP3   OH241800   2.245   3.493  15.763  0.6028 -0.2187  0.1533
 6770TIP3    H141801   2.196   3.551  15.705  0.4200 -0.1450  0.3805
 6770TIP3    H241802   2.227   3.405  15.730  0.4564 -0.1803  0.1297
 6771TIP3   OH241803   5.683   5.709  13.569 -0.3430  0.0378  0.0326
 6771TIP3    H141804   5.606   5.652  13.571 -0.7583  0.6016  0.9474
 6771TIP3    H241805   5.756   5.652  13.594  0.0127 -1.1003 -3.1963
 6772TIP3   OH241806   0.421   6.132  12.237  0.0275  0.2416 -0.2181
 6772TIP3    H141807   0.400   6.055  12.291  1.0005  1.1388  1.5446
 6772TIP3    H241808   0.339   6.180  12.230 -0.0591  0.2690  0.7860
 6773TIP3   OH241809   6.367   3.315   0.715  0.1288 -0.1542  0.1070
 6773TIP3    H141810   6.427   3.264   0.661  0.4055  0.0087  0.2617
 6773TIP3    H241811   6.308   3.250   0.753  0.4979 -0.3614  0.3263
 6774TIP3   OH241812   5.786   4.881   3.897 -0.3330 -0.1437 -0.0626
 6774TIP3    H141813   5.794   4.964   3.849 -2.6953 -0.5591 -1.3104
 6774TIP3    H241814   5.831   4.817   3.842  0.3672  0.0452  0.2698
 6775TIP3   OH241815   2.157   4.383  14.200 -0.3240  0.4129  0.2989
 6775TIP3    H141816   2.219   4.334  14.253 -0.2536 -0.0676 -0.2176
 6775TIP3    H241817   2.090   4.412  14.263 -0.6930 -0.8647  0.5380
 6776TIP3   OH241818   2.582   6.071   5.644 -0.0115  0.1106  0.0663
 6776TIP3    H141819   2.603   6.095   5.735 -0.1921 -0.1756  0.1833
 6776TIP3    H241820   2.491   6.041   5.647 -0.0466  0.1829 -0.2259
 6777TIP3   OH241821   6.364   3.590  15.010 -0.1513 -0.2953  0.2682
 6777TIP3    H141822   6.339   3.680  15.033 -0.1375 -0.1866 -0.1266
 6777TIP3    H241823   6.297   3.562  14.948  0.4591 -0.1583 -0.4669
 6778TIP3   OH241824   4.633   3.377  10.576  0.0443  0.2561  0.7011
 6778TIP3    H141825   4.666   3.458  10.537  2.2705 -0.3064  1.3044
 6778TIP3    H241826   4.562   3.406  10.634  0.7934  1.7996  0.9074
 6779TIP3   OH241827   4.637   5.153  14.370 -0.3666  0.0823 -0.0862
 6779TIP3    H141828   4.725   5.158  14.406 -0.6951  4.2284  0.6128
 6779TIP3    H241829   4.588   5.103  14.434  1.0104 -0.4148  0.6222
 6780TIP3   OH241830   6.701   1.447   5.891 -0.1735 -0.1409 -0.5547
 6780TIP3    H141831   6.759   1.507   5.845 -0.4659 -0.2202 -1.0330
 6780TIP3    H241832   6.686   1.489   5.976  2.9639 -1.4990  0.8512
 6781TIP3   OH241833   5.825   0.467   2.552 -0.0897  0.5634  0.3379
 6781TIP3    H141834   5.855   0.444   2.640 -0.7354 -1.4680  0.0954
 6781TIP3    H241835   5.738   0.505   2.566 -1.4759 -2.3253  0.5368
 6782TIP3   OH241836   6.356   5.894  15.880 -0.2357 -0.0702  0.0211
 6782TIP3    H141837   6.334   5.987  15.879 -0.8112 -0.1699 -2.1450
 6782TIP3    H241838   6.403   5.881  15.962 -1.2944  1.8413  1.0051
 6783TIP3   OH241839   2.080   4.199  15.526  0.3768  0.3889  0.2262
 6783TIP3    H141840   2.076   4.254  15.448 -0.3834  1.4599  0.9801
 6783TIP3    H241841   2.088   4.261  15.599  1.1395 -0.5847  1.0020
 6784TIP3   OH241842   4.418   2.465  12.651  0.5832 -0.0603  0.3305
 6784TIP3    H141843   4.374   2.548  12.631  2.0680  0.5278 -0.6746
 6784TIP3    H241844   4.362   2.398  12.611 -0.1363  0.5398  0.3084
 6785TIP3   OH241845   1.079   3.976   4.925 -0.2674 -0.6146  0.6024
 6785TIP3    H141846   1.136   4.026   4.867 -0.1855 -2.2519 -0.7926
 6785TIP3    H241847   1.006   3.949   4.870 -2.3136  1.1431  2.2601
 6786TIP3   OH241848   3.021   1.605   5.284 -0.4468 -0.0895  0.1531
 6786TIP3    H141849   3.105   1.650   5.270 -0.7737 -0.2321 -3.0774
 6786TIP3    H241850   2.956   1.675   5.285 -0.5507 -0.1538 -0.6948
 6787TIP3   OH241851   1.181   6.695   4.378 -0.0205 -0.4121  0.2178
 6787TIP3    H141852   1.099   6.688   4.329 -0.4758 -0.4573  0.9717
 6787TIP3    H241853   1.165   6.644   4.457  1.3473 -1.9132 -0.4094
 6788TIP3   OH241854   1.884   6.569  11.432  0.4552  0.4328  0.0148
 6788TIP3    H141855   1.897   6.481  11.397 -0.5070  1.0183 -1.9486
 6788TIP3    H241856   1.795   6.569  11.465 -0.2104  1.1531 -1.6737
 6789TIP3   OH241857   0.102   0.582   0.733  0.3652 -0.2196  0.0417
 6789TIP3    H141858   0.054   0.664   0.745  0.0651 -0.2193 -1.0164
 6789TIP3    H241859   0.054   0.517   0.785  1.6087  0.5916  2.3331
 6790TIP3   OH241860   1.448   0.398  15.693 -0.0384 -0.2023 -0.3421
 6790TIP3    H141861   1.384   0.434  15.630  0.1271 -2.3023 -1.8247
 6790TIP3    H241862   1.448   0.304  15.675  2.4820 -0.4375  0.5672
 6791TIP3   OH241863   0.754   3.085   3.302  0.6192  0.0981 -0.5816
 6791TIP3    H141864   0.737   2.996   3.335 -0.1346  0.7853  0.9806
 6791TIP3    H241865   0.837   3.077   3.255  2.1536 -0.8725  2.0376
 6792TIP3   OH241866   4.179   3.039  17.193  0.8243  0.5831 -0.7458
 6792TIP3    H141867   4.195   2.996  17.277  2.3396  1.4414 -0.5720
 6792TIP3    H241868   4.127   2.975  17.143 -0.4299  0.2035  0.9446
 6793TIP3   OH241869   2.653   3.569  14.544  0.1922  0.4828  0.0230
 6793TIP3    H141870   2.718   3.591  14.477  0.2638 -0.2770 -0.1658
 6793TIP3    H241871   2.575   3.545  14.494  0.0643  0.4767  0.2255
 6794TIP3   OH241872   6.505   2.045  11.729 -0.0231  0.0443 -0.4167
 6794TIP3    H141873   6.452   2.115  11.767  0.4924  0.5151 -0.5654
 6794TIP3    H241874   6.448   1.968  11.732 -0.7569  0.5715 -0.6824
 6795TIP3   OH241875   5.372   6.711   5.632 -0.3576 -0.6298 -0.3412
 6795TIP3    H141876   5.362   6.788   5.576 -0.2557 -0.3500  0.0230
 6795TIP3    H241877   5.424   6.650   5.579 -0.0487 -0.2683 -0.4567
 6796TIP3   OH241878   6.238   3.880   3.729 -0.1176  0.1037  0.5742
 6796TIP3    H141879   6.194   3.965   3.739 -0.2616  0.1119 -0.0784
 6796TIP3    H241880   6.324   3.893   3.768 -0.1071  0.5798  0.4018
 6797TIP3   OH241881   6.518   4.967  15.762 -0.0134 -0.1294  0.6783
 6797TIP3    H141882   6.612   4.977  15.777 -0.0087  0.1395  0.4730
 6797TIP3    H241883   6.507   4.875  15.739  0.6289  0.4577 -2.3731
 6798TIP3   OH241884   0.563   3.876  14.029 -0.3873  0.1929 -0.0884
 6798TIP3    H141885   0.489   3.817  14.017  0.2258 -0.8133  0.9329
 6798TIP3    H241886   0.526   3.950  14.078 -0.9272  0.1868 -0.4687
 6799TIP3   OH241887   5.801   6.211   3.532 -0.0323 -0.2528 -0.3954
 6799TIP3    H141888   5.779   6.128   3.575 -0.8719  0.7006  1.1227
 6799TIP3    H241889   5.779   6.277   3.597  0.7639  1.1637 -1.5211
 6800TIP3   OH241890   4.757   5.710  11.812 -0.2075  1.1007  0.1497
 6800TIP3    H141891   4.851   5.729  11.807 -0.1026  0.5694  0.0649
 6800TIP3    H241892   4.751   5.629  11.863 -0.4514 -0.1477 -1.7810
 6801TIP3   OH241893   1.862   3.254   4.480 -0.4709  0.6379  0.2499
 6801TIP3    H141894   1.826   3.194   4.414 -0.2788  0.6690  0.1154
 6801TIP3    H241895   1.811   3.236   4.559 -0.8550  0.7553  0.0329
 6802TIP3   OH241896   2.448   6.060  10.592 -0.2367 -0.0002  0.7216
 6802TIP3    H141897   2.419   6.140  10.636 -1.4467  0.2122 -0.3878
 6802TIP3    H241898   2.377   5.997  10.608  0.3311 -0.6019  0.9047
 6803TIP3   OH241899   0.616   4.304   5.952  0.4068  0.0698  0.1154
 6803TIP3    H141900   0.619   4.225   6.005 -0.8714  0.8983  1.4862
 6803TIP3    H241901   0.570   4.369   6.006 -2.0088  0.6494 -2.3574
 6804TIP3   OH241902   6.325   4.591   1.681 -0.0088 -0.0335  0.3359
 6804TIP3    H141903   6.301   4.607   1.772 -0.6524 -1.7751  0.5153
 6804TIP3    H241904   6.244   4.560   1.640  0.9795 -2.3692 -0.0130
 6805TIP3   OH241905   5.419   3.210  17.236 -0.6949 -0.7500 -0.8093
 6805TIP3    H141906   5.396   3.297  17.204 -1.5805 -0.5069  0.3911
 6805TIP3    H241907   5.468   3.170  17.165  0.6712  1.1240 -0.9898
 6806TIP3   OH241908   2.222   3.136  12.483  0.3324 -0.3517 -1.0372
 6806TIP3    H141909   2.147   3.081  12.505 -1.2949  1.7094 -1.0930
 6806TIP3    H241910   2.296   3.097  12.530 -1.2126 -1.1956  0.7979
 6807TIP3   OH241911   2.914   4.892   1.555  0.1506  0.0951  0.5735
 6807TIP3    H141912   2.877   4.851   1.476 -1.5834  1.2806  0.7086
 6807TIP3    H241913   3.004   4.912   1.531 -0.1840 -0.0336 -0.9405
 6808TIP3   OH241914   1.344   2.572  12.189  0.5603  0.1906 -0.0678
 6808TIP3    H141915   1.326   2.605  12.101  1.8089  0.0966 -0.3751
 6808TIP3    H241916   1.437   2.550  12.188  0.5949  0.1907  1.2812
 6809TIP3   OH241917   3.899   0.207   3.461  0.3799  0.1892 -0.3117
 6809TIP3    H141918   3.926   0.166   3.543  0.0064 -0.7959 -0.6587
 6809TIP3    H241919   3.806   0.224   3.472  0.4465  0.5553 -0.3266
 6810TIP3   OH241920   3.776   3.583  13.849  0.1736  0.2631  0.1523
 6810TIP3    H141921   3.840   3.513  13.865 -0.5388 -0.6016 -0.6430
 6810TIP3    H241922   3.823   3.646  13.795  0.9166  0.5582  1.1130
 6811TIP3   OH241923   0.225   3.958  12.388  0.3167  0.4471 -0.1722
 6811TIP3    H141924   0.163   3.957  12.461  1.1035 -1.6970  0.5485
 6811TIP3    H241925   0.292   4.020  12.415  0.5751 -0.2914  0.9570
 6812TIP3   OH241926   0.309   2.106   1.804 -0.3317  0.0125 -0.6883
 6812TIP3    H141927   0.308   2.188   1.853 -1.0760 -0.3481 -0.0656
 6812TIP3    H241928   0.224   2.103   1.759 -0.8518 -0.9702  0.2904
 6813TIP3   OH241929   0.831   6.118  17.115  0.1120  0.4171 -0.0852
 6813TIP3    H141930   0.760   6.181  17.118  1.0298  1.4910 -0.2785
 6813TIP3    H241931   0.894   6.155  17.052  0.1192 -1.2894 -1.1361
 6814TIP3   OH241932   4.935   0.123   2.090 -0.1150 -0.3515 -0.0786
 6814TIP3    H141933   4.902   0.058   2.152  1.7756  0.0064  1.3913
 6814TIP3    H241934   5.015   0.085   2.055  0.0569  0.4297 -0.5653
 6815TIP3   OH241935   0.930   3.075  13.301  0.0536 -0.1327  0.2690
 6815TIP3    H141936   0.957   3.022  13.227  0.7634 -0.5047  0.7820
 6815TIP3    H241937   0.891   3.154  13.262  1.1402  0.0433 -0.4966
 6816TIP3   OH241938   4.972   1.428  17.027  0.2474 -0.0747  0.1439
 6816TIP3    H141939   4.904   1.491  17.049  0.9390  0.8513 -0.3054
 6816TIP3    H241940   4.929   1.343  17.034 -0.4623  0.3804  1.6487
 6817TIP3   OH241941   3.320   1.961   0.607  0.6230  0.3963 -0.3710
 6817TIP3    H141942   3.403   1.972   0.562  0.7717 -0.6732 -0.3852
 6817TIP3    H241943   3.315   2.035   0.667  2.0112 -0.0120  0.2837
 6818TIP3   OH241944   0.740   6.386  13.776  0.1611  0.8090  0.6270
 6818TIP3    H141945   0.715   6.304  13.735  2.1410  0.8984 -0.9565
 6818TIP3    H241946   0.660   6.419  13.817 -1.8691  0.3284 -2.6179
 6819TIP3   OH241947   4.272   2.643  11.944 -0.5502 -0.0304  0.1839
 6819TIP3    H141948   4.272   2.675  12.034 -1.0800 -1.1072  0.5869
 6819TIP3    H241949   4.357   2.600  11.934 -0.6150 -0.1795  0.2739
 6820TIP3   OH241950   0.858   2.006   1.202 -0.1981 -0.5132  0.2100
 6820TIP3    H141951   0.899   2.004   1.116 -0.5087  0.2282  0.0407
 6820TIP3    H241952   0.867   1.917   1.235  0.4248 -0.6636 -0.3520
 6821TIP3   OH241953   3.980   0.586   4.766 -0.0845  0.2589 -0.0682
 6821TIP3    H141954   4.063   0.583   4.717 -0.7634  0.6949 -1.3052
 6821TIP3    H241955   3.913   0.574   4.698 -0.9878 -2.1347  1.1511
 6822TIP3   OH241956   2.013   3.757  11.027 -0.3368  0.0083  0.1825
 6822TIP3    H141957   2.059   3.717  10.954 -1.5486 -1.3518  0.1031
 6822TIP3    H241958   1.922   3.765  10.997 -0.8522 -0.5494  1.5050
 6823TIP3   OH241959   6.236   2.941  10.434 -0.4976 -0.2870  0.0376
 6823TIP3    H141960   6.169   2.953  10.500  0.9175 -0.8402  1.6584
 6823TIP3    H241961   6.241   2.846  10.422 -0.1347 -0.2393 -0.2132
 6824TIP3   OH241962   2.486   5.175  15.198 -0.3128 -0.5975  0.0569
 6824TIP3    H141963   2.545   5.121  15.251 -0.9101 -0.3747  0.9716
 6824TIP3    H241964   2.416   5.115  15.174 -0.1792 -0.6276 -0.2610
 6825TIP3   OH241965   0.187   3.768  12.202 -0.2815  0.2867  0.5578
 6825TIP3    H141966   0.109   3.734  12.246  1.9903 -1.3732  3.7366
 6825TIP3    H241967   0.227   3.827  12.265  0.6483  1.8203 -1.3501
 6826TIP3   OH241968   4.688   0.881  17.232  0.2777  0.7774  0.2370
 6826TIP3    H141969   4.712   0.843  17.317  1.0657 -1.9265 -1.0754
 6826TIP3    H241970   4.732   0.966  17.230  1.2509  0.3656  2.0368
 6827TIP3   OH241971   4.800   0.940   4.474 -0.4438 -0.5720 -0.0943
 6827TIP3    H141972   4.874   0.970   4.527 -1.1694 -1.4348  1.4995
 6827TIP3    H241973   4.723   0.968   4.524 -1.1761 -3.9972  0.9688
 6828TIP3   OH241974   1.726   2.706   5.406  0.2646 -0.4648  0.6031
 6828TIP3    H141975   1.797   2.715   5.468  0.5535  0.6161  0.1408
 6828TIP3    H241976   1.768   2.703   5.320 -0.2546  2.5130  0.1119
 6829TIP3   OH241977   1.189   3.768  12.733  0.7081  0.2053 -0.4321
 6829TIP3    H141978   1.139   3.833  12.684 -0.2364  0.5677  0.9622
 6829TIP3    H241979   1.140   3.755  12.814  2.0778 -0.5772  0.3184
 6830TIP3   OH241980   1.561   6.533   3.387 -0.4818 -0.0320 -0.3289
 6830TIP3    H141981   1.563   6.438   3.388 -0.2077 -0.0942 -2.5807
 6830TIP3    H241982   1.469   6.555   3.369 -0.1077  0.0275 -2.3229
 6831TIP3   OH241983   3.014   3.154  13.341 -0.0118 -0.3314  0.2190
 6831TIP3    H141984   2.976   3.224  13.288  0.3991  0.2566  0.6830
 6831TIP3    H241985   3.011   3.188  13.431  0.6617 -0.6935  0.3862
 6832TIP3   OH241986   3.147   5.927  17.253 -0.5912  0.0610  0.0529
 6832TIP3    H141987   3.074   5.911  17.194 -0.6270 -0.1616  0.1579
 6832TIP3    H241988   3.128   5.874  17.330 -1.3144  1.4669  0.8959
 6833TIP3   OH241989   0.841   3.566   4.328 -0.3081 -0.7312 -0.3313
 6833TIP3    H141990   0.887   3.646   4.355 -2.1579  0.2403  0.1781
 6833TIP3    H241991   0.890   3.534   4.253  1.4172 -0.0208  0.4415
 6834TIP3   OH241992   3.829   0.150   4.993  0.2094 -0.5772 -0.1542
 6834TIP3    H141993   3.820   0.246   4.991  0.2025 -0.5808 -0.3789
 6834TIP3    H241994   3.923   0.135   4.990  0.1957 -0.6064 -2.6902
 6835TIP3   OH241995   0.167   3.110   2.777  0.3593  0.2732 -0.4577
 6835TIP3    H141996   0.108   3.162   2.722 -0.6724 -0.4245 -0.0301
 6835TIP3    H241997   0.224   3.065   2.715 -0.2194  0.1726 -0.9329
 6836TIP3   OH241998   2.462   2.385  13.130  0.2106 -0.4882  0.0987
 6836TIP3    H141999   2.434   2.424  13.047 -1.2163 -1.3911  0.1305
 6836TIP3    H242000   2.381   2.377  13.182  0.5871 -2.5843  0.4564
 6837TIP3   OH242001   1.473   1.974   5.911 -0.4328  0.0959  0.5232
 6837TIP3    H142002   1.437   2.062   5.895 -0.1149  0.5401  2.0698
 6837TIP3    H242003   1.412   1.935   5.973  0.5025 -0.0023  1.4012
 6838TIP3   OH242004   3.823   2.338  11.842 -0.1479  0.1258  0.1981
 6838TIP3    H142005   3.909   2.373  11.819 -0.1733  1.5741  2.1060
 6838TIP3    H242006   3.813   2.261  11.786  2.3326 -0.0087 -0.1618
 6839TIP3   OH242007   3.942   3.933  13.327 -0.0906  0.4364 -0.0607
 6839TIP3    H142008   3.913   3.922  13.417 -1.6363  0.1246 -0.5552
 6839TIP3    H242009   3.870   3.979  13.284 -0.4573 -1.4696 -1.6519
 6840TIP3   OH242010   2.918   6.565   4.144 -0.2689  0.3949 -0.0060
 6840TIP3    H142011   3.011   6.544   4.132  0.1083  1.0084  1.5448
 6840TIP3    H242012   2.912   6.590   4.236 -2.1661 -0.5662  0.1643
 6841TIP3   OH242013   6.133   0.068  15.792 -0.6468  0.4434  0.5746
 6841TIP3    H142014   6.164   0.142  15.739  0.7612 -1.2602 -1.1582
 6841TIP3    H242015   6.150   0.095  15.882 -3.2787  3.5309  0.3332
 6842TIP3   OH242016   6.333   4.980   1.056  0.1221 -1.5104  0.4751
 6842TIP3    H142017   6.395   5.041   1.096  1.6745 -1.7834 -1.4097
 6842TIP3    H242018   6.271   4.960   1.127 -0.3787  2.0694  1.2568
 6843TIP3   OH242019   0.759   5.878  11.747  0.2828  0.6887  0.1508
 6843TIP3    H142020   0.763   5.901  11.655  1.4854  0.3086  0.0897
 6843TIP3    H242021   0.715   5.793  11.749  1.4564  0.0460 -0.2208
 6844TIP3   OH242022   5.854   5.782   3.602  0.1728 -0.4837 -0.1055
 6844TIP3    H142023   5.796   5.856   3.589  0.8181  0.0676  0.1193
 6844TIP3    H242024   5.942   5.819   3.596  0.5271 -1.4282 -1.1984
 6845TIP3   OH242025   0.320   3.546  11.503  0.2321 -0.0040  0.2820
 6845TIP3    H142026   0.387   3.543  11.572  0.3672  1.3368  0.2514
 6845TIP3    H242027   0.353   3.612  11.441 -0.8901  0.3269  0.0181
 6846TIP3   OH242028   6.085   2.108  16.541  0.3656 -0.2491 -0.4596
 6846TIP3    H142029   6.175   2.075  16.545  0.7856  0.9733  0.5025
 6846TIP3    H242030   6.075   2.138  16.450  0.9425 -0.3160 -0.5494
 6847TIP3   OH242031   1.446   0.018  17.214  0.0058 -0.2577  0.7415
 6847TIP3    H142032   1.520   0.069  17.245  0.2272  0.4585 -0.8278
 6847TIP3    H242033   1.482  -0.036  17.143 -1.0255  0.5089 -0.4255
 6848TIP3   OH242034   1.616   5.300  14.770  0.0577  0.1652 -0.5560
 6848TIP3    H142035   1.544   5.244  14.796  0.2922 -1.1421 -2.4819
 6848TIP3    H242036   1.574   5.378  14.733 -0.2823  0.6839  0.8604
 6849TIP3   OH242037   1.396   1.374   3.410  0.1840  0.6725  0.4827
 6849TIP3    H142038   1.393   1.436   3.337  3.8171 -0.1206 -0.5322
 6849TIP3    H242039   1.483   1.334   3.404 -0.8205 -2.2731  2.9522
 6850TIP3   OH242040   4.074   4.816  16.324 -0.2030  0.2722 -0.2536
 6850TIP3    H142041   4.116   4.796  16.407 -1.9953 -1.0562  0.4121
 6850TIP3    H242042   4.032   4.733  16.297 -1.8744  1.3236 -1.1066
 6851TIP3   OH242043   1.612   3.307  10.432  0.1021 -0.8149 -0.0327
 6851TIP3    H142044   1.566   3.365  10.492  0.5255 -0.9939  0.4746
 6851TIP3    H242045   1.595   3.343  10.345  1.1591  0.6365  0.3289
 6852TIP3   OH242046   6.792   0.384  11.933  0.1616  0.3260  0.4986
 6852TIP3    H142047   6.740   0.419  11.860  2.4935  1.1237 -0.9124
 6852TIP3    H242048   6.759   0.431  12.010 -1.3347  0.6177 -0.2742
 6853TIP3   OH242049   6.815   5.889   4.609  0.2221  0.4982  0.4966
 6853TIP3    H142050   6.822   5.887   4.705  0.4731 -0.0019  0.4712
 6853TIP3    H242051   6.786   5.801   4.586  1.2551  0.2643  0.0328
 6854TIP3   OH242052   1.114   6.341  17.080 -0.5413  0.1490  0.1824
 6854TIP3    H142053   1.048   6.382  17.135  0.2772  1.2109  0.3956
 6854TIP3    H242054   1.105   6.385  16.995  0.7763  1.2870  0.5972
 6855TIP3   OH242055   6.408   2.696   0.854  0.0752  0.4275  0.2259
 6855TIP3    H142056   6.449   2.779   0.879 -0.2342  0.8239 -0.5311
 6855TIP3    H242057   6.317   2.705   0.881 -0.5520  1.3183 -1.9031
 6856TIP3   OH242058   2.440   4.549   4.096 -0.7136 -0.5517 -0.0142
 6856TIP3    H142059   2.373   4.591   4.043  0.9508  0.7622 -1.1709
 6856TIP3    H242060   2.442   4.599   4.178 -1.1184 -0.6062  0.0324
 6857TIP3   OH242061   5.541   5.825  14.532 -0.3746 -0.1445 -0.1258
 6857TIP3    H142062   5.608   5.893  14.520  0.0930 -0.3390  1.2283
 6857TIP3    H242063   5.478   5.864  14.593 -1.2412 -0.1626 -0.9796
 6858TIP3   OH242064   0.702   4.426   3.347  0.0061  0.3856 -0.0436
 6858TIP3    H142065   0.756   4.369   3.292  1.5723  0.9645  0.8253
 6858TIP3    H242066   0.653   4.479   3.285  2.6763  1.9259 -1.0123
 6859TIP3   OH242067   3.599   5.330   3.487  0.3879  0.2075  0.6682
 6859TIP3    H142068   3.553   5.344   3.570 -0.5697 -0.5479  0.2912
 6859TIP3    H242069   3.626   5.238   3.490 -1.5136 -0.4637 -0.6936
 6860TIP3   OH242070   5.016   4.668  14.953 -0.8618 -0.6092  0.4530
 6860TIP3    H142071   5.062   4.632  15.028 -1.9514 -0.5964  1.1466
 6860TIP3    H242072   5.081   4.669  14.883  0.4462  0.2388  1.6315
 6861TIP3   OH242073   3.464   5.380   1.263 -0.3228  0.0572 -0.0705
 6861TIP3    H142074   3.427   5.411   1.346 -1.4439 -2.2829  0.3883
 6861TIP3    H242075   3.521   5.308   1.288  2.2475  1.5957 -1.0877
 6862TIP3   OH242076   2.951   5.706  15.122 -0.2894  0.2618  0.2542
 6862TIP3    H142077   2.983   5.743  15.040  2.3160  1.1134  1.5453
 6862TIP3    H242078   2.857   5.724  15.121 -0.3435  0.2500 -2.5009
 6863TIP3   OH242079   6.285   0.735   4.186  0.1635  0.0363  0.3735
 6863TIP3    H142080   6.326   0.796   4.124 -0.5177  0.2442  0.1227
 6863TIP3    H242081   6.200   0.715   4.148  0.8826 -2.1335 -0.2292
 6864TIP3   OH242082   6.635   4.205  12.882 -0.7407 -0.1128 -0.2311
 6864TIP3    H142083   6.667   4.185  12.970  1.0223  0.8960 -0.5964
 6864TIP3    H242084   6.582   4.128  12.858  0.0567 -1.1215  1.0919
 6865TIP3   OH242085   6.698   6.205   2.637  0.1821 -0.2375  0.4822
 6865TIP3    H142086   6.756   6.204   2.713  0.8865  1.2080 -0.0024
 6865TIP3    H242087   6.758   6.201   2.561 -0.2818  1.5086 -0.0296
 6866TIP3   OH242088   1.150   2.979  13.440 -0.3370 -0.0109 -1.0574
 6866TIP3    H142089   1.137   2.921  13.366 -2.4680  0.3494 -1.0091
 6866TIP3    H242090   1.085   3.048  13.429 -1.2138 -0.3211  1.4862
 6867TIP3   OH242091   4.132   2.013   0.390  0.3345  0.5406  0.3075
 6867TIP3    H142092   4.153   2.054   0.474 -2.8019  1.6429  0.6838
 6867TIP3    H242093   4.038   2.026   0.380  0.3783 -0.7087 -2.8050
 6868TIP3   OH242094   3.170   2.580  16.128  0.5157  0.2388 -0.3847
 6868TIP3    H142095   3.264   2.592  16.142  0.2421  0.6270  1.3498
 6868TIP3    H242096   3.150   2.495  16.168  0.4392 -0.7855 -2.4903
 6869TIP3   OH242097   3.719   6.610   1.876  0.3799  0.3490  0.7586
 6869TIP3    H142098   3.760   6.538   1.828 -0.2147 -0.2016  1.0555
 6869TIP3    H242099   3.717   6.683   1.814 -0.8020 -0.4929 -0.2122
 6870TIP3   OH242100   5.634   3.940  15.580 -0.0046  0.5230  0.2666
 6870TIP3    H142101   5.658   3.896  15.661  0.1465 -0.8898 -0.5071
 6870TIP3    H242102   5.661   4.031  15.592 -0.0127  0.3456  1.7920
 6871TIP3   OH242103   4.216   3.177   2.786 -0.3518 -0.2461  0.7015
 6871TIP3    H142104   4.311   3.182   2.783 -0.2709 -1.1707  1.4116
 6871TIP3    H242105   4.188   3.181   2.694  0.3190  0.7194  0.5246
 6872TIP3   OH242106   3.242   1.185  11.429 -0.3693 -0.1751 -0.0521
 6872TIP3    H142107   3.273   1.162  11.341  0.1063 -1.2559  0.3858
 6872TIP3    H242108   3.250   1.280  11.433 -0.3297 -0.1207 -1.1540
 6873TIP3   OH242109   6.338   2.934  10.957  0.9249 -0.6841 -0.1435
 6873TIP3    H142110   6.367   2.864  10.898 -0.4378 -1.8034  0.4514
 6873TIP3    H242111   6.318   2.889  11.039 -0.2179  0.3464  0.1688
 6874TIP3   OH242112   1.888   3.040  15.299  0.0757 -0.2716 -0.0307
 6874TIP3    H142113   1.868   3.126  15.334 -0.6002 -0.4257 -0.0197
 6874TIP3    H242114   1.957   3.006  15.357 -0.4013 -0.1657  0.6120
 6875TIP3   OH242115   1.104   3.301   2.578 -0.4112  0.3715  0.4338
 6875TIP3    H142116   1.055   3.220   2.565  0.3251 -0.5204  2.6735
 6875TIP3    H242117   1.041   3.371   2.563 -2.2461 -0.7153  2.5563
 6876TIP3   OH242118   3.443   4.158  10.980  0.1344  0.0526 -0.1788
 6876TIP3    H142119   3.494   4.233  10.951  1.5313  0.1698  2.2560
 6876TIP3    H242120   3.362   4.163  10.931  1.8890  0.6524 -3.2554
 6877TIP3   OH242121   1.921   1.340   4.213  0.6951 -0.3046  0.2780
 6877TIP3    H142122   2.013   1.317   4.199  0.3308 -0.3736 -2.8818
 6877TIP3    H242123   1.879   1.260   4.243  1.0960 -1.3659 -1.7844
 6878TIP3   OH242124   5.258   0.987  17.228  0.0486  0.0397  0.1375
 6878TIP3    H142125   5.223   0.989  17.139 -0.3815  0.1105  0.3069
 6878TIP3    H242126   5.343   0.944  17.219  0.4869  0.9948 -0.4713
 6879TIP3   OH242127   5.509   4.332  11.148 -0.2931 -0.1969  0.1888
 6879TIP3    H142128   5.601   4.315  11.131 -0.5189 -1.0546 -0.2282
 6879TIP3    H242129   5.462   4.266  11.097 -1.1192 -0.2934  1.0410
 6880TIP3   OH242130   5.801   0.234  12.437 -0.1167 -0.8479  0.2057
 6880TIP3    H142131   5.749   0.167  12.483 -0.4104 -1.0118 -0.3457
 6880TIP3    H242132   5.758   0.241  12.351  0.7605 -0.9663 -0.2494
 6881TIP3   OH242133   0.246   4.850   2.259  0.3673  0.1691  0.1031
 6881TIP3    H142134   0.161   4.818   2.227  0.0321  2.1744 -1.2621
 6881TIP3    H242135   0.229   4.940   2.285  1.3351 -0.4730  3.3778
 6882TIP3   OH242136   1.093   5.847   3.291  0.0723 -0.1620 -0.1084
 6882TIP3    H142137   1.030   5.885   3.230  0.5763  1.8943  0.5501
 6882TIP3    H242138   1.040   5.815   3.364 -0.2567  1.7883  0.5647
 6883TIP3   OH242139   5.586   1.264  14.245  0.5384 -0.0927 -0.0866
 6883TIP3    H142140   5.514   1.325  14.257  0.7601  0.0243  0.6985
 6883TIP3    H242141   5.659   1.318  14.216  0.1929 -0.2784 -1.3558
 6884TIP3   OH242142   2.622   0.337   0.739  0.0080  0.5292  0.2305
 6884TIP3    H142143   2.530   0.343   0.765  0.2202  1.1793  0.8728
 6884TIP3    H242144   2.659   0.271   0.798 -0.3458 -0.7941 -0.9717
 6885TIP3   OH242145   1.788   0.878  11.100  0.5177  0.5937  0.2599
 6885TIP3    H142146   1.802   0.971  11.081 -0.0488  0.5801 -0.2525
 6885TIP3    H242147   1.791   0.835  11.014 -0.6486  0.3389  0.3308
 6886TIP3   OH242148   2.110   0.180   3.986  0.0306 -0.5457 -0.0390
 6886TIP3    H142149   2.138   0.240   4.056  0.6774 -0.4676 -0.3648
 6886TIP3    H242150   2.182   0.181   3.923 -0.4559 -0.7856 -0.6044
 6887TIP3   OH242151   4.832   4.286  11.281  0.2987 -0.8232  0.5663
 6887TIP3    H142152   4.843   4.205  11.332  0.7300 -1.3527 -0.3370
 6887TIP3    H242153   4.776   4.260  11.208  1.4591 -0.6375 -0.4209
 6888TIP3   OH242154   0.519   0.399  13.290  0.0950 -0.2025 -0.0378
 6888TIP3    H142155   0.604   0.358  13.273 -0.8983 -2.2089 -0.3630
 6888TIP3    H242156   0.517   0.413  13.385  0.4065 -1.0129  0.0901
 6889TIP3   OH242157   2.543   5.310  11.846 -0.4685  0.2385 -0.5801
 6889TIP3    H142158   2.534   5.262  11.763 -0.8170  0.1492 -0.4917
 6889TIP3    H242159   2.615   5.266  11.891  1.2718  1.6832 -1.7925
 6890TIP3   OH242160   2.861   0.686   1.347  0.0291 -0.4285 -0.0028
 6890TIP3    H142161   2.776   0.644   1.353 -1.1881  1.8851  0.1778
 6890TIP3    H242162   2.844   0.769   1.303  2.0728  0.4263  0.6883
 6891TIP3   OH242163   0.533   5.401  11.422 -0.4562 -0.2802 -0.2748
 6891TIP3    H142164   0.533   5.367  11.512 -0.2737  0.8483  0.1668
 6891TIP3    H242165   0.484   5.483  11.428  0.1525  0.1510 -1.0750
 6892TIP3   OH242166   3.504   0.914   4.955  0.5209 -0.0942  0.2819
 6892TIP3    H142167   3.510   0.854   5.030  1.7832  1.5030  1.5469
 6892TIP3    H242168   3.416   0.952   4.962  0.6521  0.0959  1.0292
 6893TIP3   OH242169   5.461   2.651   0.912  0.0288 -0.5284 -0.2034
 6893TIP3    H142170   5.505   2.577   0.954  0.2652  0.2995  1.0387
 6893TIP3    H242171   5.532   2.701   0.872  0.3428  0.9397  2.0050
 6894TIP3   OH242172   4.852   1.749   2.168  0.3788  0.9208  0.0438
 6894TIP3    H142173   4.770   1.710   2.199  0.5427 -1.1390 -1.8009
 6894TIP3    H242174   4.862   1.829   2.219 -1.6934  0.1594  1.8063
 6895TIP3   OH242175   2.511   6.586  16.531  0.0014 -0.0274 -0.0907
 6895TIP3    H142176   2.436   6.595  16.591 -0.4989  1.0324 -0.8368
 6895TIP3    H242177   2.566   6.662  16.550  1.1896 -1.0560  0.7972
 6896TIP3   OH242178   6.688   1.050   1.311  0.3470  0.7829 -0.2588
 6896TIP3    H142179   6.697   1.089   1.398  0.4326  0.5217 -0.1505
 6896TIP3    H242180   6.717   1.119   1.251 -0.6819  1.3276 -0.1467
 6897TIP3   OH242181   4.464   6.268  14.826  0.0683  0.2839 -0.5419
 6897TIP3    H142182   4.556   6.293  14.816 -0.0972  0.9233 -0.5480
 6897TIP3    H242183   4.462   6.173  14.814  0.9200  0.0657  0.8264
 6898TIP3   OH242184   2.663   1.192  11.630 -0.1379  0.7210 -0.3703
 6898TIP3    H142185   2.720   1.210  11.555  0.1484  0.1030 -0.3066
 6898TIP3    H242186   2.682   1.101  11.654 -1.5741  0.2860 -0.7245
 6899TIP3   OH242187   5.636   5.432  15.141 -0.3662  0.0666  0.3696
 6899TIP3    H142188   5.559   5.397  15.186 -0.8854 -0.7149 -1.0886
 6899TIP3    H242189   5.601   5.493  15.076  0.3393  0.6731  0.5340
 6900TIP3   OH242190   1.303   2.132   1.117 -0.9517  0.2730 -0.1065
 6900TIP3    H142191   1.339   2.217   1.141  0.8403 -0.6408  0.6505
 6900TIP3    H242192   1.296   2.135   1.021  1.4284  0.4476 -0.3296
 6901TIP3   OH242193   4.086   2.422   3.722 -0.6618  0.2333 -0.2695
 6901TIP3    H142194   4.157   2.406   3.784  2.1819 -2.2308 -3.7637
 6901TIP3    H242195   4.093   2.515   3.700  1.7238  0.0151 -0.6548
 6902TIP3   OH242196   2.212   6.190  16.577  0.1373  0.2391  0.0770
 6902TIP3    H142197   2.163   6.271  16.569  0.7848  0.6989  0.6939
 6902TIP3    H242198   2.301   6.212  16.551  0.0276 -0.6110 -1.1254
 6903TIP3   OH242199   6.739   0.747  12.868 -0.3140  0.2096  0.7747
 6903TIP3    H142200   6.725   0.776  12.958  0.8396  0.9738  0.7270
 6903TIP3    H242201   6.722   0.825  12.814  0.2319  0.0904  0.4268
 6904TIP3   OH242202   4.761   3.876  14.072 -0.7064  0.2351 -0.2225
 6904TIP3    H142203   4.670   3.870  14.101 -1.5235  0.0041 -2.6155
 6904TIP3    H242204   4.764   3.958  14.023  0.1151 -0.2407 -0.9846
 6905TIP3   OH242205   6.358   6.230   4.783  0.3774 -0.1634  0.5887
 6905TIP3    H142206   6.321   6.153   4.740 -1.0828 -0.8248  2.8912
 6905TIP3    H242207   6.302   6.302   4.756 -0.0190 -0.4154  0.7395
 6906TIP3   OH242208   3.747   6.681   0.970 -0.3447  0.0219  0.1823
 6906TIP3    H142209   3.671   6.650   1.019  1.0162  1.7844  3.7695
 6906TIP3    H242210   3.738   6.777   0.971  1.8024  0.2553  0.4987
 6907TIP3   OH242211   0.043   1.599   5.743 -0.1006 -0.0913 -0.7138
 6907TIP3    H142212   0.106   1.632   5.807  0.3333 -0.8987 -0.7094
 6907TIP3    H242213  -0.020   1.670   5.733 -1.3119 -0.6386  2.0856
 6908TIP3   OH242214   3.509   6.551  15.358 -0.1342  0.0223 -0.4675
 6908TIP3    H142215   3.472   6.638  15.372 -0.3021  0.3657 -2.7133
 6908TIP3    H242216   3.433   6.493  15.352 -0.0370 -0.2415  0.5459
 6909TIP3   OH242217   2.634   2.250  14.785 -0.5278  0.0162 -0.3123
 6909TIP3    H142218   2.642   2.192  14.710  0.6536 -0.7241  0.3520
 6909TIP3    H242219   2.543   2.281  14.782 -0.6664 -0.4583 -1.6898
 6910TIP3   OH242220   3.520   2.602  10.743  0.3149 -0.5323  0.2342
 6910TIP3    H142221   3.508   2.685  10.789 -1.6283 -1.4431  1.5442
 6910TIP3    H242222   3.514   2.624  10.650 -1.5622  0.6496  0.5837
 6911TIP3   OH242223   1.381   4.478  13.951  0.0952  0.2718 -0.6251
 6911TIP3    H142224   1.396   4.491  13.857 -0.0022  3.7198 -0.3176
 6911TIP3    H242225   1.468   4.463  13.987  0.1023 -1.3437 -1.2662
 6912TIP3   OH242226   5.474   3.856   1.171 -0.2784  0.3796  0.3398
 6912TIP3    H142227   5.397   3.813   1.208 -0.5300 -0.3667 -0.9943
 6912TIP3    H242228   5.488   3.814   1.087  1.2510  0.9075  0.2824
 6913TIP3   OH242229   0.101   1.688   3.460  0.3084  0.1212 -0.2663
 6913TIP3    H142230   0.061   1.704   3.545  1.9430  0.4018  0.4779
 6913TIP3    H242231   0.107   1.593   3.454  3.4927  0.0648  1.6214
 6914TIP3   OH242232   6.444   6.279   1.700 -0.0169 -0.0943 -0.1344
 6914TIP3    H142233   6.519   6.253   1.752 -1.0808 -0.7438  1.1164
 6914TIP3    H242234   6.375   6.297   1.764 -1.4172 -1.0812 -1.3062
 6915TIP3   OH242235   4.771   5.025   2.428  0.6257 -0.3956 -0.1455
 6915TIP3    H142236   4.841   5.058   2.372  1.2774 -2.9976 -1.0059
 6915TIP3    H242237   4.690   5.042   2.380  0.9795 -0.4713 -0.7736
 6916TIP3   OH242238   5.443   0.932  15.232 -0.1799 -0.4557 -0.0032
 6916TIP3    H142239   5.375   0.959  15.293 -0.8172 -0.2041 -0.8129
 6916TIP3    H242240   5.474   0.848  15.266 -0.2472 -0.1375  0.8762
 6917TIP3   OH242241   5.446   3.412  15.152 -0.0607  0.1182 -0.1430
 6917TIP3    H142242   5.472   3.383  15.065 -1.9685 -2.5159  0.0648
 6917TIP3    H242243   5.376   3.476  15.137 -0.5694 -0.5316 -0.5557
 6918TIP3   OH242244   1.608   2.504   2.719  0.2470 -0.4466 -0.1914
 6918TIP3    H142245   1.572   2.525   2.805  0.5958 -1.9651  0.3570
 6918TIP3    H242246   1.567   2.567   2.660  0.5420  1.0947  1.1716
 6919TIP3   OH242247   3.833   0.209  12.067 -0.1866 -0.6826  0.2109
 6919TIP3    H142248   3.795   0.159  12.139 -1.9116 -1.7142 -1.3084
 6919TIP3    H242249   3.765   0.272  12.043  0.7696  0.3501  0.1316
 6920TIP3   OH242250   0.334   3.636  12.458  0.5878  0.4506  0.4196
 6920TIP3    H142251   0.374   3.722  12.470  2.5823 -0.7205  3.3068
 6920TIP3    H242252   0.262   3.634  12.520  1.1797 -0.2742  1.1039
 6921TIP3   OH242253   3.276   4.191  11.646  0.1490 -0.3708 -0.0937
 6921TIP3    H142254   3.215   4.244  11.697 -0.5363 -1.3947  0.1861
 6921TIP3    H242255   3.249   4.204  11.555 -1.0610 -1.4615  0.0761
 6922TIP3   OH242256   2.963   4.371   2.840 -0.1893  0.3975  0.0308
 6922TIP3    H142257   3.056   4.386   2.822 -0.1907  0.4099  0.0337
 6922TIP3    H242258   2.929   4.459   2.859 -0.9490  0.9491 -3.3133
 6923TIP3   OH242259   0.616   3.961  13.018  0.0903 -0.0199  0.1151
 6923TIP3    H142260   0.641   3.934  13.107  2.0634 -0.2840 -0.4843
 6923TIP3    H242261   0.698   3.961  12.969 -0.3139  3.6526 -0.8441
 6924TIP3   OH242262   6.226   0.082  13.654 -0.1734 -0.0093  0.2464
 6924TIP3    H142263   6.248   0.066  13.745  2.0775  0.0517 -0.2073
 6924TIP3    H242264   6.310   0.076  13.608 -0.8017  2.4851 -1.4501
 6925TIP3   OH242265   2.611   1.043  15.597 -0.2117  0.2186  0.0139
 6925TIP3    H142266   2.570   1.123  15.628  1.6175  1.1959  0.0348
 6925TIP3    H242267   2.627   0.992  15.676 -1.6021 -0.3258 -0.0213
 6926TIP3   OH242268   0.628   4.239  14.453 -0.0260  0.3767  0.0546
 6926TIP3    H142269   0.634   4.228  14.548  0.4391 -2.4387 -0.2077
 6926TIP3    H242270   0.543   4.281  14.439  0.3968  1.9562  1.7157
 6927TIP3   OH242271   4.544   0.660  16.811 -0.2694  0.0995  0.2353
 6927TIP3    H142272   4.461   0.669  16.858 -1.0684  1.1570 -1.2941
 6927TIP3    H242273   4.603   0.618  16.874 -2.0050 -0.8440  1.2902
 6928TIP3   OH242274   5.040   6.101  11.950  0.4395  0.4585 -0.3377
 6928TIP3    H142275   5.009   6.067  12.034  1.3322 -1.9257 -0.9143
 6928TIP3    H242276   4.982   6.176  11.932 -1.6747 -0.7544  1.0093
 6929TIP3   OH242277   1.160   0.347  16.644 -0.6264 -0.2100  0.2526
 6929TIP3    H142278   1.195   0.345  16.733  1.2468  0.2494 -0.4211
 6929TIP3    H242279   1.066   0.338  16.655 -0.3295 -1.5094  2.1939
 6930TIP3   OH242280   1.300   3.416  13.631  0.1854 -0.0415 -0.4611
 6930TIP3    H142281   1.254   3.497  13.655 -0.3586 -0.5686  0.3264
 6930TIP3    H242282   1.283   3.405  13.538  2.2756  2.0222 -1.1856
 6931TIP3   OH242283   2.164   4.932   3.759 -0.7230 -0.1794  0.1443
 6931TIP3    H142284   2.240   4.945   3.701 -0.9442 -0.8075 -0.2959
 6931TIP3    H242285   2.200   4.889   3.836 -0.5453 -0.0019  0.1622
 6932TIP3   OH242286   5.491   1.755   0.676  0.3397  0.3114  0.3926
 6932TIP3    H142287   5.572   1.796   0.646  1.5913  0.3097  3.4197
 6932TIP3    H242288   5.515   1.665   0.697 -0.8344 -0.1316 -0.0498
 6933TIP3   OH242289   6.656   1.696  15.209  0.4531 -0.2515 -0.0060
 6933TIP3    H142290   6.714   1.621  15.197 -0.1359 -0.4060 -2.2887
 6933TIP3    H242291   6.569   1.665  15.186  0.0687  0.9138 -0.2212
 6934TIP3   OH242292   5.424   0.207  11.797  0.0487 -0.5643  0.2142
 6934TIP3    H142293   5.350   0.260  11.827 -0.5920 -0.6869 -1.1108
 6934TIP3    H242294   5.498   0.268  11.798 -0.4715  0.0897 -0.3351
 6935TIP3   OH242295   6.707   4.855  14.517  0.7462  0.0375  0.4664
 6935TIP3    H142296   6.616   4.884  14.512 -0.3448 -2.9731  0.9831
 6935TIP3    H242297   6.722   4.807  14.436  1.5474 -0.3913  0.8597
 6936TIP3   OH242298   1.500   4.796   2.024 -0.2645  0.4204 -0.6125
 6936TIP3    H142299   1.432   4.854   2.058  0.3257  1.6802 -1.4883
 6936TIP3    H242300   1.514   4.732   2.093 -0.5626  1.6584  0.6301
 6937TIP3   OH242301   4.132   3.282  15.426 -0.3110  0.0145  0.0514
 6937TIP3    H142302   4.188   3.359  15.432 -0.4950  0.0344  3.0630
 6937TIP3    H242303   4.123   3.266  15.332  1.2425  2.5245 -0.6209
 6938TIP3   OH242304   6.019   0.585   5.089 -0.1676 -0.0942 -0.3983
 6938TIP3    H142305   5.932   0.590   5.129 -0.2179 -1.5607 -0.2745
 6938TIP3    H242306   6.079   0.572   5.162  0.2276  1.3279 -0.4425
 6939TIP3   OH242307   4.610   2.057  12.066  0.1819 -0.2313 -0.0628
 6939TIP3    H142308   4.560   2.136  12.044 -1.3858 -0.8240  1.1289
 6939TIP3    H242309   4.643   2.026  11.982  0.5565  1.4922 -0.6025
 6940TIP3   OH242310   6.028   1.351   5.663  0.0015 -0.8172 -0.6280
 6940TIP3    H142311   5.965   1.334   5.593 -1.0390 -0.0635  0.0800
 6940TIP3    H242312   5.995   1.300   5.737  0.3817 -0.6296 -0.3274
 6941TIP3   OH242313   5.019   1.885  16.595  0.3232  0.0444 -0.4633
 6941TIP3    H142314   5.112   1.870  16.612  0.0102  0.0911  1.4181
 6941TIP3    H242315   5.017   1.961  16.537  1.4124  0.9715  0.6737
 6942TIP3   OH242316   6.332   4.220   3.877  0.4380  0.1870 -0.0065
 6942TIP3    H142317   6.376   4.300   3.905 -1.5928  1.3533  0.0718
 6942TIP3    H242318   6.304   4.239   3.787  0.5480 -0.7211 -0.2411
 6943TIP3   OH242319   0.534   4.389  16.372  0.5665  0.2158 -0.6815
 6943TIP3    H142320   0.496   4.476  16.363 -0.5313  0.0651  1.7362
 6943TIP3    H242321   0.601   4.399  16.439  2.9396 -0.1441 -2.8465
 6944TIP3   OH242322   4.358   6.595   3.122 -0.0986 -0.7360 -0.9568
 6944TIP3    H142323   4.319   6.682   3.113 -0.3915 -0.6920  0.5233
 6944TIP3    H242324   4.294   6.544   3.172  1.0658 -1.0921  0.2278
 6945TIP3   OH242325   2.103   1.491  12.205  0.7345  0.3842 -0.4531
 6945TIP3    H142326   2.050   1.507  12.282  0.5893 -0.5433 -0.3525
 6945TIP3    H242327   2.077   1.559  12.143 -0.0962  0.3313 -0.1656
 6946TIP3   OH242328   4.151   1.514  13.643 -0.3291  0.0028 -0.6253
 6946TIP3    H142329   4.069   1.473  13.672 -0.1250 -1.5970 -2.1193
 6946TIP3    H242330   4.218   1.474  13.699 -0.5511  1.6249  0.8874
 6947TIP3   OH242331   3.076   6.698  16.953  0.6387  0.3371  0.3812
 6947TIP3    H142332   3.091   6.654  16.869  0.7737 -1.5359  1.3520
 6947TIP3    H242333   3.104   6.789  16.937 -1.6684  0.7050 -2.3050
 6948TIP3   OH242334   0.575   4.761  12.100 -0.0003  0.2669  0.8082
 6948TIP3    H142335   0.545   4.831  12.157 -0.0667  1.0744 -0.1781
 6948TIP3    H242336   0.643   4.802  12.045 -1.8431  0.3527 -1.5809
 6949TIP3   OH242337   6.116   0.784  13.545  0.3131  0.2196 -0.0534
 6949TIP3    H142338   6.184   0.836  13.587 -0.6544 -0.2868  2.2958
 6949TIP3    H242339   6.034   0.818  13.580 -0.4071 -1.8883  0.4407
 6950TIP3   OH242340   4.362   3.307  16.006  0.2421 -0.2379  0.3115
 6950TIP3    H142341   4.301   3.234  16.017 -0.8099  0.6093  0.3210
 6950TIP3    H242342   4.444   3.276  16.042  0.0045 -1.6602 -0.3200
 6951TIP3   OH242343   2.014   4.230  16.631  0.8694  0.0252  0.0911
 6951TIP3    H142344   1.987   4.240  16.722 -0.3631 -0.5706 -0.1800
 6951TIP3    H242345   2.051   4.142  16.626  2.3843  0.6237  0.3314
 6952TIP3   OH242346   0.220   6.648   0.034 -0.6061  0.0108  0.2102
 6952TIP3    H142347   0.152   6.662   0.100 -0.2685  0.9433  0.3658
 6952TIP3    H242348   0.289   6.602   0.080  0.3566  2.1287  0.9845
 6953TIP3   OH242349   3.683   1.094   1.622 -0.5411 -0.0358  0.0527
 6953TIP3    H142350   3.613   1.050   1.671  0.0214  0.8101  1.7193
 6953TIP3    H242351   3.761   1.043   1.643 -0.1833  0.7153  0.6099
 6954TIP3   OH242352   4.285   2.105   3.558 -0.1483 -0.1706 -0.1932
 6954TIP3    H142353   4.310   2.181   3.611  1.3127 -0.9732  0.3264
 6954TIP3    H242354   4.301   2.131   3.468  0.9135 -0.0459  0.0231
 6955TIP3   OH242355   2.370   2.617   4.571 -0.3452  0.0803  0.2472
 6955TIP3    H142356   2.334   2.615   4.483 -0.4477  0.0633  0.2897
 6955TIP3    H242357   2.332   2.695   4.611  0.8995  0.9566 -0.2377
 6956TIP3   OH242358   1.698   4.896  15.668  0.5938 -0.3828  0.0118
 6956TIP3    H142359   1.650   4.820  15.633  0.3841 -0.7529  1.0760
 6956TIP3    H242360   1.696   4.884  15.763  1.0027  0.6972  0.1675
 6957TIP3   OH242361   4.151   6.809  15.130 -0.5802  0.4415  0.3127
 6957TIP3    H142362   4.118   6.892  15.096 -0.2532 -0.0095 -1.2175
 6957TIP3    H242363   4.196   6.831  15.211  0.9492  2.0321 -0.8997
 6958TIP3   OH242364   5.352   5.339  17.118 -0.4939  0.0829 -0.6337
 6958TIP3    H142365   5.360   5.313  17.209  2.7081 -0.8562 -1.0534
 6958TIP3    H242366   5.333   5.258  17.071 -1.8625  0.5144 -0.8643
 6959TIP3   OH242367   3.008   3.288  16.649  0.5273  0.0022 -0.0719
 6959TIP3    H142368   2.955   3.210  16.667  1.2112 -0.4443  0.0372
 6959TIP3    H242369   2.944   3.357  16.630 -0.1084 -0.3479  0.7689
 6960TIP3   OH242370   6.480   2.826   5.011 -0.2456  0.5150  0.0020
 6960TIP3    H142371   6.482   2.790   5.100 -0.3467  0.6367  0.0524
 6960TIP3    H242372   6.420   2.900   5.016 -1.4697 -0.4173 -0.5226
 6961TIP3   OH242373   3.998   3.636   0.975  0.6814 -0.0341 -0.0756
 6961TIP3    H142374   3.973   3.712   1.028  0.9281 -0.1243  0.1762
 6961TIP3    H242375   3.929   3.628   0.909 -0.6734 -1.0485  1.3728
 6962TIP3   OH242376   0.629   3.148   5.138  0.7832  0.4785 -0.0587
 6962TIP3    H142377   0.716   3.160   5.178  0.2831  1.9991  0.6579
 6962TIP3    H242378   0.569   3.194   5.197 -0.6018 -0.9909 -0.2733
 6963TIP3   OH242379   3.425   6.347  13.592  0.4742  0.1411 -0.1133
 6963TIP3    H142380   3.363   6.341  13.520  0.5739 -1.0147 -0.1318
 6963TIP3    H242381   3.480   6.422  13.571 -0.4417  0.7258 -0.4690
 6964TIP3   OH242382   0.952   0.545  13.885  0.2030  0.4361 -0.1749
 6964TIP3    H142383   0.946   0.473  13.823 -1.6615 -0.5050  1.0036
 6964TIP3    H242384   0.957   0.503  13.971  5.0905  1.5990  0.4411
 6965TIP3   OH242385   4.799   4.868   0.429  0.3319 -0.2882 -0.4895
 6965TIP3    H142386   4.888   4.898   0.450 -0.3279  0.0677  2.0868
 6965TIP3    H242387   4.808   4.774   0.419  1.1793 -0.1303 -1.3846
 6966TIP3   OH242388   0.401   4.654  16.361  0.2143 -0.0886  0.4612
 6966TIP3    H142389   0.353   4.611  16.431  0.2610 -0.5892  0.1864
 6966TIP3    H242390   0.341   4.650  16.286  0.4433 -0.1738  0.2836
 6967TIP3   OH242391   6.807   0.816  16.590 -0.1272  0.0611  0.1493
 6967TIP3    H142392   6.880   0.755  16.595 -0.0874  0.0070 -0.9734
 6967TIP3    H242393   6.844   0.895  16.551 -0.1537  0.8548  1.6698
 6968TIP3   OH242394   4.724   0.095  15.399  0.0411  0.5638 -0.2425
 6968TIP3    H142395   4.814   0.072  15.372 -0.1375  0.9256 -1.1884
 6968TIP3    H242396   4.720   0.190  15.389 -0.4939  0.5298 -0.3468
 6969TIP3   OH242397   2.287   5.263   0.409 -0.0080 -0.1610 -0.3529
 6969TIP3    H142398   2.319   5.179   0.441  0.0121 -0.4288 -1.0654
 6969TIP3    H242399   2.367   5.315   0.396 -0.0687  0.2938  0.9426
 6970TIP3   OH242400   6.434   0.416   1.485 -0.1449  0.1001 -0.1966
 6970TIP3    H142401   6.480   0.494   1.515 -0.5213 -0.2595  1.3929
 6970TIP3    H242402   6.481   0.389   1.406  0.9539  1.0254  0.1244
 6971TIP3   OH242403   3.058   6.618  11.585 -0.3127  0.0963  0.1346
 6971TIP3    H142404   3.129   6.662  11.631  1.7878 -1.1128 -1.6677
 6971TIP3    H242405   3.039   6.674  11.510  0.0724 -0.4513 -0.3869
 6972TIP3   OH242406   4.709   4.771  13.680 -0.3560 -0.1098 -0.2827
 6972TIP3    H142407   4.671   4.743  13.597 -0.0758 -0.0355 -0.4366
 6972TIP3    H242408   4.661   4.851  13.702  0.0422  0.2507 -0.7179
 6973TIP3   OH242409   5.479   0.078  10.767  0.3808 -0.2712  0.2134
 6973TIP3    H142410   5.483  -0.012  10.735  0.2906 -0.6452  1.2261
 6973TIP3    H242411   5.391   0.108  10.743  0.2096 -0.6427  0.3722
 6974TIP3   OH242412   2.343   3.729  13.171 -0.1392 -0.1407  0.0939
 6974TIP3    H142413   2.339   3.647  13.121  1.2893 -0.3913  0.3411
 6974TIP3    H242414   2.252   3.755  13.181 -0.5708  1.0680 -4.5051
 6975TIP3   OH242415   6.628   5.753  16.565 -0.1111 -0.5002  0.2311
 6975TIP3    H142416   6.682   5.704  16.504 -0.8543 -0.5220 -0.4273
 6975TIP3    H242417   6.661   5.842  16.562 -0.0004 -0.5509 -0.0291
 6976TIP3   OH242418   3.804   6.103   5.440 -0.4504  0.2908 -0.6285
 6976TIP3    H142419   3.717   6.120   5.476  0.0587 -2.3736  2.2112
 6976TIP3    H242420   3.845   6.189   5.435 -2.5030  1.3668 -0.0378
 6977TIP3   OH242421   6.344   5.993   1.330  0.2958  0.6789  0.5844
 6977TIP3    H142422   6.333   6.057   1.401  0.9705  2.1839 -0.6173
 6977TIP3    H242423   6.281   6.019   1.263  1.6122  1.0532 -0.5633
 6978TIP3   OH242424   1.092   3.291  11.648  0.5188 -0.2139 -0.9228
 6978TIP3    H142425   1.099   3.268  11.555  1.1731  0.3753 -1.0309
 6978TIP3    H242426   1.175   3.263  11.686  1.8384  2.8128 -1.2867
 6979TIP3   OH242427   3.913   4.005   4.136  0.2112  0.2059  0.0210
 6979TIP3    H142428   3.931   4.087   4.182 -2.3049  0.9874 -0.2377
 6979TIP3    H242429   3.820   4.010   4.113  0.7212 -1.3108 -2.8375
 6980TIP3   OH242430   3.829   5.677  12.061 -0.0517 -0.1511 -0.2256
 6980TIP3    H142431   3.846   5.611  12.128 -1.4054 -0.4246 -0.1196
 6980TIP3    H242432   3.765   5.736  12.101  0.5717  0.8086 -0.5911
 6981TIP3   OH242433   0.047   3.587   0.036 -0.1570 -0.1316  0.3034
 6981TIP3    H142434   0.067   3.679   0.054  2.1367 -0.6261  0.6862
 6981TIP3    H242435   0.114   3.538   0.084  0.4095 -1.8897 -2.0718
 6982TIP3   OH242436   0.734   2.718  13.971 -0.3692  0.1460 -0.0150
 6982TIP3    H142437   0.650   2.688  14.006 -0.4466  1.8151  1.3266
 6982TIP3    H242438   0.711   2.787  13.910  0.0104  0.1335 -0.1752
 6983TIP3   OH242439   6.800   0.193  16.596  0.1498  0.3151  0.1785
 6983TIP3    H142440   6.772   0.204  16.687  2.2614  0.7584  0.8298
 6983TIP3    H242441   6.894   0.176  16.602  0.5823  1.5797 -1.9953
 6984TIP3   OH242442   6.395   2.868   0.481 -0.3201 -0.3318 -0.5877
 6984TIP3    H142443   6.415   2.777   0.501  0.1943 -0.0156  0.4184
 6984TIP3    H242444   6.302   2.868   0.457 -0.3523 -1.0931 -0.4762
 6985TIP3   OH242445   0.319   4.851  17.239 -0.3191 -0.4632  0.2240
 6985TIP3    H142446   0.270   4.931  17.258  0.6636  0.4007 -0.7533
 6985TIP3    H242447   0.276   4.783  17.292 -1.8496  0.4796  0.2569
 6986TIP3   OH242448   6.384   5.542  12.810 -0.0836 -0.0243 -0.6072
 6986TIP3    H142449   6.424   5.611  12.757  0.3410 -1.4772 -2.2955
 6986TIP3    H242450   6.339   5.486  12.746 -0.1789 -1.4629  0.6610
 6987TIP3   OH242451   3.307   2.762   3.704 -0.0535  1.0057  0.4582
 6987TIP3    H142452   3.254   2.683   3.693  0.6109  0.7124 -0.8071
 6987TIP3    H242453   3.321   2.768   3.798 -2.4204  1.1769  0.8622
 6988TIP3   OH242454   3.367   0.563   2.766  0.2891 -0.0946 -0.0933
 6988TIP3    H142455   3.447   0.615   2.770  0.5217 -0.4304 -0.3036
 6988TIP3    H242456   3.305   0.610   2.822  0.4217  0.5274 -0.4645
 6989TIP3   OH242457   4.341   6.120  13.213  0.1747 -0.6484  0.2241
 6989TIP3    H142458   4.283   6.095  13.285 -0.7874  0.0945 -0.2545
 6989TIP3    H242459   4.309   6.070  13.138 -0.5795  0.5523 -0.2969
 6990TIP3   OH242460   4.378   6.670   3.486  0.5976 -0.2936  0.5645
 6990TIP3    H142461   4.304   6.621   3.523 -0.4785  1.9973  1.6311
 6990TIP3    H242462   4.444   6.671   3.556  0.7280 -0.4148  0.4452
 6991TIP3   OH242463   6.032   1.338  13.245  0.0750 -0.2405 -0.4346
 6991TIP3    H142464   6.012   1.248  13.271 -0.1759  0.0727  0.4872
 6991TIP3    H242465   6.001   1.344  13.155 -0.6163 -0.8484 -0.2459
 6992TIP3   OH242466   1.271   0.447  16.105 -0.5810 -0.3912 -0.2335
 6992TIP3    H142467   1.241   0.506  16.037 -1.1070 -0.8760 -0.4296
 6992TIP3    H242468   1.192   0.409  16.142 -0.4367  1.1971  1.9167
 6993TIP3   OH242469   0.132   3.494  15.377  0.5657 -0.1269 -0.5113
 6993TIP3    H142470   0.223   3.501  15.405  0.3578  0.7893 -0.0187
 6993TIP3    H242471   0.104   3.585  15.366 -0.4671 -0.3763 -0.0460
 6994TIP3   OH242472   1.738   1.561  15.768  0.2540  0.4637  0.5743
 6994TIP3    H142473   1.679   1.486  15.782 -1.3633  1.7374  0.9288
 6994TIP3    H242474   1.776   1.576  15.855  1.5156 -0.6489  0.2457
 6995TIP3   OH242475   2.499   1.254  16.722 -0.2032 -0.2561  0.3506
 6995TIP3    H142476   2.546   1.171  16.717  1.2060  0.4269  1.3514
 6995TIP3    H242477   2.423   1.236  16.776 -0.5799 -1.1732 -0.4714
 6996TIP3   OH242478   3.383   2.544  11.395 -0.2754  0.7361  0.0969
 6996TIP3    H142479   3.302   2.493  11.398  0.2238 -0.0532  1.1058
 6996TIP3    H242480   3.429   2.521  11.476  0.3361  2.2185  0.2081
 6997TIP3   OH242481   1.718   2.135  13.246 -0.0895 -0.2873  0.4086
 6997TIP3    H142482   1.735   2.178  13.329 -1.3281  0.8298  0.1184
 6997TIP3    H242483   1.651   2.069  13.266  0.3904 -0.7508  0.4924
 6998TIP3   OH242484   4.341   5.022   0.877 -0.0158 -0.2192  0.2767
 6998TIP3    H142485   4.437   5.019   0.887 -0.0266  0.3782  0.6010
 6998TIP3    H242486   4.312   5.087   0.941 -0.2693  2.4240 -2.3197
 6999TIP3   OH242487   4.488   1.957   2.142  0.4563  0.0989  0.1975
 6999TIP3    H142488   4.509   1.971   2.234  0.5444  1.8228 -0.0525
 6999TIP3    H242489   4.394   1.937   2.141  0.3445  0.6084  0.6171
 7000TIP3   OH242490   1.955   5.609   5.803 -0.4730  0.3723  0.6276
 7000TIP3    H142491   2.033   5.567   5.840 -1.1433 -0.1616  1.4827
 7000TIP3    H242492   1.974   5.616   5.709  1.1769  1.5383  1.0064
 7001TIP3   OH242493   0.468   4.690  16.800 -0.0039 -0.2958 -0.2447
 7001TIP3    H142494   0.415   4.767  16.778 -1.5903 -0.7301  1.7360
 7001TIP3    H242495   0.548   4.701  16.748 -0.6018  2.1312 -0.8154
 7002TIP3   OH242496   2.872   0.270   5.533 -0.1090 -0.3626  0.2170
 7002TIP3    H142497   2.951   0.244   5.580 -0.0838  0.6351  0.7533
 7002TIP3    H242498   2.887   0.242   5.443 -0.1181 -2.2120  0.7547
 7003TIP3   OH242499   2.942   6.222  12.421 -0.4608 -0.2457  0.5810
 7003TIP3    H142500   3.031   6.254  12.405 -0.2513 -1.0563  0.0802
 7003TIP3    H242501   2.886   6.279  12.368  0.0587 -1.7154 -1.6875
 7004TIP3   OH242502   1.436   3.524   0.264 -0.4667 -0.1944 -0.4279
 7004TIP3    H142503   1.516   3.538   0.213 -0.7977  1.3263 -0.5847
 7004TIP3    H242504   1.398   3.444   0.229 -0.4567  0.5713 -2.2997
 7005TIP3   OH242505   3.649   3.883  15.422  0.0617  0.2002  0.2596
 7005TIP3    H142506   3.631   3.972  15.393 -0.5894  0.3581  1.0960
 7005TIP3    H242507   3.691   3.841  15.348  1.8366  1.6641  0.3752
 7006TIP3   OH242508   0.909   2.639   4.834 -0.6421  0.4015 -0.1577
 7006TIP3    H142509   0.996   2.625   4.871 -0.3269 -1.2078 -1.4016
 7006TIP3    H242510   0.916   2.721   4.784 -0.6576  1.7614  1.9471
 7007TIP3   OH242511   5.570   0.043  14.959  0.3605 -0.0613 -0.2187
 7007TIP3    H142512   5.559   0.018  14.867 -1.2463  0.7523 -0.2896
 7007TIP3    H242513   5.536   0.132  14.963  2.1267  0.6076  0.8236
 7008TIP3   OH242514   3.553   4.433   1.565 -0.3744 -0.1470  0.3075
 7008TIP3    H142515   3.466   4.393   1.565 -0.3277 -0.3163 -1.1267
 7008TIP3    H242516   3.570   4.451   1.472  0.5490  1.1396  0.7050
 7009TIP3   OH242517   2.447   2.736  11.081  0.1051  0.4832 -0.2373
 7009TIP3    H142518   2.401   2.806  11.034  0.3438  0.4750 -0.4890
 7009TIP3    H242519   2.408   2.735  11.168 -0.0824  0.7528 -0.3185
 7010TIP3   OH242520   5.264   6.690  13.122 -0.5730  0.8872 -0.0257
 7010TIP3    H142521   5.274   6.734  13.206  1.6807  1.5863 -0.5867
 7010TIP3    H242522   5.277   6.760  13.057  2.4398 -0.3551 -0.9480
 7011TIP3   OH242523   4.542   5.057   2.259  0.6109  0.0967 -0.3019
 7011TIP3    H142524   4.492   5.138   2.252 -0.7927 -0.7913 -1.1811
 7011TIP3    H242525   4.530   5.014   2.174  3.1784 -0.0258 -0.6916
 7012TIP3   OH242526   5.970   0.618   0.132 -0.0817  0.1078  0.0919
 7012TIP3    H142527   6.058   0.650   0.112 -0.8450  2.0970 -0.3267
 7012TIP3    H242528   5.930   0.603   0.046 -0.0866 -1.0736  0.2807
 7013TIP3   OH242529   2.912   2.746   0.040 -0.5035  0.6670  0.4058
 7013TIP3    H142530   2.968   2.732   0.116 -0.2639  2.2619  0.5470
 7013TIP3    H242531   2.970   2.779  -0.028 -1.0840  1.3827  0.2395
 7014TIP3   OH242532   2.073   6.325  13.136 -0.5453  0.0338  0.4640
 7014TIP3    H142533   2.137   6.306  13.067 -1.6241  0.8260 -0.7974
 7014TIP3    H242534   1.990   6.293  13.101 -1.3147  1.4855  0.8846
 7015TIP3   OH242535   6.687   4.915   3.004 -0.2064  0.5001  0.0276
 7015TIP3    H142536   6.648   4.881   2.924 -0.4304  0.4889  0.1424
 7015TIP3    H242537   6.651   4.860   3.074  1.2975 -0.6417 -0.0245
 7016TIP3   OH242538   1.670   1.323   4.637 -0.4276  0.2934  0.2895
 7016TIP3    H142539   1.705   1.261   4.573 -1.3787  0.7130 -0.6656
 7016TIP3    H242540   1.578   1.299   4.646 -0.5287  0.8479  0.7883
 7017TIP3   OH242541   6.623   3.061  12.118  0.2814  0.2081 -0.3046
 7017TIP3    H142542   6.553   3.117  12.084  0.3973  0.4992 -0.0589
 7017TIP3    H242543   6.666   3.028  12.039 -1.6730 -1.9731 -0.5610
 7018TIP3   OH242544   6.720   0.511   2.800  0.2372 -0.6322  0.2628
 7018TIP3    H142545   6.648   0.462   2.758  0.2909 -0.3262 -0.1873
 7018TIP3    H242546   6.789   0.512   2.735  0.2011  0.1355  0.2292
 7019TIP3   OH242547   2.455   5.806   3.044 -0.4457  0.0001 -0.1664
 7019TIP3    H142548   2.376   5.835   3.089 -0.4058  2.2378 -1.3883
 7019TIP3    H242549   2.527   5.833   3.102 -0.4944  0.2530 -0.2233
 7020TIP3   OH242550   6.773   4.340  16.874 -0.2066  0.6264 -0.2495
 7020TIP3    H142551   6.861   4.376  16.885 -0.3495  0.8675  0.1266
 7020TIP3    H242552   6.773   4.304  16.786  0.6492 -0.4677  0.1874
 7021TIP3   OH242553   1.748   0.198   2.437  0.0781  0.1510 -0.2605
 7021TIP3    H142554   1.655   0.220   2.424 -0.5426 -0.7426  2.2038
 7021TIP3    H242555   1.763   0.212   2.530  2.5742  0.6206 -0.6674
 7022TIP3   OH242556   3.002   5.150   5.497 -0.5288 -0.1834  0.2938
 7022TIP3    H142557   3.053   5.134   5.577 -0.2349 -1.1436 -0.0746
 7022TIP3    H242558   2.920   5.102   5.512 -0.9238  0.5257  0.4596
 7023TIP3   OH242559   4.675   4.804  14.719 -0.0828  0.2743 -0.1739
 7023TIP3    H142560   4.750   4.861  14.702  1.2467 -1.7506 -1.4789
 7023TIP3    H242561   4.598   4.859  14.702  1.1302  1.4154 -2.3237
 7024TIP3   OH242562   6.704   1.406  11.019  0.3331 -0.5019  0.1352
 7024TIP3    H142563   6.619   1.429  11.057  0.3101  0.2504 -0.3554
 7024TIP3    H242564   6.731   1.484  10.972  1.3082 -0.7316  0.2913
 7025TIP3   OH242565   6.605   5.017   3.915  0.6068 -0.2643 -0.1209
 7025TIP3    H142566   6.524   4.966   3.907  0.8710 -0.4559 -2.1087
 7025TIP3    H242567   6.575   5.108   3.917  0.3126 -0.3489 -0.4780
 7026TIP3   OH242568   0.615   1.754   3.376 -0.4395  0.5809  0.2994
 7026TIP3    H142569   0.672   1.807   3.431 -0.9621  2.1768 -0.6319
 7026TIP3    H242570   0.603   1.805   3.296 -0.5499 -1.1916 -0.8933
 7027TIP3   OH242571   2.395   3.747   4.311 -0.0384 -0.1393 -0.1078
 7027TIP3    H142572   2.409   3.756   4.217 -0.4436  0.3855 -0.1251
 7027TIP3    H242573   2.304   3.719   4.319  0.3876 -1.5435  0.0802
 7028TIP3   OH242574   2.640   6.813   1.796  0.0688  0.0478 -0.3923
 7028TIP3    H142575   2.637   6.865   1.876  2.4030  0.8434 -0.7505
 7028TIP3    H242576   2.731   6.786   1.788 -0.0411  0.1741 -2.8860
 7029TIP3   OH242577   4.745   4.369  16.825  0.1551 -0.0868 -0.4553
 7029TIP3    H142578   4.700   4.321  16.895 -0.0231 -0.7540 -1.0143
 7029TIP3    H242579   4.820   4.410  16.869 -1.7586  2.3042  0.8194
 7030TIP3   OH242580   1.457   6.564   4.505  0.9684 -0.1563  0.0352
 7030TIP3    H142581   1.414   6.647   4.526  2.2133  0.7287 -0.7949
 7030TIP3    H242582   1.436   6.507   4.579  0.8140  1.1635  1.0370
 7031TIP3   OH242583   0.458   1.554   2.825  0.1374  0.6651  0.3143
 7031TIP3    H142584   0.444   1.484   2.888 -1.3759  1.9640  1.5207
 7031TIP3    H242585   0.385   1.545   2.763 -0.1586  1.2470  0.5710
 7032TIP3   OH242586   5.418   2.885   0.610 -0.1718  0.6174 -0.4904
 7032TIP3    H142587   5.449   2.809   0.562 -2.6971 -0.8748  0.0658
 7032TIP3    H242588   5.481   2.896   0.681 -0.2190 -1.5368 -0.0692
 7033TIP3   OH242589   3.323   5.405   2.398 -0.0760 -0.1189 -0.0753
 7033TIP3    H142590   3.376   5.469   2.350 -1.2442  2.2012  1.5612
 7033TIP3    H242591   3.237   5.411   2.357 -0.7031  0.8338  1.3325
 7034TIP3   OH242592   0.962   2.233  14.361  0.2110 -0.1922 -0.0093
 7034TIP3    H142593   1.021   2.212  14.433 -0.1415 -2.3473 -0.2954
 7034TIP3    H242594   0.876   2.240  14.402  0.3216  0.8192  0.0824
 7035TIP3   OH242595   0.245   2.532  10.622 -0.5977  0.0643  0.1376
 7035TIP3    H142596   0.272   2.588  10.549  2.8583 -0.2386  0.9790
 7035TIP3    H242597   0.230   2.593  10.694  1.6574  0.1600  0.6262
 7036TIP3   OH242598   4.180   6.297   5.159 -0.7438  0.1482 -0.1925
 7036TIP3    H142599   4.263   6.301   5.206 -1.4622  0.3623  1.0987
 7036TIP3    H242600   4.190   6.223   5.098 -0.0721 -0.6516  0.8619
 7037TIP3   OH242601   4.413   5.044   3.356  0.8081 -0.0182 -0.0674
 7037TIP3    H142602   4.404   4.981   3.284 -1.5246 -0.9905  0.9802
 7037TIP3    H242603   4.421   4.990   3.435  3.9033  1.0214  0.4853
 7038TIP3   OH242604   5.209   2.489  14.285  0.0329  0.3375 -0.2971
 7038TIP3    H142605   5.247   2.401  14.288  1.2259  0.7634 -1.7281
 7038TIP3    H242606   5.228   2.526  14.371 -0.5313 -0.8084  0.3386
 7039TIP3   OH242607   0.473   1.519   3.387  0.3834 -0.0184 -0.4802
 7039TIP3    H142608   0.506   1.609   3.383 -2.0916  1.0674  1.4412
 7039TIP3    H242609   0.480   1.495   3.480 -1.6606 -0.7171 -0.4724
 7040TIP3   OH242610   1.619   4.121   4.989  0.2372  0.5681 -0.4581
 7040TIP3    H142611   1.694   4.144   4.934 -0.1737  0.8312 -0.9161
 7040TIP3    H242612   1.561   4.072   4.931  0.0197  0.4254 -0.1240
 7041TIP3   OH242613   5.921   5.158  13.295 -0.4132  0.2837  0.2969
 7041TIP3    H142614   5.963   5.210  13.363 -0.3396 -0.2338  0.6558
 7041TIP3    H242615   5.954   5.069  13.309 -1.0440  0.0122  0.1176
 7042TIP3   OH242616   1.481   3.011   0.256  0.2380  0.3961  0.5183
 7042TIP3    H142617   1.552   2.949   0.271  0.1920  0.1833 -0.1028
 7042TIP3    H242618   1.523   3.088   0.217 -0.1059 -0.5332 -1.8313
 7043TIP3   OH242619   0.294   5.060   6.319  0.1679 -0.5458 -0.1916
 7043TIP3    H142620   0.332   5.030   6.401 -1.8027 -1.1278  0.5591
 7043TIP3    H242621   0.225   5.120   6.345  0.5157  0.4786 -1.5145
 7044TIP3   OH242622   3.504   1.026  11.391  0.1174 -0.0302 -0.0817
 7044TIP3    H142623   3.468   1.026  11.302 -0.4651 -1.0096  0.1434
 7044TIP3    H242624   3.528   1.117  11.407 -0.3336  0.2639 -1.0216
 7045TIP3   OH242625   3.232   5.052  16.557  0.3974 -0.3881 -0.0409
 7045TIP3    H142626   3.138   5.038  16.573 -0.1208  0.2195 -2.2251
 7045TIP3    H242627   3.249   5.008  16.474  2.0245 -0.3135  0.2233
 7046TIP3   OH242628   6.306   3.712  12.564  0.0880  0.7801 -0.1567
 7046TIP3    H142629   6.304   3.651  12.637 -0.1866  0.4578 -0.4303
 7046TIP3    H242630   6.396   3.744  12.560  0.5052 -0.4237 -0.6836
 7047TIP3   OH242631   0.326   6.431   3.626  0.7056  0.4103  0.1141
 7047TIP3    H142632   0.337   6.413   3.533 -0.5074  0.6513 -0.0838
 7047TIP3    H242633   0.296   6.349   3.664 -1.5954  1.0357 -0.2233
 7048TIP3   OH242634   2.223   0.082  11.851  0.1851 -0.2101 -0.1152
 7048TIP3    H142635   2.181   0.072  11.766  1.5119 -2.1884 -0.6194
 7048TIP3    H242636   2.155   0.116  11.909 -0.8184  0.9145 -1.8869
 7049TIP3   OH242637   0.566   5.700  11.818  0.2061  0.3969  0.2294
 7049TIP3    H142638   0.556   5.713  11.913 -1.6925  0.0130  0.1169
 7049TIP3    H242639   0.477   5.706  11.783  0.6834 -0.9550 -1.3512
 7050TIP3   OH242640   2.170   0.945  16.249  0.2878 -0.2554 -0.1166
 7050TIP3    H142641   2.129   0.976  16.169  0.7524  2.6540  0.6764
 7050TIP3    H242642   2.264   0.944  16.231  0.3856  0.2830  0.3253
 7051TIP3   OH242643   4.465   3.445  10.882  0.0860  0.4170  0.0573
 7051TIP3    H142644   4.483   3.354  10.861 -0.7331  0.0199  0.9674
 7051TIP3    H242645   4.457   3.489  10.798  4.1748  0.4672 -0.4591
 7052TIP3   OH242646   6.588   5.006  13.807 -0.4873  0.1624 -0.0138
 7052TIP3    H142647   6.507   5.050  13.783 -0.3481  0.1129 -0.5965
 7052TIP3    H242648   6.596   4.935  13.743  0.3919  0.6186 -0.4314
 7053TIP3   OH242649   3.930   1.882  10.847  0.1263  0.3945 -0.0602
 7053TIP3    H142650   3.843   1.843  10.852  0.4351 -1.2380 -3.9653
 7053TIP3    H242651   3.981   1.835  10.912 -1.1751 -0.8565  0.1099
 7054TIP3   OH242652   4.066   2.203  13.460  0.2433 -0.1255  0.0044
 7054TIP3    H142653   4.068   2.222  13.366  2.7688  0.1088  0.0420
 7054TIP3    H242654   4.022   2.118  13.466 -1.5865  0.6729 -1.1821
 7055TIP3   OH242655   0.944   6.421  13.435 -0.5434  0.3083 -0.3909
 7055TIP3    H142656   0.888   6.479  13.382 -1.5200  0.2131  0.5090
 7055TIP3    H242657   0.958   6.469  13.516 -0.3447 -0.2072 -0.1176
 7056TIP3   OH242658   6.562   5.834   3.049 -0.0901 -0.0259  0.1577
 7056TIP3    H142659   6.621   5.904   3.021  0.8481 -0.9926 -0.4122
 7056TIP3    H242660   6.476   5.875   3.056  0.4299  1.1586 -0.2104
 7057TIP3   OH242661   6.684   3.651   0.446  1.0914 -0.3623  0.3106
 7057TIP3    H142662   6.632   3.632   0.524  0.8563 -4.6655 -0.6344
 7057TIP3    H242663   6.644   3.729   0.409 -0.6485  0.0969  2.9037
 7058TIP3   OH242664   4.129   2.611  13.581 -0.0091  0.3114  0.1815
 7058TIP3    H142665   4.146   2.695  13.624 -1.5570  0.1287  1.2337
 7058TIP3    H242666   4.068   2.566  13.639  0.5131 -1.4227 -0.5308
 7059TIP3   OH242667   3.150   6.723   4.791  0.4512 -0.4901 -0.0087
 7059TIP3    H142668   3.138   6.667   4.868 -0.4762 -0.4203 -0.0880
 7059TIP3    H242669   3.223   6.683   4.744  0.6105 -0.9073  0.5706
 7060TIP3   OH242670   6.585   5.777   0.124 -0.2267  0.3375  0.1397
 7060TIP3    H142671   6.573   5.773   0.029  1.5231 -1.8456 -0.0699
 7060TIP3    H242672   6.670   5.820   0.135 -0.6551  1.0424  0.7573
 7061TIP3   OH242673   2.478   3.093   2.759  0.2030  0.2046 -0.0068
 7061TIP3    H142674   2.531   3.024   2.799  0.0764 -0.7835 -1.4547
 7061TIP3    H242675   2.434   3.135   2.832  1.1000 -0.5699  1.0070
 7062TIP3   OH242676   2.123   0.987   5.244  0.1655  0.0959 -0.4728
 7062TIP3    H142677   2.163   1.072   5.228  0.0495  0.6818  1.9461
 7062TIP3    H242678   2.189   0.923   5.218  0.4339  0.9050 -1.8698
 7063TIP3   OH242679   0.600   4.328   0.265  0.2835  0.1053 -0.5230
 7063TIP3    H142680   0.664   4.297   0.201  1.7564  0.1685  0.8570
 7063TIP3    H242681   0.653   4.366   0.336 -1.1591 -1.8437  1.7415
 7064TIP3   OH242682   1.521   6.825   5.235 -0.1139 -0.7537 -0.0490
 7064TIP3    H142683   1.432   6.796   5.256 -0.4567 -0.5214 -1.1302
 7064TIP3    H242684   1.509   6.902   5.179  0.7847  0.7986  1.7802
 7065TIP3   OH242685   1.055   3.849   1.981  0.2275  0.2613 -0.4170
 7065TIP3    H142686   1.088   3.792   2.051  1.2355  1.4195  0.0731
 7065TIP3    H242687   1.133   3.881   1.937 -0.3622  0.6567 -1.1858
 7066TIP3   OH242688   6.107   0.869   1.207  0.1434 -0.5017  0.2636
 7066TIP3    H142689   6.014   0.859   1.229  0.1518  1.7779  1.6449
 7066TIP3    H242690   6.151   0.803   1.261 -0.6204 -1.3800 -0.1533
 7067TIP3   OH242691   4.198   1.638   5.812  0.4224 -0.2363 -0.1932
 7067TIP3    H142692   4.276   1.640   5.757  0.1735  1.1535 -0.5427
 7067TIP3    H242693   4.126   1.655   5.752 -0.2044 -1.8357  0.0743
 7068TIP3   OH242694   0.735   6.427   1.364  0.3431 -0.4276 -0.3007
 7068TIP3    H142695   0.686   6.349   1.339 -2.3875  1.0973 -0.0547
 7068TIP3    H242696   0.768   6.463   1.282 -3.0327  1.0230 -1.1684
 7069TIP3   OH242697   6.311   5.931  16.496 -0.5720 -0.2590  0.4864
 7069TIP3    H142698   6.387   5.941  16.438  0.0262  1.7960  1.5064
 7069TIP3    H242699   6.261   5.860  16.458  0.2734  0.3750 -2.0136
 7070TIP3   OH242700   6.174   6.420   3.169 -0.1467 -0.1313 -0.0029
 7070TIP3    H142701   6.089   6.386   3.142 -1.2742  2.3602  0.1942
 7070TIP3    H242702   6.189   6.381   3.256 -2.9925  2.2422  1.7581
 7071TIP3   OH242703   1.668   5.998  13.557  0.4539 -0.0140  0.1142
 7071TIP3    H142704   1.624   6.067  13.606  0.8847  1.2854 -1.2433
 7071TIP3    H242705   1.608   5.978  13.485  1.3890  0.7508 -0.9217
 7072TIP3   OH242706   3.583   4.325  12.438 -0.7178  0.4604 -0.1890
 7072TIP3    H142707   3.495   4.331  12.473  0.3507  0.8619  2.6752
 7072TIP3    H242708   3.611   4.416  12.427 -0.4102  0.3386 -0.4559
 7073TIP3   OH242709   1.652   1.263  13.563 -0.0984 -0.1668  0.7021
 7073TIP3    H142710   1.619   1.328  13.502  2.4988  0.4277 -0.1900
 7073TIP3    H242711   1.603   1.183  13.543  0.1676  0.2032 -1.6768
 7074TIP3   OH242712   4.526   4.516   0.212  0.2295  0.6494  0.0507
 7074TIP3    H142713   4.482   4.534   0.129  1.3822 -1.2136 -1.0390
 7074TIP3    H242714   4.494   4.430   0.238  2.9553 -0.7079 -0.7007
 7075TIP3   OH242715   1.327   2.349  14.061 -0.5099  0.1857 -0.0833
 7075TIP3    H142716   1.320   2.274  14.001  1.0055 -0.0016 -0.0752
 7075TIP3    H242717   1.304   2.425  14.007 -0.2772 -0.1046 -0.6014
 7076TIP3   OH242718   4.921   4.553   4.213  0.3898 -0.3701 -0.2988
 7076TIP3    H142719   4.897   4.582   4.125  0.9939  0.0823 -0.3208
 7076TIP3    H242720   4.969   4.471   4.199  0.7993 -0.1157 -0.4299
 7077TIP3   OH242721   5.915   2.153  10.115 -0.2869  0.0542 -1.1194
 7077TIP3    H142722   5.973   2.111  10.178 -1.0252  1.2221  0.4162
 7077TIP3    H242723   5.964   2.154  10.033  1.1181 -0.5999 -0.3134
 7078TIP3   OH242724   4.046   5.227   5.251  0.5171  0.1580 -0.8652
 7078TIP3    H142725   4.057   5.223   5.346 -0.1484  1.0633 -0.7429
 7078TIP3    H242726   3.993   5.150   5.230 -1.6162  1.3457 -0.1342
 7079TIP3   OH242727   4.439   5.023  11.649 -0.2711  0.5891 -0.1829
 7079TIP3    H142728   4.347   5.048  11.644 -0.8227 -0.8512  1.5478
 7079TIP3    H242729   4.467   5.014  11.558 -2.4251 -0.9083 -0.7701
 7080TIP3   OH242730   5.776   5.228   2.336 -0.1132 -0.1147  0.6308
 7080TIP3    H142731   5.791   5.317   2.368 -0.9413  1.0083 -1.9223
 7080TIP3    H242732   5.683   5.212   2.353 -1.1246  1.3115 -2.8096
 7081TIP3   OH242733   3.660   6.517   6.393  0.3619  0.0870 -0.3972
 7081TIP3    H142734   3.659   6.526   6.297 -0.1036 -1.4154 -0.5620
 7081TIP3    H242735   3.672   6.424   6.408 -1.1127  0.0799  1.0000
 7082TIP3   OH242736   5.634   4.448   2.012  0.8556  0.5541  0.4598
 7082TIP3    H142737   5.627   4.355   1.990  0.1909  0.2015  2.0472
 7082TIP3    H242738   5.669   4.449   2.102 -0.2362  1.7968  0.8949
 7083TIP3   OH242739   2.768   4.874   6.156 -0.1598 -0.0954  0.7352
 7083TIP3    H142740   2.702   4.807   6.139  0.0825 -0.1119 -0.1776
 7083TIP3    H242741   2.851   4.827   6.155 -0.1664 -0.2232  2.7166
 7084TIP3   OH242742   1.424   5.469  15.305  0.2095  0.5095  0.1375
 7084TIP3    H142743   1.382   5.384  15.317 -1.1455  1.0530 -0.5145
 7084TIP3    H242744   1.435   5.477  15.210 -0.1962  1.2900  0.1495
 7085TIP3   OH242745   4.571   1.024   1.622  0.3051  0.5038 -0.3810
 7085TIP3    H142746   4.521   1.030   1.540  0.5069  0.1021 -0.5349
 7085TIP3    H242747   4.519   1.074   1.685 -1.7831 -2.1238  0.2044
 7086TIP3   OH242748   0.035   2.721  12.709 -0.3768  0.1985  0.4887
 7086TIP3    H142749   0.100   2.676  12.762 -0.6247  0.2146  0.8083
 7086TIP3    H242750   0.067   2.811  12.704  0.4428 -0.1368 -0.6666
 7087TIP3   OH242751   2.781   2.678   4.783 -0.6739 -0.5089  0.0074
 7087TIP3    H142752   2.741   2.759   4.752  0.1370 -0.0594  0.1085
 7087TIP3    H242753   2.799   2.628   4.704  0.2599  0.1009 -0.1852
 7088TIP3   OH242754   0.228   0.637   5.067 -0.5027  0.1345 -0.0485
 7088TIP3    H142755   0.251   0.603   5.153 -0.2729 -0.8660 -0.4881
 7088TIP3    H242756   0.144   0.597   5.047  0.1253 -0.8070 -0.8951
 7089TIP3   OH242757   5.287   2.180  13.267  0.1312  0.2686 -0.3086
 7089TIP3    H142758   5.382   2.167  13.260  0.4456  1.2522  1.4217
 7089TIP3    H242759   5.273   2.271  13.241 -0.6893 -0.4636 -2.6904
 7090TIP3   OH242760   1.264   5.487   5.320  0.0102 -0.1941 -0.4753
 7090TIP3    H142761   1.280   5.529   5.405  0.3320 -1.8523  0.3375
 7090TIP3    H242762   1.305   5.545   5.256 -0.4503  1.2185  0.4740
 7091TIP3   OH242763   0.470   5.795   6.033  0.3488  0.1892  0.1766
 7091TIP3    H142764   0.539   5.799   6.099 -0.1412 -2.2766  0.9318
 7091TIP3    H242765   0.516   5.781   5.950  0.8169 -2.9841  0.8637
 7092TIP3   OH242766   2.550   1.011   4.693 -0.2568  0.9194  0.6605
 7092TIP3    H142767   2.533   1.012   4.599  1.2348  2.2166  0.3714
 7092TIP3    H242768   2.467   0.984   4.732 -0.9144  0.4094 -1.0120
 7093TIP3   OH242769   0.953   6.040   6.175  0.0866 -0.0124  0.2114
 7093TIP3    H142770   0.907   5.959   6.157 -0.7342  0.9474 -2.4134
 7093TIP3    H242771   1.042   6.013   6.198  0.0275 -1.6462 -1.3139
 7094TIP3   OH242772   4.873   0.941   2.297 -0.7995 -0.5392 -0.2867
 7094TIP3    H142773   4.861   0.989   2.215 -0.2683  1.3379  0.6516
 7094TIP3    H242774   4.811   0.982   2.357 -0.2182 -0.9376  0.6094
 7095TIP3   OH242775   4.940   3.938  14.897  0.4562 -0.1853  0.0199
 7095TIP3    H142776   4.951   3.963  14.989 -1.4026  1.2571 -0.0822
 7095TIP3    H242777   4.968   4.015  14.848  0.1039 -0.4316 -0.5701
 7096TIP3   OH242778   3.569   4.292  12.119  0.0121 -0.0082  0.6267
 7096TIP3    H142779   3.590   4.211  12.072 -0.4435 -0.4038  1.0928
 7096TIP3    H242780   3.638   4.300  12.185 -0.0626 -0.1402  0.7229
 7097TIP3   OH242781   4.756   5.390  13.161 -0.2591  0.4048 -0.1046
 7097TIP3    H142782   4.773   5.466  13.104 -0.3437 -0.5168 -1.4066
 7097TIP3    H242783   4.840   5.346  13.168 -0.3214  0.3399  0.2405
 7098TIP3   OH242784   5.912   1.969   1.754 -0.2893 -0.3416  0.2976
 7098TIP3    H142785   5.853   1.900   1.721 -0.1209  0.7034 -2.4302
 7098TIP3    H242786   5.998   1.943   1.723 -0.0753  0.5850  0.1003
 7099TIP3   OH242787   3.477   3.129  17.235 -0.5164  0.3296 -0.1115
 7099TIP3    H142788   3.459   3.161  17.324 -0.1800 -0.8923  0.4074
 7099TIP3    H242789   3.456   3.204  17.179 -3.6800  0.2240  0.7031
 7100TIP3   OH242790   5.891   1.809   2.177 -0.1236  0.2293 -0.4828
 7100TIP3    H142791   5.865   1.901   2.187  0.2797  0.3032 -0.0757
 7100TIP3    H242792   5.930   1.787   2.261  0.2895 -0.1522 -0.7784
 7101TIP3   OH242793   6.508   3.260   5.966 -0.4203  0.2480 -0.7901
 7101TIP3    H142794   6.451   3.195   5.925 -1.6557  0.8798 -0.1332
 7101TIP3    H242795   6.507   3.237   6.059  3.1258 -1.7781 -1.0858
 7102TIP3   OH242796   3.174   4.594  16.242 -0.4875 -0.1496 -0.4710
 7102TIP3    H142797   3.222   4.613  16.162 -0.2932  0.8543 -0.1280
 7102TIP3    H242798   3.147   4.503  16.233 -1.8848  0.3921 -2.4130
 7103TIP3   OH242799   2.739   3.669   0.134  0.7216  0.2538  0.3287
 7103TIP3    H142800   2.812   3.659   0.073  0.4094  2.0975 -0.4178
 7103TIP3    H242801   2.692   3.747   0.103 -1.3272 -0.6383  1.0421
 7104TIP3   OH242802   6.361   4.690  12.433 -0.6085  0.4893  0.4513
 7104TIP3    H142803   6.397   4.602  12.417 -3.3183 -0.6996  0.4035
 7104TIP3    H242804   6.407   4.746  12.371 -0.6310 -1.3770 -1.3608
 7105TIP3   OH242805   0.655   6.158  14.434 -0.0213 -0.5952 -0.0115
 7105TIP3    H142806   0.653   6.253  14.446 -3.1545 -0.4290 -1.0376
 7105TIP3    H242807   0.695   6.146  14.347 -2.1186  0.0379 -1.1230
 7106TIP3   OH242808   4.418   1.757   1.047 -0.6198 -0.4101 -0.1511
 7106TIP3    H142809   4.402   1.850   1.068 -0.5139 -0.4560  0.1425
 7106TIP3    H242810   4.466   1.759   0.965  1.1396 -0.1055  0.8395
 7107TIP3   OH242811   6.325   5.553  11.309  0.2702  0.5647  0.5165
 7107TIP3    H142812   6.262   5.542  11.238  0.0374  2.2627  0.4358
 7107TIP3    H242813   6.409   5.529  11.269 -0.0175  0.3655  0.0136
 7108TIP3   OH242814   2.238   1.020  15.031  0.2654  0.1769 -0.9262
 7108TIP3    H142815   2.282   0.992  15.112 -2.9692 -3.0810 -0.0364
 7108TIP3    H242816   2.212   1.110  15.048 -1.4768 -0.7624  2.4121
 7109TIP3   OH242817   1.330   4.077  12.199 -0.3664 -0.0988  0.1092
 7109TIP3    H142818   1.352   3.993  12.238 -1.5081 -0.5547 -0.1813
 7109TIP3    H242819   1.413   4.125  12.197 -0.0296 -0.5497  1.8595
 7110TIP3   OH242820   2.315   5.422   2.815  0.1528  0.3558 -0.0184
 7110TIP3    H142821   2.306   5.377   2.731 -1.6560  0.5215  0.0541
 7110TIP3    H242822   2.237   5.478   2.821  0.5402  0.7827  1.5143
 7111TIP3   OH242823   5.656   6.675   2.459 -0.0061  0.4977  0.5695
 7111TIP3    H142824   5.715   6.735   2.506  2.1048 -0.3857 -0.8257
 7111TIP3    H242825   5.649   6.599   2.516 -0.0366  0.7216  0.8687
 7112TIP3   OH242826   5.267   2.396   4.813 -0.4548 -0.1242 -0.0265
 7112TIP3    H142827   5.360   2.418   4.812 -0.0958 -1.5673 -0.0402
 7112TIP3    H242828   5.224   2.472   4.773  0.9439 -0.4689 -2.3729
 7113TIP3   OH242829   2.405   4.983   3.577  0.0011 -0.6239 -0.1237
 7113TIP3    H142830   2.492   5.000   3.614 -0.0330 -1.8858  0.5806
 7113TIP3    H242831   2.366   5.070   3.567  0.6708 -0.1362  1.2148
 7114TIP3   OH242832   2.847   0.505   5.001 -0.1889 -0.0097  0.2627
 7114TIP3    H142833   2.867   0.412   4.987  0.2053  0.1512 -0.2906
 7114TIP3    H242834   2.933   0.545   5.019 -0.4846  0.0603  1.6608
 7115TIP3   OH242835   4.572   1.027   0.349  0.0098 -0.3576 -0.2729
 7115TIP3    H142836   4.588   0.942   0.391  0.8673  0.3420  0.8630
 7115TIP3    H242837   4.640   1.034   0.282  0.8675  0.0481  0.6155
 7116TIP3   OH242838   4.668   6.104   1.553  0.1479 -0.3338  0.4110
 7116TIP3    H142839   4.708   6.188   1.533  0.6307 -0.3538  1.2831
 7116TIP3    H242840   4.620   6.081   1.473 -0.1349  0.8454  0.2239
 7117TIP3   OH242841   6.063   6.621  15.874  0.3644 -0.4766 -0.2282
 7117TIP3    H142842   5.975   6.657  15.887 -0.4779 -1.9679 -1.4078
 7117TIP3    H242843   6.115   6.696  15.844 -0.3375  0.5502  0.9910
 7118TIP3   OH242844   3.833   0.883  10.677 -0.1750  0.1169  0.5507
 7118TIP3    H142845   3.880   0.822  10.734 -2.1671 -0.8302  1.2608
 7118TIP3    H242846   3.867   0.864  10.589  0.9329 -0.3331  1.0553
 7119TIP3   OH242847   1.475   4.773  11.455  0.2382  0.4820  0.2456
 7119TIP3    H142848   1.507   4.714  11.387  0.3566  1.0454 -0.1901
 7119TIP3    H242849   1.508   4.735  11.537  0.1472 -0.1617 -0.0146
 7120TIP3   OH242850   2.794   0.929   5.707  0.5460  0.1727  0.0580
 7120TIP3    H142851   2.829   0.997   5.650  2.7672  0.3109  1.4750
 7120TIP3    H242852   2.741   0.976   5.771 -0.7698  0.1605 -0.9843
 7121TIP3   OH242853   1.805   6.437  15.017  0.0520 -0.0628 -0.0403
 7121TIP3    H142854   1.761   6.516  14.988  0.5367 -0.1734 -1.1259
 7121TIP3    H242855   1.872   6.468  15.078 -0.7288  0.2067  0.7040
 7122TIP3   OH242856   0.386   4.162   0.189 -0.0128 -0.1102 -0.3881
 7122TIP3    H142857   0.395   4.067   0.180  0.2187 -0.1269 -0.0411
 7122TIP3    H242858   0.467   4.189   0.233 -0.1125  0.2359 -0.4157
 7123TIP3   OH242859   4.142   6.516  16.375 -0.1024  0.1030  0.6228
 7123TIP3    H142860   4.133   6.579  16.303  0.2022 -1.0809 -0.4757
 7123TIP3    H242861   4.207   6.556  16.433  0.7336  0.4054 -0.4996
 7124TIP3   OH242862   3.483   3.642  11.947 -0.2870 -0.2571  0.0066
 7124TIP3    H142863   3.465   3.641  11.853  0.2542  1.4581 -0.1517
 7124TIP3    H242864   3.421   3.579  11.983 -1.9532  0.5334 -1.2700
 7125TIP3   OH242865   6.692   3.223  12.336 -0.5853 -0.4043 -0.2071
 7125TIP3    H142866   6.669   3.162  12.266  0.5761 -0.7600 -0.2923
 7125TIP3    H242867   6.749   3.288  12.294 -0.0181 -0.5234  0.3597
 7126TIP3   OH242868   5.114   0.438  12.228  0.0504  0.2675 -0.0710
 7126TIP3    H142869   5.091   0.531  12.234  1.4582  0.6302  0.2110
 7126TIP3    H242870   5.050   0.401  12.167 -0.8605  1.3035  0.2271
 7127TIP3   OH242871   2.638   5.795  11.945  0.3444 -0.0535  0.0644
 7127TIP3    H142872   2.610   5.886  11.952  0.5357 -0.0408  0.7947
 7127TIP3    H242873   2.579   5.747  12.004  1.4022 -0.1203  1.1128
 7128TIP3   OH242874   3.180   6.437   2.707  0.2869  0.4026  0.0179
 7128TIP3    H142875   3.149   6.518   2.747 -0.9971  0.1529 -0.4149
 7128TIP3    H242876   3.264   6.419   2.750 -0.1474  1.1295  1.2195
 7129TIP3   OH242877   0.277   0.780   4.286 -0.1697 -0.1263 -0.1541
 7129TIP3    H142878   0.270   0.685   4.300 -0.3498  0.1110  1.4795
 7129TIP3    H242879   0.187   0.811   4.284 -0.0942  0.1945  0.8027
 7130TIP3   OH242880   5.527   1.201  15.025  0.3923  0.0029 -0.3376
 7130TIP3    H142881   5.494   1.117  14.990  0.9469 -1.5164  2.5180
 7130TIP3    H242882   5.616   1.207  14.992  0.6321 -0.9864  0.0798
 7131TIP3   OH242883   3.321   3.804   5.790  0.4703 -0.5893  0.1600
 7131TIP3    H142884   3.342   3.711   5.783  0.5482 -0.5283 -0.4880
 7131TIP3    H242885   3.266   3.810   5.868 -3.0493 -1.8329 -1.9721
 7132TIP3   OH242886   5.854   1.930   4.082 -0.1168 -0.0506 -0.4047
 7132TIP3    H142887   5.936   1.977   4.090  1.6385 -3.1250  2.1028
 7132TIP3    H242888   5.797   1.968   4.149  1.1313 -1.1050  1.3204
 7133TIP3   OH242889   6.614   1.607  16.341  0.4262  0.2627  0.4418
 7133TIP3    H142890   6.657   1.580  16.422 -0.4548 -0.6595  0.6129
 7133TIP3    H242891   6.606   1.527  16.289  0.0364  0.6474 -0.1064
 7134TIP3   OH242892   4.398   1.838   6.727  0.3013 -0.8297  0.5927
 7134TIP3    H142893   4.317   1.789   6.710  0.1757 -0.2537 -0.5623
 7134TIP3    H242894   4.464   1.795   6.672  0.5798 -0.7462  0.8611
 7135TIP3   OH242895   2.961   2.687  12.813 -0.0479  0.1857 -0.0375
 7135TIP3    H142896   2.896   2.656  12.750  0.3988  0.8446 -0.8609
 7135TIP3    H242897   2.917   2.683  12.898 -0.5373 -1.0870 -0.3400
 7136TIP3   OH242898   4.448   3.121  11.862  0.4988 -0.1665  0.3372
 7136TIP3    H142899   4.434   3.042  11.810  1.7293 -1.1140  1.3556
 7136TIP3    H242900   4.508   3.174  11.809 -1.3489  0.7562 -0.9454
 7137TIP3   OH242901   0.937   1.353  15.938 -0.1581 -0.3011 -0.1504
 7137TIP3    H142902   0.963   1.262  15.922 -0.0300 -0.5705  1.4443
 7137TIP3    H242903   1.007   1.404  15.898 -0.2011 -0.8901 -1.0182
 7138TIP3   OH242904   6.276   6.282  13.218 -0.3197 -0.2647 -0.1482
 7138TIP3    H142905   6.323   6.302  13.138  0.4117 -1.8404 -0.1494
 7138TIP3    H242906   6.215   6.212  13.194 -0.0326 -0.8146  0.6633
 7139TIP3   OH242907   6.720   4.175  12.285  0.2789  0.1046  0.4825
 7139TIP3    H142908   6.710   4.270  12.292  1.2639  0.2134  0.4486
 7139TIP3    H242909   6.674   4.152  12.203 -1.6183  0.2699  1.4337
 7140TIP3   OH242910   5.948   4.706  16.670  0.9577  0.1878  0.3836
 7140TIP3    H142911   5.996   4.772  16.620 -0.6381  1.6375  0.6880
 7140TIP3    H242912   5.935   4.633  16.609 -0.2457  1.5895 -1.1081
 7141TIP3   OH242913   5.896   2.286  14.141 -0.0818 -0.4851 -0.4239
 7141TIP3    H142914   5.811   2.325  14.164  0.2737 -0.6858  1.3750
 7141TIP3    H242915   5.876   2.230  14.066 -1.3604  0.1784 -0.6177
 7142TIP3   OH242916   5.628   4.127  11.635  0.1394  0.0410 -0.0231
 7142TIP3    H142917   5.580   4.149  11.555 -1.1390 -0.6310  0.5212
 7142TIP3    H242918   5.598   4.192  11.699 -0.0195 -0.3620  0.3151
 7143TIP3   OH242919   0.443   4.596  12.263 -0.2417  0.2314 -0.2781
 7143TIP3    H142920   0.502   4.532  12.304  0.1046  1.5273  1.3589
 7143TIP3    H242921   0.500   4.647  12.205  0.0996  0.8764  0.5948
 7144TIP3   OH242922   1.812   2.056   5.031  0.3577 -0.4215  0.1318
 7144TIP3    H142923   1.803   2.012   4.947  1.1612 -1.2002  0.4324
 7144TIP3    H242924   1.760   2.003   5.091  0.6571 -0.4945  0.3313
 7145TIP3   OH242925   0.454   2.363  16.994 -0.1203 -0.3057  0.0473
 7145TIP3    H142926   0.456   2.456  17.016  1.1424  0.0659 -1.4228
 7145TIP3    H242927   0.375   2.352  16.941 -1.1655 -0.4440  1.5850
 7146TIP3   OH242928   3.521   4.673  11.433  0.0049 -0.1858 -0.2340
 7146TIP3    H142929   3.586   4.628  11.488 -0.9279 -2.7712 -1.0907
 7146TIP3    H242930   3.441   4.621  11.444 -0.9553  0.8714 -1.8842
 7147TIP3   OH242931   2.664   3.590   2.514  0.5226 -1.0646  0.2842
 7147TIP3    H142932   2.720   3.630   2.447  0.1840  2.3069  1.8057
 7147TIP3    H242933   2.587   3.647   2.519 -1.0370 -3.0895  1.3073
 7148TIP3   OH242934   4.110   3.869  14.319  0.4848  0.2039  0.2180
 7148TIP3    H142935   4.050   3.935  14.355 -0.1378 -0.8390  1.1653
 7148TIP3    H242936   4.059   3.788  14.319  0.8068 -0.0721 -2.1155
 7149TIP3   OH242937   3.259   5.936  11.935  0.0338  0.1753 -0.6149
 7149TIP3    H142938   3.198   5.976  11.873 -2.3511 -0.0835  1.4037
 7149TIP3    H242939   3.305   6.010  11.975  0.1967  0.4610 -1.3200
 7150TIP3   OH242940   0.365   6.653   2.351 -0.2288 -0.5161  0.4710
 7150TIP3    H142941   0.326   6.738   2.331 -0.1033 -0.6603 -0.4166
 7150TIP3    H242942   0.316   6.622   2.427 -0.2992  0.3291  0.7890
 7151TIP3   OH242943   4.148   2.200   0.627 -0.0965 -0.4998 -0.2627
 7151TIP3    H142944   4.160   2.275   0.569  1.4923 -1.4592 -1.2823
 7151TIP3    H242945   4.057   2.173   0.614 -0.5252  0.9115 -0.2861
 7152TIP3   OH242946   5.929   4.744  15.200 -0.0749  0.1601  0.0490
 7152TIP3    H142947   6.008   4.794  15.181 -0.6509  0.8663 -0.5121
 7152TIP3    H242948   5.933   4.729  15.295  0.9772 -0.2545 -0.0460
 7153TIP3   OH242949   3.270   3.487   3.723  0.2962 -0.2851 -0.2766
 7153TIP3    H142950   3.243   3.500   3.633  0.1393  1.6098  0.0041
 7153TIP3    H242951   3.193   3.510   3.775  0.4370 -1.1901  0.3454
 7154TIP3   OH242952   5.954   4.179  10.524 -0.5629  0.2358 -0.2904
 7154TIP3    H142953   5.969   4.134  10.441 -2.9878  0.3006 -0.8317
 7154TIP3    H242954   6.023   4.145  10.582  0.3908 -0.7812 -1.9352
 7155TIP3   OH242955   4.917   6.030  16.977 -0.0613 -0.3331  0.4487
 7155TIP3    H142956   4.919   5.936  16.959 -0.3077 -0.1376 -0.6924
 7155TIP3    H242957   4.920   6.071  16.891  0.9331  0.7325  0.9561
 7156TIP3   OH242958   5.586   6.178  13.680  0.0489 -0.1007 -0.1488
 7156TIP3    H142959   5.592   6.262  13.725 -0.7740  0.0794 -0.3550
 7156TIP3    H242960   5.510   6.188  13.622 -0.2257 -1.0822  0.0299
 7157TIP3   OH242961   6.584   5.199   2.416 -0.4933  0.0274 -0.2527
 7157TIP3    H142962   6.666   5.181   2.369 -0.0435  1.0672  0.0998
 7157TIP3    H242963   6.557   5.113   2.449  0.0555 -0.4539 -1.0085
 7158TIP3   OH242964   0.646   1.009   0.353  0.3427 -0.5783  0.0520
 7158TIP3    H142965   0.575   1.004   0.289  0.9254 -2.2932 -0.5182
 7158TIP3    H242966   0.620   1.079   0.412 -0.7734  0.2709 -1.3884
 7159TIP3   OH242967   3.402   4.050  16.072 -0.2133 -0.1890 -0.0712
 7159TIP3    H142968   3.454   3.974  16.045  1.4973 -0.0324  2.5210
 7159TIP3    H242969   3.313   4.016  16.081  0.0209 -1.2456 -1.4236
 7160TIP3   OH242970   0.788   6.721   2.715 -0.0789  0.5959  0.0065
 7160TIP3    H142971   0.833   6.695   2.796  1.7100 -0.7475 -1.3371
 7160TIP3    H242972   0.712   6.664   2.711 -1.0365  1.6994  1.4459
 7161TIP3   OH242973   0.486   6.560   0.782 -0.2976 -0.3708  0.0633
 7161TIP3    H142974   0.580   6.563   0.801 -0.3786 -0.1646  0.4565
 7161TIP3    H242975   0.479   6.513   0.699  0.3409  1.8448 -1.3364
 7162TIP3   OH242976   0.279   4.549  12.729 -0.2490 -0.7006 -0.4959
 7162TIP3    H142977   0.251   4.496  12.654  0.7101 -1.9488  0.0044
 7162TIP3    H242978   0.301   4.634  12.690  0.4892 -1.4072 -1.6855
 7163TIP3   OH242979   6.693   5.092  16.161 -0.5689  0.3720  0.4216
 7163TIP3    H142980   6.689   5.144  16.081  3.2524  0.0681 -0.1411
 7163TIP3    H242981   6.739   5.012  16.137  0.3918  0.1052  2.7947
 7164TIP3   OH242982   1.145   5.424  11.365 -0.2511 -0.1173 -0.0874
 7164TIP3    H142983   1.120   5.496  11.423 -1.3947 -0.6604  0.1239
 7164TIP3    H242984   1.064   5.372  11.354  0.8403 -2.1720  0.9306
 7165TIP3   OH242985   5.455   1.007  14.252  0.1973 -0.3315  0.3642
 7165TIP3    H142986   5.385   0.989  14.189 -0.7248 -1.3975  1.6432
 7165TIP3    H242987   5.492   1.091  14.223  0.4948 -1.2518 -2.1802
 7166TIP3   OH242988   5.533   2.720   1.904  0.2860  0.0728  0.1269
 7166TIP3    H142989   5.518   2.638   1.950  1.4037 -0.2025  0.0221
 7166TIP3    H242990   5.445   2.750   1.880 -0.1850 -0.6903  0.8402
 7167TIP3   OH242991   3.814   6.599  11.904 -0.3032 -0.2180 -0.2026
 7167TIP3    H142992   3.851   6.673  11.856  0.8254  0.3621  1.4507
 7167TIP3    H242993   3.848   6.521  11.860  1.3228  0.2985  0.0800
 7168TIP3   OH242994   0.786   1.546   5.388  0.1284 -0.4010  0.2872
 7168TIP3    H142995   0.816   1.589   5.468  0.6142  0.1235 -0.1594
 7168TIP3    H242996   0.822   1.458   5.393 -0.0343 -0.4390  0.7550
 7169TIP3   OH242997   2.652   4.171   1.760 -0.4353 -0.6102  0.0779
 7169TIP3    H142998   2.606   4.139   1.683 -0.7018 -0.9807  0.3885
 7169TIP3    H242999   2.643   4.267   1.755  0.5949 -0.5507 -0.9897
 7170TIP3   OH243000   0.774   5.075  13.838  0.1563  0.4386 -0.3405
 7170TIP3    H143001   0.686   5.061  13.872  0.2875 -0.9638 -0.5521
 7170TIP3    H243002   0.819   4.992  13.852  1.9143  1.5645  1.0956
 7171TIP3   OH243003   6.599   6.230   1.494 -0.3570  0.0477 -0.0259
 7171TIP3    H143004   6.558   6.278   1.423  0.1033  0.3829 -0.0682
 7171TIP3    H243005   6.545   6.249   1.571 -1.6941 -1.4345 -0.5343
 7172TIP3   OH243006   2.410   0.610   0.912 -0.4636 -0.2644 -0.0256
 7172TIP3    H143007   2.448   0.698   0.918 -1.4683  0.1286  4.7719
 7172TIP3    H243008   2.480   0.552   0.941 -1.0150 -0.5009  0.8756
 7173TIP3   OH243009   4.477   6.723  13.303 -0.4689  0.0383  0.0785
 7173TIP3    H143010   4.497   6.661  13.373  1.1459 -0.5130 -0.8324
 7173TIP3    H243011   4.557   6.775  13.292 -0.7893  0.3150 -1.1494
 7174TIP3   OH243012   1.566   3.872  14.084  0.2363  0.2047  0.5413
 7174TIP3    H143013   1.498   3.829  14.136 -1.1372  2.7623  0.9692
 7174TIP3    H243014   1.542   3.853  13.993 -2.5386  2.9620  0.5523
 7175TIP3   OH243015   4.324   5.290   0.334  0.0896  0.6219 -0.6969
 7175TIP3    H143016   4.286   5.202   0.331  0.8920  0.2887 -1.7397
 7175TIP3    H243017   4.291   5.328   0.415  0.4145 -0.9645  0.2095
 7176TIP3   OH243018   0.982   1.534  14.369  0.1952 -0.1488 -0.5911
 7176TIP3    H143019   0.891   1.539  14.397  0.3022  0.7691 -0.3796
 7176TIP3    H243020   0.984   1.577  14.283  0.7665  1.7517  0.3081
 7177TIP3   OH243021   0.070   1.026   5.349 -0.0932 -0.6728  0.0573
 7177TIP3    H143022   0.084   1.061   5.437 -3.0479 -0.4792  0.5588
 7177TIP3    H243023   0.046   1.103   5.297 -0.8199 -1.1173 -0.2746
 7178TIP3   OH243024   2.628   5.513   5.775 -0.1028  0.0138  0.0646
 7178TIP3    H143025   2.633   5.592   5.721  1.5779 -0.6795 -0.8628
 7178TIP3    H243026   2.663   5.444   5.720 -0.6530 -1.2124  1.2072
 7179TIP3   OH243027   6.679   6.811   3.864 -0.2611  0.2917  0.0493
 7179TIP3    H143028   6.642   6.820   3.777 -1.2408  2.2130  0.6075
 7179TIP3    H243029   6.753   6.872   3.866 -0.9904  1.1820  0.9128
 7180TIP3   OH243030   4.586   0.319  16.663 -0.6481 -0.0428 -0.4866
 7180TIP3    H143031   4.614   0.251  16.725  0.7324  0.3789 -0.6182
 7180TIP3    H243032   4.554   0.390  16.719 -0.1799  0.0091 -0.2808
 7181TIP3   OH243033   3.097   2.661   0.547  0.2282  0.0217 -0.1834
 7181TIP3    H143034   3.030   2.708   0.596  0.0933  1.1755 -1.4141
 7181TIP3    H243035   3.065   2.571   0.542 -0.9968  0.4472 -0.3261
 7182TIP3   OH243036   6.433   0.120  15.245 -0.4134 -0.3974 -0.4085
 7182TIP3    H143037   6.480   0.044  15.210 -0.3096 -0.2135 -0.6760
 7182TIP3    H243038   6.482   0.195  15.212 -0.8931 -0.2016 -0.6754
 7183TIP3   OH243039   5.804   3.729  15.651  0.5837  0.1663 -1.0924
 7183TIP3    H143040   5.737   3.663  15.631  0.9265  0.0500 -1.9094
 7183TIP3    H243041   5.839   3.753  15.565  1.3578  0.4716 -0.6927
 7184TIP3   OH243042   0.028   5.465  14.317  0.0028 -0.1932  0.2982
 7184TIP3    H143043   0.005   5.538  14.374  2.3309  0.2666  0.7507
 7184TIP3    H243044  -0.044   5.403  14.327 -1.6778  1.6845  0.4663
 7185TIP3   OH243045   3.556   2.019   0.496  0.1560  0.3286 -0.2134
 7185TIP3    H143046   3.604   2.043   0.417  0.3096 -1.4785 -0.7177
 7185TIP3    H243047   3.621   1.979   0.553 -0.1094  0.9115  0.5112
 7186TIP3   OH243048   3.084   1.350   2.759 -0.0750 -0.7952 -0.1594
 7186TIP3    H143049   3.021   1.278   2.758 -0.0867 -0.8394 -2.6714
 7186TIP3    H243050   3.169   1.307   2.759  0.1595 -0.7496  4.1853
 7187TIP3   OH243051   1.548   2.889  10.305 -0.0384  0.2308  0.6238
 7187TIP3    H143052   1.626   2.848  10.266 -0.4375  0.0562 -0.0109
 7187TIP3    H243053   1.560   2.879  10.399  0.2799 -0.5953  0.5066
 7188TIP3   OH243054   6.528   1.406  11.855 -0.4253  0.1910 -0.1791
 7188TIP3    H143055   6.561   1.495  11.844  0.3356  0.0189  0.5628
 7188TIP3    H243056   6.439   1.418  11.889 -0.3626  0.6734 -0.1720
 7189TIP3   OH243057   1.961   4.125   1.328  0.5767 -0.2671  0.5942
 7189TIP3    H143058   1.981   4.179   1.404 -0.3060  2.0651 -0.7031
 7189TIP3    H243059   1.866   4.113   1.332  0.3727  0.7374 -0.6044
 7190TIP3   OH243060   6.666   1.863   0.004 -0.5395  0.1990  0.1094
 7190TIP3    H143061   6.752   1.857  -0.036 -0.0058 -1.9676  1.4084
 7190TIP3    H243062   6.673   1.936   0.066  1.0422 -1.1288  1.5904
 7191TIP3   OH243063   1.508   3.441   0.526  0.3034  0.6491  0.1102
 7191TIP3    H143064   1.519   3.518   0.581  1.0668 -0.5426  1.7253
 7191TIP3    H243065   1.446   3.468   0.458  1.3775  2.9914 -0.0426
 7192TIP3   OH243066   3.787   6.615   0.721  0.0490  0.0530 -0.0155
 7192TIP3    H143067   3.800   6.627   0.815  1.3374 -0.0122 -0.1692
 7192TIP3    H243068   3.710   6.559   0.714 -1.3493  1.7711  0.9317
 7193TIP3   OH243069   4.354   5.008   2.923 -0.1142  0.0861  0.3320
 7193TIP3    H143070   4.329   5.091   2.881  0.0596 -0.1226 -0.1979
 7193TIP3    H243071   4.294   4.999   2.996  1.5153  2.0063  2.0524
 7194TIP3   OH243072   2.219   4.232  12.815  0.6270 -0.3809  0.3144
 7194TIP3    H143073   2.202   4.140  12.833  0.3776 -0.1544  1.3123
 7194TIP3    H243074   2.132   4.271  12.805  0.7569 -0.4839 -1.4038
 7195TIP3   OH243075   6.449   6.463   4.193 -0.1714 -0.1035  0.3762
 7195TIP3    H143076   6.457   6.483   4.286  1.9456 -0.9285  0.4240
 7195TIP3    H243077   6.389   6.388   4.190 -1.3073  0.7555  0.9236
 7196TIP3   OH243078   5.376   4.015  11.654 -0.3299  0.4224  0.1608
 7196TIP3    H143079   5.394   3.971  11.571 -1.4457 -3.9150  1.9654
 7196TIP3    H243080   5.460   4.056  11.678  1.3639 -2.1063 -1.0315
 7197TIP3   OH243081   0.598   5.009  14.444 -0.1512  0.0828 -0.0409
 7197TIP3    H143082   0.534   5.027  14.513  0.4681  2.6768 -0.0186
 7197TIP3    H243083   0.609   4.914  14.444 -2.7418 -0.2776  1.0593
 7198TIP3   OH243084   5.300   0.452  14.246  0.7170  0.0634 -0.2951
 7198TIP3    H143085   5.316   0.424  14.156 -2.1434  0.8953 -1.1678
 7198TIP3    H243086   5.250   0.380  14.285 -0.2052  0.7395 -0.1993
 7199TIP3   OH243087   2.981   1.535  14.503 -0.6267 -0.5595 -0.0403
 7199TIP3    H143088   2.960   1.481  14.426 -1.7355 -0.1005 -0.0682
 7199TIP3    H243089   2.897   1.551  14.545 -0.2771  0.8471  0.1709
 7200TIP3   OH243090   5.724   3.045  16.644 -0.1822 -0.0551 -0.0788
 7200TIP3    H143091   5.769   2.986  16.583 -0.2851 -1.6560  1.3142
 7200TIP3    H243092   5.672   2.987  16.699 -0.2613  1.3551  1.4032
 7201TIP3   OH243093   0.066   2.903  11.060  0.7023  0.0224 -0.0296
 7201TIP3    H143094   0.023   2.823  11.028 -2.1871  0.5070  2.2389
 7201TIP3    H243095   0.119   2.932  10.985 -2.2794 -1.1525 -2.8607
 7202TIP3   OH243096   3.086   5.535  13.899  0.8768  0.7723  0.4556
 7202TIP3    H143097   3.170   5.527  13.944  0.8371 -0.6694  0.3214
 7202TIP3    H243098   3.023   5.553  13.969  0.9290 -0.7023  0.9124
 7203TIP3   OH243099   6.398   2.850   5.981 -0.0414  0.6433 -0.2708
 7203TIP3    H143100   6.397   2.815   6.070 -0.2432  0.6421 -0.2736
 7203TIP3    H243101   6.339   2.925   5.983  0.2957  0.9126 -0.2974
 7204TIP3   OH243102   0.287   1.731   2.649  0.5352  0.6052  0.3015
 7204TIP3    H143103   0.259   1.778   2.571 -0.6806  1.0830  1.0035
 7204TIP3    H243104   0.359   1.783   2.684  0.2210  1.0983  0.2222
 7205TIP3   OH243105   1.752   2.300  16.920  0.2429  0.0357 -0.1310
 7205TIP3    H143106   1.711   2.354  16.988 -1.4520  1.3531 -2.0865
 7205TIP3    H243107   1.844   2.327  16.920  0.4103 -0.3923  1.9477
 7206TIP3   OH243108   4.134   0.946  15.288 -0.5390 -0.6487 -0.5837
 7206TIP3    H143109   4.064   0.962  15.224 -1.4543  1.6949  0.8796
 7206TIP3    H243110   4.184   1.027  15.289  1.3677 -1.7685 -0.5160
 7207TIP3   OH243111   0.163   6.038  14.891  0.0104  0.4587 -0.3427
 7207TIP3    H143112   0.109   5.969  14.930  1.0423 -1.0117 -1.4238
 7207TIP3    H243113   0.249   6.025  14.931  0.8867 -0.5757 -2.4193
 7208TIP3   OH243114   3.501   1.202   1.988 -0.2513  0.3207  0.4256
 7208TIP3    H143115   3.590   1.197   1.952 -1.1051 -0.8797 -1.6913
 7208TIP3    H243116   3.445   1.212   1.911 -1.9632  1.2945  1.7339
 7209TIP3   OH243117   5.841   4.689   5.117  0.2417  0.1288 -0.0604
 7209TIP3    H143118   5.909   4.663   5.180 -0.2472 -0.6782  0.1463
 7209TIP3    H243119   5.865   4.644   5.036  0.0608 -0.0106 -0.0378
 7210TIP3   OH243120   2.109   5.041  15.345 -0.0901  0.1823  0.4308
 7210TIP3    H143121   2.161   5.017  15.422 -1.6798  3.3094  2.6996
 7210TIP3    H243122   2.018   5.025  15.372 -0.6750  1.3551 -0.7508
 7211TIP3   OH243123   3.531   0.324  10.950 -0.1217  0.2595  0.2245
 7211TIP3    H143124   3.524   0.276  10.867  2.8862  0.5557 -0.3422
 7211TIP3    H243125   3.533   0.416  10.924  0.5921  0.3632  0.6290
 7212TIP3   OH243126   5.498   6.104   1.745 -0.0126  0.0493 -0.1153
 7212TIP3    H143127   5.509   6.010   1.763  1.7328  0.4380  1.1599
 7212TIP3    H243128   5.513   6.113   1.651  0.7649 -0.8379 -0.0889
 7213TIP3   OH243129   5.061   3.899   4.676 -0.3048  0.3422  1.1129
 7213TIP3    H143130   5.100   3.982   4.702 -0.3486  1.1333 -1.1140
 7213TIP3    H243131   5.105   3.876   4.594 -0.3578 -1.8147  1.6250
 7214TIP3   OH243132   0.885   6.231  16.861 -0.2562  0.0206 -0.1553
 7214TIP3    H143133   0.804   6.203  16.819  0.3030  0.0784 -1.3175
 7214TIP3    H243134   0.884   6.327  16.855  0.2353 -0.0031 -0.8889
 7215TIP3   OH243135   3.262   0.865  11.077  0.0576 -0.1959 -0.7412
 7215TIP3    H143136   3.184   0.824  11.117  0.2898 -0.9590 -1.0488
 7215TIP3    H243137   3.332   0.801  11.092  0.4192  0.0731 -1.2852
 7216TIP3   OH243138   3.715   1.364   3.352  0.2098  0.1004 -0.1556
 7216TIP3    H143139   3.700   1.279   3.391 -0.9397 -0.6669 -2.1131
 7216TIP3    H243140   3.675   1.358   3.265  0.1709  2.6057 -0.3884
 7217TIP3   OH243141   2.663   4.519  16.633  0.3789 -0.0779  0.1554
 7217TIP3    H143142   2.637   4.541  16.722  3.0228 -0.7014  1.1515
 7217TIP3    H243143   2.693   4.429  16.638  2.3579  0.4699 -0.9218
 7218TIP3   OH243144   6.347   4.163   2.958  0.1851  0.2753  0.4040
 7218TIP3    H143145   6.309   4.085   2.917 -1.9601  0.7666  1.3584
 7218TIP3    H243146   6.440   4.143   2.965 -0.2152 -1.9570  0.0755
 7219TIP3   OH243147   0.630   0.414   3.177  0.1407  0.6306  0.0919
 7219TIP3    H143148   0.677   0.425   3.260  0.9574  0.0786 -0.2854
 7219TIP3    H243149   0.578   0.334   3.189  1.8902 -0.6949 -0.6281
 7220TIP3   OH243150   1.501   4.538   5.948  0.6136 -0.1018 -0.2088
 7220TIP3    H143151   1.429   4.580   5.901  1.4346  1.6199  0.0085
 7220TIP3    H243152   1.461   4.507   6.030 -0.4402 -1.6327 -1.2377
 7221TIP3   OH243153   1.320   1.536  14.051  0.1229 -0.2841 -0.1382
 7221TIP3    H143154   1.307   1.441  14.056 -0.5382 -0.2820 -1.3790
 7221TIP3    H243155   1.233   1.571  14.032  0.5845  0.4472 -0.9781
 7222TIP3   OH243156   3.603   1.711   3.922  0.0030  0.2627 -0.4189
 7222TIP3    H143157   3.593   1.674   3.835  0.7885  0.9494 -0.8113
 7222TIP3    H243158   3.636   1.799   3.907  0.0704  0.4190  0.5726
 7223TIP3   OH243159   2.968   3.620  13.408 -0.4438 -1.0381  0.4728
 7223TIP3    H143160   3.009   3.559  13.345  1.7260  0.1242  0.6581
 7223TIP3    H243161   2.893   3.655  13.361  0.7101 -0.7302 -1.2577
 7224TIP3   OH243162   3.726   0.242  15.022 -0.6372 -0.9399  0.4112
 7224TIP3    H143163   3.707   0.149  15.011 -1.5246 -0.7404  0.1788
 7224TIP3    H243164   3.702   0.262  15.112 -1.9111 -0.6069  0.0100
 7225TIP3   OH243165   5.795   6.602   0.271 -0.3795 -0.9247 -0.0374
 7225TIP3    H143166   5.779   6.555   0.189 -0.6631 -1.5183  0.3534
 7225TIP3    H243167   5.740   6.680   0.265  0.6618 -0.2396 -1.0208
 7226TIP3   OH243168   3.811   1.237   4.688  0.1703  0.3410 -0.1091
 7226TIP3    H143169   3.783   1.283   4.767 -1.2501  0.7526 -0.8287
 7226TIP3    H243170   3.788   1.295   4.616  0.9392 -0.2678 -0.8782
 7227TIP3   OH243171   0.202   6.617  16.057  0.1097  0.0482 -0.0004
 7227TIP3    H143172   0.138   6.602  15.987  1.7246  1.3340 -1.8717
 7227TIP3    H243173   0.169   6.567  16.131 -2.8064  0.2736 -1.0086
 7228TIP3   OH243174   5.420   2.179  10.927  0.3388 -0.1513 -0.0880
 7228TIP3    H143175   5.440   2.269  10.952  0.4149 -0.4578  1.0078
 7228TIP3    H243176   5.500   2.147  10.885 -0.5550  1.1179 -3.0553
 7229TIP3   OH243177   5.762   1.088   5.540  0.2185  0.3404 -0.5311
 7229TIP3    H143178   5.695   1.101   5.607  0.8648 -0.4520  0.3103
 7229TIP3    H243179   5.840   1.062   5.590  0.0157 -2.9505 -1.7077
 7230TIP3   OH243180   1.067   1.704  16.383 -0.0200  0.7314  0.5515
 7230TIP3    H143181   1.038   1.675  16.469  0.1166  1.7402  0.9589
 7230TIP3    H243182   1.074   1.624  16.331  0.6238  0.0145  1.6941
 7231TIP3   OH243183   5.128   5.703   3.611  0.0270  0.2063 -0.5781
 7231TIP3    H143184   5.142   5.746   3.695 -0.6190 -1.7123  0.5877
 7231TIP3    H243185   5.130   5.774   3.547 -2.6730  2.2746  1.3455
 7232TIP3   OH243186   3.696   1.064  14.601  0.0449  0.1801  0.2025
 7232TIP3    H143187   3.757   1.099  14.536 -0.3300  0.5086  0.0221
 7232TIP3    H243188   3.750   1.008  14.657  0.3722 -0.0714 -0.3664
 7233TIP3   OH243189   2.979   3.436   2.316  0.4473 -0.1399 -0.8939
 7233TIP3    H143190   3.067   3.403   2.337  0.5090  0.4396 -0.1989
 7233TIP3    H243191   2.936   3.446   2.401  0.0203  0.4296 -1.1710
 7234TIP3   OH243192   2.306   3.784   3.737  0.0971 -0.4272 -0.0208
 7234TIP3    H143193   2.375   3.825   3.789  0.0521  0.1126 -0.3792
 7234TIP3    H243194   2.341   3.699   3.713  0.2950 -0.5031  0.5174
 7235TIP3   OH243195   6.589   3.466   0.892  0.4634  0.6617 -0.3290
 7235TIP3    H143196   6.675   3.429   0.874  0.6417 -0.0347  1.7058
 7235TIP3    H243197   6.548   3.475   0.805  1.4723 -1.6914 -1.1297
 7236TIP3   OH243198   5.949   4.043   3.061  0.1140  0.2928  0.5749
 7236TIP3    H143199   5.894   4.120   3.046 -0.7221 -0.2610  0.7280
 7236TIP3    H243200   5.906   3.973   3.012  0.0296 -0.4094  1.6144
 7237TIP3   OH243201   6.720   0.630   3.055 -0.0505  0.0606  0.4757
 7237TIP3    H143202   6.751   0.704   3.003  0.0132  0.4367  1.0391
 7237TIP3    H243203   6.702   0.561   2.990 -1.8679  1.1575 -0.2544
 7238TIP3   OH243204   2.104   6.432  16.529 -0.3789 -0.3575  0.6730
 7238TIP3    H143205   2.146   6.517  16.520  0.9841 -0.9683  1.0465
 7238TIP3    H243206   2.010   6.451  16.521 -0.0501  1.0197 -0.3192
 7239TIP3   OH243207   5.872   3.587   4.998  0.4808  0.3458  0.4817
 7239TIP3    H143208   5.911   3.555   4.917 -1.2107 -0.4433 -0.0460
 7239TIP3    H243209   5.865   3.682   4.985 -0.6079  0.1312 -0.6930
 7240TIP3   OH243210   6.106   5.895   3.585 -0.6783 -0.0910 -0.1142
 7240TIP3    H143211   6.125   5.961   3.652  0.2682  1.9287 -2.2644
 7240TIP3    H243212   6.190   5.879   3.542 -0.9088 -2.6541  0.2077
 7241TIP3   OH243213   6.474   2.683   1.156 -0.0502  0.4110  0.5948
 7241TIP3    H143214   6.382   2.671   1.132  0.0285 -0.6902  0.8128
 7241TIP3    H243215   6.489   2.778   1.147 -0.8160  0.4225 -0.8034
 7242TIP3   OH243216   5.169   4.559   4.479 -0.7699 -0.1264  0.5311
 7242TIP3    H143217   5.155   4.509   4.399  0.1225 -0.4220  0.5480
 7242TIP3    H243218   5.098   4.532   4.537 -1.3337 -0.0282 -0.0950
 7243TIP3   OH243219   4.987   4.084  13.134  0.1881 -0.6389 -0.1797
 7243TIP3    H143220   4.977   4.120  13.222  1.1820 -0.4691 -0.1222
 7243TIP3    H243221   5.082   4.078  13.121  0.0688 -0.3167 -1.3753
 7244TIP3   OH243222   5.237   4.578  13.675 -0.5427 -0.3305 -0.1712
 7244TIP3    H143223   5.177   4.653  13.678 -0.2573  0.0638 -2.3784
 7244TIP3    H243224   5.180   4.502  13.688 -1.1117  0.1628  0.3180
 7245TIP3   OH243225   3.927   4.807  12.517 -0.2759  0.4862  0.7833
 7245TIP3    H143226   3.837   4.836  12.533 -0.6666 -0.9265  1.2973
 7245TIP3    H243227   3.938   4.731  12.573  0.5823 -0.5467 -0.7059
 7246TIP3   OH243228   0.976   5.528   0.785 -0.0194 -0.0176 -0.2306
 7246TIP3    H143229   0.950   5.620   0.773 -2.1409 -0.3718  1.1013
 7246TIP3    H243230   0.894   5.481   0.798  1.1083 -1.8498  0.7395
 7247TIP3   OH243231   3.815   3.761   2.965  0.4898  0.8908 -0.4693
 7247TIP3    H143232   3.888   3.785   3.022 -0.7787  2.4156  0.6121
 7247TIP3    H243233   3.856   3.714   2.892  2.5202  1.5849  0.1478
 7248TIP3   OH243234   1.178   4.025  11.977  0.5478 -0.3773  0.1579
 7248TIP3    H143235   1.141   3.939  11.997  0.6827 -0.5009 -0.1218
 7248TIP3    H243236   1.229   4.048  12.055  2.2052 -1.4723 -0.5574
 7249TIP3   OH243237   5.162   4.058   2.216 -0.1397  0.2900 -0.4280
 7249TIP3    H143238   5.156   3.997   2.142 -1.5482  0.1863 -0.2491
 7249TIP3    H243239   5.089   4.035   2.273  0.2535  1.1104  0.4464
 7250TIP3   OH243240   3.261   3.469   0.987 -0.0611 -0.1784  0.2341
 7250TIP3    H143241   3.218   3.385   0.975 -0.6253  0.0560  0.5695
 7250TIP3    H243242   3.323   3.475   0.915 -0.6775 -0.4724 -0.3309
 7251TIP3   OH243243   0.367   1.552   3.865  0.5074 -0.0277  0.0991
 7251TIP3    H143244   0.330   1.637   3.888  0.6418  0.2695 -0.7449
 7251TIP3    H243245   0.458   1.572   3.842  0.8868 -0.5840  1.0548
 7252TIP3   OH243246   4.080   5.091  17.167  0.4537  0.1154  0.1259
 7252TIP3    H143247   4.066   5.181  17.136  2.3141  0.4851  0.2018
 7252TIP3    H243248   4.021   5.081  17.242 -0.4530  0.9371 -0.4520
 7253TIP3   OH243249   4.694   5.212   1.499  0.6519  0.5563 -0.2625
 7253TIP3    H143250   4.634   5.153   1.544 -0.6670  1.0225 -1.3352
 7253TIP3    H243251   4.780   5.174   1.514  0.1424 -0.0100  1.5222
 7254TIP3   OH243252   4.011   1.835  12.253 -0.0553 -1.0244  0.2733
 7254TIP3    H143253   3.998   1.752  12.299  2.6960 -1.2580  0.8234
 7254TIP3    H243254   4.086   1.819  12.195  0.9721  1.1920  0.8600
 7255TIP3   OH243255   6.440   0.079  11.248 -0.2906 -0.1290 -0.1260
 7255TIP3    H143256   6.379   0.130  11.194  0.2011  0.0021 -0.5640
 7255TIP3    H243257   6.388   0.006  11.280 -0.4300 -0.5815 -1.3215
 7256TIP3   OH243258   3.381   0.780   5.488  0.1265  0.3776  0.0758
 7256TIP3    H143259   3.370   0.781   5.583 -0.2572 -2.8279  0.1803
 7256TIP3    H243260   3.296   0.809   5.455 -0.1554  0.3150  0.7197
 7257TIP3   OH243261   6.638   5.157  12.252 -0.4212 -0.0780  0.0294
 7257TIP3    H143262   6.687   5.161  12.170  1.3969  1.3565  1.1061
 7257TIP3    H243263   6.546   5.166  12.225  0.2181  2.0463 -1.7495
 7258TIP3   OH243264   6.082   3.814  12.072  0.4154  0.5175  0.6809
 7258TIP3    H143265   6.094   3.884  12.008  0.8624  0.3943  0.6276
 7258TIP3    H243266   6.021   3.851  12.136 -0.4544  0.4494 -0.0888
 7259TIP3   OH243267   3.178   1.098  13.930 -0.0638  0.1701 -1.3024
 7259TIP3    H143268   3.124   1.071  14.004 -0.4247 -0.3992 -1.7670
 7259TIP3    H243269   3.259   1.129  13.970 -0.8945  1.4811 -0.5640
 7260TIP3   OH243270   4.736   4.642  12.829  0.2088  0.0395 -0.1352
 7260TIP3    H143271   4.679   4.608  12.899 -0.1132 -1.1276 -0.9387
 7260TIP3    H243272   4.677   4.694  12.774 -0.0394 -0.8833 -0.7715
 7261TIP3   OH243273   4.176   5.539  15.710 -0.2048  0.6357 -0.0262
 7261TIP3    H143274   4.214   5.451  15.713 -1.8139 -0.1086 -0.3010
 7261TIP3    H243275   4.091   5.526  15.668 -0.0933  2.4764 -0.8732
 7262TIP3   OH243276   1.219   6.082  11.594  0.2700  0.3460 -0.2603
 7262TIP3    H143277   1.228   6.010  11.532  0.5241 -1.2230  1.5184
 7262TIP3    H243278   1.298   6.135  11.580  0.4841 -0.1480 -1.0272
 7263TIP3   OH243279   4.985   2.762  16.708 -0.5782 -0.0508 -0.2507
 7263TIP3    H143280   5.006   2.855  16.715 -1.2917  0.4007 -2.9204
 7263TIP3    H243281   5.069   2.720  16.692 -0.5451  0.5761 -1.9591
 7264TIP3   OH243282   5.396   5.468   3.181  0.0299  0.0199 -0.0831
 7264TIP3    H143283   5.450   5.496   3.254  0.4789 -2.7478  0.7648
 7264TIP3    H243284   5.455   5.469   3.105  0.1863  0.6938  0.0411
 7265TIP3   OH243285   3.092   4.146  12.375 -0.1908 -0.2460 -0.6666
 7265TIP3    H143286   3.031   4.129  12.304 -1.1119  1.7673 -0.4377
 7265TIP3    H243287   3.169   4.184  12.333 -0.5474  0.5067 -0.6608
 7266TIP3   OH243288   0.342   4.110   0.786 -0.1855 -0.0092 -0.5347
 7266TIP3    H143289   0.264   4.111   0.840  0.3158  0.3405  0.1997
 7266TIP3    H243290   0.320   4.167   0.712 -0.1114  1.3384  0.4350
 7267TIP3   OH243291   6.218   1.176   6.638 -0.3093 -0.2703 -0.0844
 7267TIP3    H143292   6.254   1.104   6.691  0.7108  0.5978  0.4484
 7267TIP3    H243293   6.295   1.213   6.594 -0.9497 -0.0540 -1.0574
 7268TIP3   OH243294   6.006   2.946  14.581 -0.0697  0.3143  0.1928
 7268TIP3    H143295   6.007   2.855  14.611  1.0519 -0.1535 -1.2013
 7268TIP3    H243296   5.918   2.977  14.603 -0.8484 -1.4419 -0.2864
 7269TIP3   OH243297   1.876   2.623   0.489 -0.1595 -0.0801 -0.0735
 7269TIP3    H143298   1.788   2.593   0.465  0.1450 -0.2218 -1.0779
 7269TIP3    H243299   1.917   2.644   0.405 -0.1005  2.4509  0.5112
 7270TIP3   OH243300   4.768   3.396   6.060 -0.4456  0.0419 -0.1645
 7270TIP3    H143301   4.704   3.458   6.095 -0.5968 -1.1618  1.8085
 7270TIP3    H243302   4.842   3.401   6.121  1.2412  1.0623 -2.1321
 7271TIP3   OH243303   6.093   3.583  14.566  0.4025 -0.1354 -0.5623
 7271TIP3    H143304   6.107   3.614  14.476 -1.2931  0.0816 -0.7798
 7271TIP3    H243305   6.122   3.492  14.564 -0.5137 -0.4357 -1.6161
 7272TIP3   OH243306   3.171   1.379  13.339  0.6526 -0.2762 -0.1917
 7272TIP3    H143307   3.158   1.452  13.400 -1.1306 -0.9683  0.3134
 7272TIP3    H243308   3.107   1.394  13.270  0.5660 -1.1336 -0.3069
 7273TIP3   OH243309   4.091   6.097  12.234 -0.0527 -0.2485  0.0403
 7273TIP3    H143310   4.124   6.107  12.145 -0.8138 -1.5534 -0.4202
 7273TIP3    H243311   3.996   6.092  12.223 -0.1726 -0.1070  0.9629
 7274TIP3   OH243312   3.685   1.944   5.932  0.3611  0.6363  0.0197
 7274TIP3    H143313   3.598   1.914   5.905  0.4902 -0.6474  0.9223
 7274TIP3    H243314   3.673   2.036   5.955 -0.6736  0.5754 -0.2324
 7275TIP3   OH243315   5.724   4.210  10.644  0.4764  0.1991 -0.0116
 7275TIP3    H143316   5.738   4.292  10.692 -1.2553  0.8040 -0.4374
 7275TIP3    H243317   5.801   4.200  10.588  1.5266  0.5996  1.3184
 7276TIP3   OH243318   6.073   0.040  16.362  0.6170  0.3003 -0.7027
 7276TIP3    H143319   6.007   0.083  16.307  0.0136 -0.4652 -0.5963
 7276TIP3    H243320   6.098   0.107  16.425 -0.3571  0.4944 -0.4986
 7277TIP3   OH243321   6.294   2.255  14.516 -0.1293 -0.3204  0.1942
 7277TIP3    H143322   6.348   2.199  14.572  2.3746  1.9383  0.2498
 7277TIP3    H243323   6.345   2.263  14.435 -1.8024 -0.3544 -0.8972
 7278TIP3   OH243324   4.767   1.266  14.467 -0.2974  0.3898  0.5691
 7278TIP3    H143325   4.854   1.303  14.460 -0.7744  2.0238  2.5941
 7278TIP3    H243326   4.772   1.184  14.417  1.7768  1.4219 -1.0798
 7279TIP3   OH243327   5.160   0.815   0.931  0.3885 -0.1084  0.6507
 7279TIP3    H143328   5.151   0.904   0.965  0.7853  0.0858  0.2560
 7279TIP3    H243329   5.086   0.804   0.872  2.0033  1.1095 -1.7703
 7280TIP3   OH243330   1.120   6.023  16.842 -0.1509 -0.0608 -0.5127
 7280TIP3    H143331   1.054   6.093  16.842 -0.3589 -0.2565 -0.4747
 7280TIP3    H243332   1.070   5.944  16.860  0.1431 -0.1703 -0.1831
 7281TIP3   OH243333   5.740   4.732  12.106  0.6030 -0.3664 -0.0026
 7281TIP3    H143334   5.757   4.820  12.140 -3.5518 -0.2934  2.5350
 7281TIP3    H243335   5.771   4.673  12.175 -2.3754 -0.4681  1.3933
 7282TIP3   OH243336   3.908   4.788  12.806 -0.6110 -0.3158  0.5341
 7282TIP3    H143337   3.820   4.823  12.793 -1.9941 -3.1779  1.4120
 7282TIP3    H243338   3.914   4.773  12.901  0.5313 -0.9260  0.3847
 7283TIP3   OH243339   4.067   5.910  11.069 -0.1481 -0.6071  0.1185
 7283TIP3    H143340   3.998   5.936  11.008  0.3605  0.6402  0.0233
 7283TIP3    H243341   4.133   5.867  11.014 -0.3003 -0.6977  0.0065
 7284TIP3   OH243342   4.106   4.047  16.541 -0.2616 -0.0027 -0.7079
 7284TIP3    H143343   4.181   4.006  16.497 -0.1494  0.4347 -0.9380
 7284TIP3    H243344   4.111   4.139  16.515 -0.4999  0.1601 -0.1922
 7285TIP3   OH243345   1.452   1.970  14.491 -0.1332  0.9687 -0.0883
 7285TIP3    H143346   1.424   1.889  14.448  1.4084 -0.3554  1.2602
 7285TIP3    H243347   1.526   2.002  14.438  0.0132  0.8392  0.0369
 7286TIP3   OH243348   3.294   5.775   3.740  0.1165 -0.0172 -0.1323
 7286TIP3    H143349   3.210   5.770   3.784  0.0773 -0.3318 -0.2455
 7286TIP3    H243350   3.276   5.748   3.650  0.6259 -1.5952  0.2140
 7287TIP3   OH243351   2.049   5.309   4.677  0.3489 -0.3199 -0.9388
 7287TIP3    H143352   2.068   5.377   4.613 -1.7093  1.4152  0.1530
 7287TIP3    H243353   2.009   5.239   4.625  1.1616 -0.1082 -1.8885
 7288TIP3   OH243354   3.453   5.098  12.299  0.2701  0.2452 -0.5290
 7288TIP3    H143355   3.396   5.164  12.261  1.6958  1.8642  0.0488
 7288TIP3    H243356   3.410   5.073  12.381 -0.2907  0.4228 -0.7685
 7289TIP3   OH243357   6.306   5.652   5.582 -0.4244 -0.4938  0.2009
 7289TIP3    H143358   6.313   5.745   5.560 -0.7345 -0.6338 -0.5164
 7289TIP3    H243359   6.389   5.615   5.552 -0.7949 -0.6610 -0.6588
 7290TIP3   OH243360   4.459   2.608   1.661 -0.1828 -0.4904  0.3054
 7290TIP3    H143361   4.523   2.545   1.695  1.5375  0.1648 -1.5258
 7290TIP3    H243362   4.469   2.685   1.718  1.7932  0.1485 -0.8046
 7291TIP3   OH243363   6.649   4.451  11.963  0.0940 -0.4600  0.6145
 7291TIP3    H143364   6.656   4.497  11.880 -4.2047  0.1957  0.3635
 7291TIP3    H243365   6.709   4.377  11.956  0.6821  0.2045 -2.6178
 7292TIP3   OH243366   4.262   6.740  12.729  0.0121 -0.6879 -0.9937
 7292TIP3    H143367   4.216   6.657  12.712 -0.5514 -0.3811 -0.9920
 7292TIP3    H243368   4.308   6.759  12.648  0.6756 -1.3381 -0.7731
 7293TIP3   OH243369   2.482   5.187  13.548 -0.1534 -0.0678  0.5986
 7293TIP3    H143370   2.485   5.265  13.603  0.5725 -0.1927  0.7415
 7293TIP3    H243371   2.416   5.131  13.589 -1.5148  0.9416 -0.1506
 7294TIP3   OH243372   2.204   3.081   0.268  0.2426 -0.5312  0.5924
 7294TIP3    H143373   2.293   3.097   0.236  0.6336  0.4866  2.0705
 7294TIP3    H243374   2.193   3.144   0.339 -1.2062 -1.4950  1.2612
 7295TIP3   OH243375   2.902   2.086   2.280 -0.2590  0.1633 -0.0433
 7295TIP3    H143376   2.996   2.070   2.280  0.0752  1.8105  1.2334
 7295TIP3    H243377   2.890   2.161   2.221 -0.4536  1.2644  1.3382
 7296TIP3   OH243378   0.992   6.103  13.218  0.1602 -0.2933 -0.3963
 7296TIP3    H143379   0.900   6.095  13.196 -0.0499 -0.1846  0.4015
 7296TIP3    H243380   0.995   6.098  13.314  1.2215 -2.7591 -0.4797
 7297TIP3   OH243381   0.348   0.714  12.691 -1.0844 -0.1079 -0.2323
 7297TIP3    H143382   0.323   0.628  12.659  0.4244 -0.8940  0.5513
 7297TIP3    H243383   0.324   0.713  12.784 -1.7263  0.6090 -0.3801
 7298TIP3   OH243384   1.679   6.584   5.415  0.0195 -0.5558 -0.5252
 7298TIP3    H143385   1.647   6.494   5.406 -0.5118 -0.2532 -1.8324
 7298TIP3    H243386   1.765   6.575   5.456 -0.6510 -1.5494  0.7299
 7299TIP3   OH243387   1.001   3.488   6.228 -0.1233 -0.7755 -0.1930
 7299TIP3    H143388   1.012   3.393   6.241  1.5837 -0.5872 -0.1082
 7299TIP3    H243389   1.032   3.503   6.139 -0.7338 -0.3323 -0.3345
 7300TIP3   OH243390   3.221   3.377   4.522  0.1903  0.3790 -0.1261
 7300TIP3    H143391   3.300   3.400   4.572 -0.1895  1.4914  0.0037
 7300TIP3    H243392   3.166   3.455   4.529  0.1806  0.6324 -2.3894
 7301TIP3   OH243393   0.855   1.511   3.626  0.0070 -0.0431  0.1094
 7301TIP3    H143394   0.928   1.533   3.567 -0.2316 -0.6468 -0.4195
 7301TIP3    H243395   0.896   1.498   3.711  0.3307  1.0718  0.1421
 7302TIP3   OH243396   5.489   6.309  13.176 -0.4605 -0.1586  0.1121
 7302TIP3    H143397   5.517   6.226  13.138 -2.0253 -2.2820  3.1590
 7302TIP3    H243398   5.415   6.337  13.123  0.3262 -0.4381 -1.1822
 7303TIP3   OH243399   5.948   0.526   2.173 -0.2186 -0.7148  0.1148
 7303TIP3    H143400   5.856   0.499   2.175 -0.2716 -0.5882 -0.5297
 7303TIP3    H243401   5.954   0.593   2.241 -1.6024  2.3487 -2.5659
 7304TIP3   OH243402   3.345   6.709   0.880 -0.2648  0.0400 -0.4453
 7304TIP3    H143403   3.359   6.623   0.840 -1.8395  0.0990 -1.1823
 7304TIP3    H243404   3.409   6.712   0.952 -0.1083 -1.7024 -0.4558
 7305TIP3   OH243405   2.001   4.076  13.290 -0.2163 -0.5332  0.4565
 7305TIP3    H143406   2.017   4.134  13.216 -1.7935 -1.8310 -0.9756
 7305TIP3    H243407   1.919   4.108  13.329 -1.7011 -2.3340 -1.0105
 7306TIP3   OH243408   6.701   3.852  12.914  0.0477 -0.0924  0.1237
 7306TIP3    H143409   6.786   3.841  12.955 -0.0964 -2.1254 -0.0448
 7306TIP3    H243410   6.639   3.860  12.987 -0.0472 -2.4129  0.3762
 7307TIP3   OH243411   1.972   6.295  16.226 -0.7942  0.0202  0.0739
 7307TIP3    H143412   1.918   6.219  16.250 -1.6978  0.8429  0.7165
 7307TIP3    H243413   2.062   6.265  16.238 -1.1180 -1.0780 -0.0757
 7308TIP3   OH243414   3.396   0.701   0.529  0.2067  0.2622  0.4196
 7308TIP3    H143415   3.370   0.762   0.460  1.5620 -1.2676 -1.5607
 7308TIP3    H243416   3.331   0.631   0.524  2.0219 -1.4431 -1.6322
 7309TIP3   OH243417   1.959   2.651   2.563  0.3711  0.3177  0.0519
 7309TIP3    H143418   1.869   2.684   2.569 -0.4529 -2.0923  3.5317
 7309TIP3    H243419   1.952   2.574   2.507  0.3964  0.4187 -0.0923
 7310TIP3   OH243420   3.058   1.829   2.940  0.1994 -0.4781 -0.2185
 7310TIP3    H143421   2.987   1.803   2.998 -0.9580  0.6608 -1.0901
 7310TIP3    H243422   3.091   1.746   2.905 -0.7468 -1.0191  0.1418
 7311TIP3   OH243423   1.096   4.606   1.744  0.7999 -0.0417  0.1893
 7311TIP3    H143424   1.122   4.690   1.781  1.2164 -1.1856  2.7116
 7311TIP3    H243425   1.119   4.542   1.812 -0.8728 -2.0332 -1.0088
 7312TIP3   OH243426   0.276   2.700  15.735  0.6119 -0.2590 -0.5883
 7312TIP3    H143427   0.345   2.695  15.801  0.5990  0.6041 -0.4999
 7312TIP3    H243428   0.283   2.618  15.686  1.3807 -0.3874 -0.2708
 7313TIP3   OH243429   4.830   2.701  15.335  0.4557  0.1880  0.3050
 7313TIP3    H143430   4.757   2.758  15.313 -0.6726 -1.0361  0.7665
 7313TIP3    H243431   4.906   2.743  15.295 -0.8937 -0.0257 -2.7417
 7314TIP3   OH243432   1.276   3.903   3.548  0.7559 -0.0020 -0.2518
 7314TIP3    H143433   1.192   3.933   3.583 -0.5748 -3.3822 -0.2608
 7314TIP3    H243434   1.341   3.949   3.601 -1.0693  1.5321  0.8143
 7315TIP3   OH243435   3.324   3.107   2.358 -0.0003 -0.1881  0.3727
 7315TIP3    H143436   3.317   3.140   2.447  1.2329 -0.6673  0.6677
 7315TIP3    H243437   3.417   3.117   2.336  0.4370 -3.2178  0.4154
 7316TIP3   OH243438   5.978   6.322   4.724 -0.5209  0.1147  0.4422
 7316TIP3    H143439   5.982   6.270   4.804  0.1364  1.0020  0.9940
 7316TIP3    H243440   5.889   6.309   4.692 -0.5203 -0.9524  0.8294
 7317TIP3   OH243441   5.302   3.412   4.507 -0.0537 -0.0580  0.2883
 7317TIP3    H143442   5.374   3.361   4.471 -0.0575 -0.9971  1.5208
 7317TIP3    H243443   5.257   3.450   4.431  1.5924  0.3680 -0.5088
 7318TIP3   OH243444   3.230   1.098   6.341 -0.0271 -0.2039 -0.2125
 7318TIP3    H143445   3.197   1.062   6.424 -2.2663 -0.0550 -0.9771
 7318TIP3    H243446   3.324   1.110   6.356 -0.3848  0.0078  2.3743
 7319TIP3   OH243447   4.393   5.566   1.027 -0.8674 -0.3408 -0.2319
 7319TIP3    H143448   4.382   5.653   0.989  0.0877 -0.3556 -0.5733
 7319TIP3    H243449   4.369   5.506   0.957 -3.1844 -0.3927  0.5159
 7320TIP3   OH243450   3.156   0.303   2.977  0.3945 -0.2549 -0.3436
 7320TIP3    H143451   3.243   0.292   2.938  0.2017 -0.4937 -0.7084
 7320TIP3    H243452   3.164   0.380   3.033  0.0966  1.4591 -2.5457
 7321TIP3   OH243453   4.799   6.305  12.507 -0.1554 -0.2453 -0.7467
 7321TIP3    H143454   4.785   6.232  12.448 -1.2733  0.6995 -1.6873
 7321TIP3    H243455   4.813   6.380  12.450 -0.0413  0.4725  0.1966
 7322TIP3   OH243456   2.747   2.955  13.031 -0.6628  0.0967 -0.2875
 7322TIP3    H143457   2.788   2.897  13.096 -0.6155  0.4434  0.0013
 7322TIP3    H243458   2.716   2.896  12.962 -0.2342 -0.2306 -0.2102
 7323TIP3   OH243459   4.225   5.950   0.293  0.4095 -0.2906 -0.2363
 7323TIP3    H143460   4.249   5.890   0.363 -0.6719 -0.1483  0.2782
 7323TIP3    H243461   4.133   5.971   0.309  0.3635  0.3786 -1.2349
 7324TIP3   OH243462   3.356   6.699  11.398  0.1306  0.2358  0.6001
 7324TIP3    H143463   3.299   6.769  11.365 -0.7280  0.5365  2.5688
 7324TIP3    H243464   3.404   6.740  11.470  0.3838 -0.9170  1.0981
 7325TIP3   OH243465   5.397   4.466  16.049 -0.5643 -0.1490 -0.5598
 7325TIP3    H143466   5.342   4.499  16.119 -0.3322 -0.8692 -0.0260
 7325TIP3    H243467   5.484   4.499  16.069 -0.6010  0.1062 -0.8187
 7326TIP3   OH243468   5.408   3.482  10.625  0.2702 -0.1505  0.1493
 7326TIP3    H143469   5.339   3.417  10.609  0.1601 -0.7810  2.6928
 7326TIP3    H243470   5.362   3.554  10.669  1.2776 -0.9359  2.6420
 7327TIP3   OH243471   6.792   0.844  12.058 -0.4906 -0.1654 -0.5954
 7327TIP3    H143472   6.738   0.898  12.000 -1.5501 -0.2740  0.2673
 7327TIP3    H243473   6.882   0.865  12.032 -0.9136 -0.8055 -2.8308
 7328TIP3   OH243474   4.725   5.685  15.447  0.1883  0.2180 -0.0048
 7328TIP3    H143475   4.672   5.645  15.517 -1.8459  1.9905 -0.4191
 7328TIP3    H243476   4.748   5.771  15.481 -0.3597  0.8897 -1.2665
 7329TIP3   OH243477   5.296   3.237   2.814 -0.2462  0.4854 -0.7034
 7329TIP3    H143478   5.360   3.285   2.867 -1.7367  0.6427  1.0489
 7329TIP3    H243479   5.222   3.296   2.806 -0.1370  0.3892 -2.9012
 7330TIP3   OH243480   5.803   2.488   1.575 -0.0841  0.3823  0.9422
 7330TIP3    H143481   5.875   2.479   1.637 -0.4985  1.3596  1.5910
 7330TIP3    H243482   5.832   2.555   1.514 -1.0466  1.9910  2.1650
 7331TIP3   OH243483   5.525   3.642   6.574 -0.4191 -0.1383  0.0791
 7331TIP3    H143484   5.610   3.597   6.577 -1.6906 -2.8601 -0.8569
 7331TIP3    H243485   5.531   3.710   6.640  1.8348 -1.5052  1.4114
 7332TIP3   OH243486   2.580   4.844  14.731 -0.5433  0.2412  0.4353
 7332TIP3    H143487   2.534   4.803  14.658 -1.7207  0.4598  1.0090
 7332TIP3    H243488   2.672   4.827  14.715 -0.8469 -0.5716 -0.5721
 7333TIP3   OH243489   3.985   1.081   3.238  0.2620 -0.7978 -0.6724
 7333TIP3    H143490   3.962   1.095   3.329 -1.2816 -2.1205 -0.8093
 7333TIP3    H243491   3.995   1.169   3.202  0.3201 -0.2534  0.6177
 7334TIP3   OH243492   4.954   3.299  14.205 -0.1241 -0.2652  0.7392
 7334TIP3    H143493   4.911   3.227  14.252  0.8498 -0.1977  1.7622
 7334TIP3    H243494   4.962   3.368  14.270  2.2568 -0.5645  0.8405
 7335TIP3   OH243495   0.389   1.089   4.590  0.1153 -0.6227  0.1153
 7335TIP3    H143496   0.366   1.164   4.535  1.6634 -2.3116 -3.0817
 7335TIP3    H243497   0.403   1.127   4.677  1.1560  2.8615 -1.3997
 7336TIP3   OH243498   4.872   4.198   2.568 -0.0149  0.6391  0.3074
 7336TIP3    H143499   4.807   4.192   2.638 -1.0569  1.4374 -0.5423
 7336TIP3    H243500   4.887   4.292   2.558  1.9850  0.4524  1.0789
 7337TIP3   OH243501   2.761   6.661   0.100  0.6582 -0.5657 -0.2707
 7337TIP3    H143502   2.835   6.649   0.041 -0.5702  0.0609 -2.0255
 7337TIP3    H243503   2.723   6.745   0.074 -1.1505 -1.2502 -0.0019
 7338TIP3   OH243504   1.568   3.687   2.570  1.1196 -0.3091 -0.0939
 7338TIP3    H143505   1.502   3.741   2.615  0.7543 -0.7827 -0.0574
 7338TIP3    H243506   1.591   3.738   2.492  0.2695 -0.4115 -0.4204
 7339TIP3   OH243507   6.048   2.279  13.017 -0.2223 -0.8261 -0.6001
 7339TIP3    H143508   5.969   2.333  13.011  0.3732  0.1006 -0.4003
 7339TIP3    H243509   6.035   2.227  13.096  0.4060  1.1494  0.9138
 7340TIP3   OH243510   5.695   3.175   5.488  0.0303  0.0621 -0.3821
 7340TIP3    H143511   5.655   3.194   5.572 -0.4326  0.3383 -0.6599
 7340TIP3    H243512   5.708   3.261   5.447  0.7503 -0.0316 -0.3739
 7341TIP3   OH243513   5.107   6.328   5.896 -0.0102  0.5235  0.7886
 7341TIP3    H143514   5.105   6.372   5.981 -0.7082  0.2664  0.9094
 7341TIP3    H243515   5.015   6.315   5.873  0.1588  1.0309 -0.2387
 7342TIP3   OH243516   0.802   0.228  12.496 -0.1305 -0.5006 -0.4287
 7342TIP3    H143517   0.819   0.315  12.461 -1.3452  0.0719  0.3327
 7342TIP3    H243518   0.775   0.176  12.420 -0.2943  0.0362 -0.7440
 7343TIP3   OH243519   2.317   0.319  16.615  0.0967  0.1643  0.0584
 7343TIP3    H143520   2.309   0.375  16.539  0.6022 -1.0024 -0.8915
 7343TIP3    H243521   2.380   0.251  16.589 -1.1147 -1.3345  0.8355
 7344TIP3   OH243522   6.485   0.620  14.573  0.1523 -0.0877 -0.2229
 7344TIP3    H143523   6.512   0.597  14.485  0.9499 -1.0302  0.2475
 7344TIP3    H243524   6.390   0.608  14.573  0.2464 -0.8503 -0.7344
 7345TIP3   OH243525   3.250   0.914   2.003 -0.3310 -0.0603  0.0601
 7345TIP3    H143526   3.164   0.877   1.984 -1.4597  1.5062  1.8138
 7345TIP3    H243527   3.291   0.851   2.062  0.1599 -1.2601 -1.4882
 7346TIP3   OH243528   0.756   2.218  12.061 -0.5369  0.2549 -0.3087
 7346TIP3    H143529   0.709   2.145  12.101 -2.1275 -0.1178 -2.6091
 7346TIP3    H243530   0.848   2.203  12.082 -0.9164 -1.9729 -0.0543
 7347TIP3   OH243531   4.256   1.850   6.024 -0.2416 -0.2817  0.3942
 7347TIP3    H143532   4.198   1.814   6.091 -0.4648 -0.2165  0.2370
 7347TIP3    H243533   4.216   1.825   5.941 -1.3473  1.7385  0.2323
 7348TIP3   OH243534   6.631   4.553   3.906  0.1359  0.1558  0.0040
 7348TIP3    H143535   6.722   4.566   3.931 -0.0280 -2.1240  2.1572
 7348TIP3    H243536   6.619   4.611   3.830  3.0067  1.3772  0.3325
 7349TIP3   OH243537   4.665   5.055  12.543  0.2954 -0.2647  0.5103
 7349TIP3    H143538   4.733   4.987  12.538 -0.4507 -0.9816 -0.3303
 7349TIP3    H243539   4.601   5.020  12.604 -0.7189 -0.9479 -0.8757
 7350TIP3   OH243540   0.168   2.541   4.238  0.1781  0.2470  0.2492
 7350TIP3    H143541   0.200   2.609   4.297 -0.2584  1.0291 -0.3847
 7350TIP3    H243542   0.084   2.515   4.275  0.1098  0.4213  0.2184
 7351TIP3   OH243543   3.673   1.221  12.901  0.2700 -0.0029  0.2803
 7351TIP3    H143544   3.692   1.258  12.815  3.3540 -1.1918  0.3262
 7351TIP3    H243545   3.585   1.253  12.922 -0.5236  0.5252 -3.1741
 7352TIP3   OH243546   1.311   0.703   5.180  0.8552  0.4903 -0.2398
 7352TIP3    H143547   1.338   0.693   5.089  1.1858  0.0944 -0.1008
 7352TIP3    H243548   1.265   0.787   5.182  0.4602  0.3013 -0.8607
 7353TIP3   OH243549   1.919   2.768   1.442 -0.1382 -0.4545  0.0975
 7353TIP3    H143550   1.945   2.677   1.452 -1.6507 -0.8655  0.4874
 7353TIP3    H243551   1.872   2.789   1.522 -1.4303  0.0911 -0.7722
 7354TIP3   OH243552   1.891   6.042  16.311 -0.2688 -0.3961 -0.6508
 7354TIP3    H143553   1.820   5.983  16.337 -1.1490  0.4662 -1.0342
 7354TIP3    H243554   1.971   5.993  16.331 -0.9617 -1.4250 -0.2893
 7355TIP3   OH243555   3.042   4.928   1.302  0.8374  0.3156 -0.2377
 7355TIP3    H143556   3.074   4.978   1.377  0.1440 -0.0029  0.2807
 7355TIP3    H243557   3.072   4.978   1.226 -0.4124  1.9144  0.2594
 7356TIP3   OH243558   1.327   2.244  13.656  0.0384  0.1922  0.3293
 7356TIP3    H143559   1.278   2.251  13.574 -0.0596  0.3013  0.3958
 7356TIP3    H243560   1.260   2.228  13.722  0.1652 -0.4234  0.3199
 7357TIP3   OH243561   0.133   0.718   3.903 -0.5012  0.3321 -0.2119
 7357TIP3    H143562   0.128   0.798   3.955 -1.2445  0.0305  0.2121
 7357TIP3    H243563   0.155   0.747   3.815 -1.5650  1.0975 -0.2532
 7358TIP3   OH243564   1.688   5.205   5.595 -0.2786  1.0326  0.2488
 7358TIP3    H143565   1.719   5.295   5.586 -1.0302  1.4180  1.2886
 7358TIP3    H243566   1.728   5.174   5.677  0.3767  0.2457 -0.3570
 7359TIP3   OH243567   1.909   1.459  11.102 -0.6199 -0.0929 -0.5396
 7359TIP3    H143568   1.989   1.512  11.107 -0.2217 -0.4919 -2.0684
 7359TIP3    H243569   1.936   1.380  11.054 -2.1836  0.3238 -2.2234
 7360TIP3   OH243570   6.788   1.945   2.774  1.0316  0.0569  0.3235
 7360TIP3    H143571   6.768   1.997   2.696  2.1194  0.5050  0.3227
 7360TIP3    H243572   6.882   1.958   2.788  0.6963  0.7189  2.2309
 7361TIP3   OH243573   0.960   0.629  16.760  0.0395 -0.2534  0.1042
 7361TIP3    H143574   0.915   0.680  16.827  2.1107  1.1700  0.5318
 7361TIP3    H243575   0.891   0.582  16.714 -1.7278  1.0114  1.3416
 7362TIP3   OH243576   3.075   3.413   0.463 -0.0651  0.1212  0.2988
 7362TIP3    H143577   3.003   3.473   0.442  0.2937  0.7206  0.7486
 7362TIP3    H243578   3.039   3.358   0.532 -0.1312  0.3585  0.4584
 7363TIP3   OH243579   6.482   4.268  14.677 -0.4847 -0.1255 -1.1774
 7363TIP3    H143580   6.503   4.196  14.617  0.0411  0.8243 -2.1771
 7363TIP3    H243581   6.528   4.344  14.640 -0.4063  0.5629  0.2732
 7364TIP3   OH243582   2.090   5.253   0.242 -0.1410  0.0813  0.2578
 7364TIP3    H143583   2.158   5.250   0.309  1.1707 -0.2498 -1.0190
 7364TIP3    H243584   2.120   5.192   0.175 -2.4829 -1.2322  0.3157
 7365TIP3   OH243585   6.700   5.092  12.849  0.4984 -0.6037 -0.1957
 7365TIP3    H143586   6.668   5.165  12.796  0.5722 -0.6288 -0.2751
 7365TIP3    H243587   6.775   5.127  12.896  0.5877 -0.6533 -0.3016
 7366TIP3   OH243588   1.309   3.591  17.119 -0.1598  0.2319  0.9790
 7366TIP3    H143589   1.384   3.615  17.174  0.8314  0.9782 -0.6257
 7366TIP3    H243590   1.237   3.646  17.152  0.6304  1.2862  1.0007
 7367TIP3   OH243591   3.458   3.694  11.385 -0.2050 -0.3128  0.2853
 7367TIP3    H143592   3.544   3.725  11.356 -0.6074  0.9340  0.3329
 7367TIP3    H243593   3.437   3.621  11.326  0.7159 -0.3873  0.0345
 7368TIP3   OH243594   3.072   5.960  11.632  0.5887 -0.3889  0.0090
 7368TIP3    H143595   3.093   6.046  11.668  0.3303 -0.7809  1.1280
 7368TIP3    H243596   3.106   5.963  11.542  2.4765  0.1554  0.6871
 7369TIP3   OH243597   4.447   6.660   1.343 -0.0734 -0.0752  0.2763
 7369TIP3    H143598   4.537   6.635   1.324  0.6366  1.7898  0.9061
 7369TIP3    H243599   4.438   6.747   1.304 -1.7995 -0.4448 -0.2612
 7370TIP3   OH243600   1.836   1.587  13.381  0.1610  0.4845  0.1873
 7370TIP3    H143601   1.890   1.635  13.444  1.7765  0.2665 -0.9775
 7370TIP3    H243602   1.875   1.499  13.378 -0.5191  0.1902 -0.3829
 7371TIP3   OH243603   2.722   2.615  12.649 -0.2785 -1.0759  0.3938
 7371TIP3    H143604   2.700   2.546  12.587  0.9528 -1.5172  0.4225
 7371TIP3    H243605   2.677   2.693  12.615  0.3504 -1.3113 -1.0440
 7372TIP3   OH243606   1.218   5.799   3.659  0.5381  0.0568  0.2834
 7372TIP3    H143607   1.278   5.828   3.591  1.4759  1.1875  1.5388
 7372TIP3    H243608   1.145   5.860   3.655  0.3106 -0.2317 -0.0694
 7373TIP3   OH243609   5.892   0.143   1.760  0.4575 -0.2427 -0.2238
 7373TIP3    H143610   5.836   0.216   1.733  0.8032 -0.5939 -2.0189
 7373TIP3    H243611   5.978   0.164   1.725  1.0206 -0.6092  0.9038
 7374TIP3   OH243612   4.141   4.669   3.033  0.5662  0.4670  0.4252
 7374TIP3    H143613   4.201   4.599   3.007 -0.5388 -0.2017 -0.4132
 7374TIP3    H243614   4.097   4.636   3.111  1.1621  0.8882  0.9445
 7375TIP3   OH243615   3.491   6.145  11.707 -0.0466 -0.8083 -0.1918
 7375TIP3    H143616   3.410   6.176  11.746  1.2082  0.3447  1.6686
 7375TIP3    H243617   3.521   6.219  11.654  0.8126 -0.3975  0.8299
 7376TIP3   OH243618   0.852   0.223   2.332 -0.5214 -0.0353  0.3813
 7376TIP3    H143619   0.804   0.187   2.407 -1.5963 -1.0255 -0.7303
 7376TIP3    H243620   0.940   0.185   2.339 -0.7520 -0.4932  0.8813
 7377TIP3   OH243621   5.814   2.757  12.294 -0.3185  0.3168 -0.2566
 7377TIP3    H143622   5.748   2.741  12.227 -1.9981  0.1551  1.3468
 7377TIP3    H243623   5.811   2.852  12.308  0.1428  0.3717 -0.4962
 7378TIP3   OH243624   4.358   6.664  15.003  0.3586  0.3089 -0.5120
 7378TIP3    H143625   4.269   6.684  15.030  1.0854  0.3086  2.1599
 7378TIP3    H243626   4.349   6.588  14.946 -1.3504  0.3693 -0.3669
 7379TIP3   OH243627   6.012   0.822   3.101 -0.1326  0.3148 -0.6216
 7379TIP3    H143628   6.090   0.814   3.156 -0.0345  0.7486 -0.6988
 7379TIP3    H243629   6.011   0.741   3.050 -0.7033 -0.5093  0.6331
 7380TIP3   OH243630   4.885   3.547   0.140  0.4550 -0.6399 -0.6430
 7380TIP3    H143631   4.879   3.555   0.235 -1.4215  2.2948 -0.8697
 7380TIP3    H243632   4.832   3.470   0.119 -0.3989 -0.4358  0.6212
 7381TIP3   OH243633   0.692   6.008   6.079 -0.5003  0.3484  0.7421
 7381TIP3    H143634   0.610   6.022   6.032 -0.0994  3.6808  0.7788
 7381TIP3    H243635   0.666   5.992   6.170 -1.1480  2.2278  0.9220
 7382TIP3   OH243636   5.827   5.289  14.961  0.0696  0.3833  0.0011
 7382TIP3    H143637   5.755   5.229  14.981  0.0160  0.7318  0.9146
 7382TIP3    H243638   5.803   5.370  15.006  1.8229 -0.0013  1.7657
 7383TIP3   OH243639   2.776   5.722  14.875 -0.2552  0.5204 -0.2378
 7383TIP3    H143640   2.689   5.760  14.859 -0.5097  1.3926  2.6320
 7383TIP3    H243641   2.771   5.634  14.839 -1.5160  1.3109 -2.1729
 7384TIP3   OH243642   2.602   1.363  15.875  0.3335  0.1122 -0.2438
 7384TIP3    H143643   2.550   1.320  15.806  2.2145 -1.4887 -0.7526
 7384TIP3    H243644   2.648   1.433  15.830 -0.4277  0.7568 -0.0397
 7385TIP3   OH243645   6.637   5.077   0.297 -0.4953 -0.4402 -0.1033
 7385TIP3    H143646   6.698   5.098   0.227 -0.9466  1.3945 -0.0098
 7385TIP3    H243647   6.551   5.079   0.255 -0.7343  0.2731  0.3949
 7386TIP3   OH243648   6.655   3.144   4.996  0.0115 -0.0681  0.1131
 7386TIP3    H143649   6.650   3.236   4.969  0.0530 -0.0956  0.0094
 7386TIP3    H243650   6.694   3.146   5.083  0.8790 -0.0517 -0.2669
 7387TIP3   OH243651   1.258   0.695   1.382  0.1057  0.3963  0.2442
 7387TIP3    H143652   1.307   0.646   1.316 -0.0607 -0.1300  0.5067
 7387TIP3    H243653   1.187   0.736   1.332 -0.3413 -0.4385  0.1658
 7388TIP3   OH243654   3.816   0.920   0.543  0.3899  0.2002  0.7035
 7388TIP3    H143655   3.872   0.991   0.574 -1.3995  0.9296  2.5038
 7388TIP3    H243656   3.812   0.858   0.617 -1.6164  0.4994  0.9181
 7389TIP3   OH243657   5.000   1.711  11.583 -0.9511  0.3343  0.3880
 7389TIP3    H143658   5.066   1.653  11.621 -0.0437  1.7885  1.0967
 7389TIP3    H243659   5.030   1.727  11.494  0.8153  2.5717  1.2989
 7390TIP3   OH243660   6.063   1.556  17.037 -0.4962  0.0411  0.1941
 7390TIP3    H143661   6.095   1.642  17.012 -1.3935  0.3875  0.2022
 7390TIP3    H243662   6.111   1.495  16.982 -0.9974  0.6561 -0.9562
 7391TIP3   OH243663   0.933   0.045  10.571 -0.1938 -0.5712  0.1474
 7391TIP3    H143664   1.014   0.059  10.619  0.1295  0.3895 -0.6442
 7391TIP3    H243665   0.945   0.092  10.489 -1.7079 -0.0874  0.1710
 7392TIP3   OH243666   1.169   0.438  12.507 -0.0483 -0.4493  0.3512
 7392TIP3    H143667   1.138   0.391  12.584  1.1968  0.2725  1.3516
 7392TIP3    H243668   1.174   0.372  12.438  2.3595 -2.0307  1.8877
 7393TIP3   OH243669   1.579   5.593  17.154  0.4843 -0.3005  0.3099
 7393TIP3    H143670   1.582   5.625  17.244  1.8963 -0.9480  0.5276
 7393TIP3    H243671   1.671   5.578  17.131  0.3030  1.2559 -1.7647
 7394TIP3   OH243672   2.708   5.442  14.267  0.7489 -0.6680 -0.9222
 7394TIP3    H143673   2.680   5.531  14.289  1.8347 -0.7010  0.6778
 7394TIP3    H243674   2.640   5.411  14.207 -0.8717  0.4276  0.2593
 7395TIP3   OH243675   3.042   4.612  15.286  0.1645  0.1476 -0.0589
 7395TIP3    H143676   3.035   4.671  15.210 -1.5074  0.6316  0.4398
 7395TIP3    H243677   3.027   4.525  15.250 -0.8933  0.4021 -0.2620
 7396TIP3   OH243678   6.301   0.568  12.032 -0.5288 -0.1011 -1.0841
 7396TIP3    H143679   6.343   0.621  11.964 -0.2794  0.3923 -0.5498
 7396TIP3    H243680   6.207   0.580  12.017 -0.4731  0.9693 -0.5992
 7397TIP3   OH243681   0.872   0.378  16.070 -0.2890  0.1546  0.2939
 7397TIP3    H143682   0.780   0.374  16.046 -0.7023 -2.0670  1.9094
 7397TIP3    H243683   0.902   0.287  16.065  1.7749  0.7896  0.0362
 7398TIP3   OH243684   3.361   0.656   2.082  0.0604 -0.3468 -0.2569
 7398TIP3    H143685   3.362   0.624   1.992  0.1384  0.7192 -0.6421
 7398TIP3    H243686   3.454   0.661   2.106  0.0241 -1.1488  0.0809
 7399TIP3   OH243687   3.141   5.947  11.342 -0.1550  0.3633 -0.6931
 7399TIP3    H143688   3.211   5.885  11.319 -0.7761 -0.6449  0.0532
 7399TIP3    H243689   3.176   6.032  11.316  1.0946 -0.1839 -0.9215
 7400TIP3   OH243690   1.568   0.520  14.816 -0.1381  0.0516 -0.1120
 7400TIP3    H143691   1.547   0.609  14.786 -1.7577 -0.3728 -0.3600
 7400TIP3    H243692   1.631   0.532  14.887  1.1059  1.2853 -1.3632
 7401TIP3   OH243693   6.038   2.609  13.639 -0.1699  0.7916 -0.0851
 7401TIP3    H143694   6.105   2.671  13.665 -0.3225  0.3748  1.3454
 7401TIP3    H243695   6.082   2.524  13.642 -0.4566  0.6345 -0.2829
 7402TIP3   OH243696   5.655   0.387   5.868  0.0267  0.8940 -0.0595
 7402TIP3    H143697   5.580   0.355   5.820  0.4721  0.4740 -0.4780
 7402TIP3    H243698   5.619   0.414   5.953 -0.7405  1.5449 -0.5734
 7403TIP3   OH243699   4.436   4.603   5.642 -0.2163 -0.2787 -0.1657
 7403TIP3    H143700   4.446   4.590   5.736  0.1007  0.7120 -0.0514
 7403TIP3    H243701   4.521   4.634   5.612 -0.6080  0.4589 -0.5769
 7404TIP3   OH243702   0.812   1.886   5.830 -0.1388 -0.2993  0.1897
 7404TIP3    H143703   0.718   1.892   5.847  0.0407  0.9406  0.8180
 7404TIP3    H243704   0.845   1.832   5.902 -0.4157 -1.1608 -0.3042
 7405TIP3   OH243705   1.640   4.822   3.417  0.2344 -0.8330  0.2933
 7405TIP3    H143706   1.563   4.802   3.470 -2.4990 -1.2781 -3.4343
 7405TIP3    H243707   1.656   4.915   3.432 -1.5759 -0.5282  0.5925
 7406TIP3   OH243708   2.552   5.686  11.685 -0.0348  0.0025  0.2944
 7406TIP3    H143709   2.568   5.652  11.773 -1.5697  0.8651  0.9496
 7406TIP3    H243710   2.499   5.765  11.699  1.4071  1.3379 -1.2802
 7407TIP3   OH243711   2.496   6.013   5.081  0.5119 -0.2261 -0.5792
 7407TIP3    H143712   2.517   6.019   5.174 -2.1363  0.3930  0.0651
 7407TIP3    H243713   2.576   6.041   5.036  1.1455  1.6342  1.5463
 7408TIP3   OH243714   4.011   1.335   3.172  0.6117  0.2786  0.2736
 7408TIP3    H143715   4.034   1.370   3.258 -1.5899  1.7920  0.3341
 7408TIP3    H243716   3.976   1.410   3.124 -1.4618 -1.2060 -0.7005
 7409TIP3   OH243717   0.290   1.647  11.712 -0.0052  1.4277 -0.3181
 7409TIP3    H143718   0.222   1.594  11.754  0.7790  1.1035  0.5847
 7409TIP3    H243719   0.295   1.613  11.622 -0.8583  1.3049 -0.3294
 7410TIP3   OH243720   6.683   3.580  12.032  0.1119  0.7716  0.5841
 7410TIP3    H143721   6.701   3.646  11.966 -2.0678  0.6220 -0.2460
 7410TIP3    H243722   6.595   3.602  12.065 -0.8891 -1.8637 -0.0394
 7411TIP3   OH243723   4.404   3.758   2.266  0.1756  0.7296  0.0939
 7411TIP3    H143724   4.327   3.813   2.257 -0.5057 -0.0632  0.8658
 7411TIP3    H243725   4.375   3.685   2.321  1.4428  0.3558  0.2985
 7412TIP3   OH243726   4.220   2.294  16.659  0.0395  0.2342 -0.1019
 7412TIP3    H143727   4.304   2.252  16.674 -0.2959 -0.0106  1.1967
 7412TIP3    H243728   4.163   2.259  16.727 -1.2180  0.1511 -1.1495
 7413TIP3   OH243729   5.091   2.830  11.494 -0.4361 -0.0645  0.2026
 7413TIP3    H143730   5.005   2.814  11.454  0.9979 -0.2063 -3.1267
 7413TIP3    H243731   5.151   2.836  11.420  2.2753  1.2848  2.3527
 7414TIP3   OH243732   3.879   4.639  16.674 -0.6657 -0.2998 -0.4970
 7414TIP3    H143733   3.949   4.671  16.617  0.9032 -0.3172  1.3233
 7414TIP3    H243734   3.860   4.551  16.641  0.6312 -0.5426 -0.6449
 7415TIP3   OH243735   0.089   2.097   5.014 -0.0353  0.2865  0.1010
 7415TIP3    H143736   0.079   2.154   5.090 -0.8198  0.2252  0.0556
 7415TIP3    H243737   0.020   2.125   4.954 -1.8653 -2.0599  0.9413
 7416TIP3   OH243738   2.854   5.076   2.757 -0.2210 -0.1931  0.7371
 7416TIP3    H143739   2.804   5.158   2.751 -0.5393 -0.4261  0.0729
 7416TIP3    H243740   2.791   5.008   2.732  0.0652 -0.6341  1.2026
 7417TIP3   OH243741   5.703   3.607   0.271 -0.4195  0.2215  0.4486
 7417TIP3    H143742   5.632   3.564   0.223 -0.7560  0.4854  0.7021
 7417TIP3    H243743   5.760   3.641   0.202 -0.5799  0.0716  0.2388
 7418TIP3   OH243744   6.088   5.961  13.951  0.0526 -0.5808  0.6992
 7418TIP3    H143745   6.103   5.969  14.045  0.5964 -0.0855  0.5742
 7418TIP3    H243746   6.168   5.994  13.911 -0.7100  0.5366  0.0318
 7419TIP3   OH243747   2.624   1.206   0.359 -0.5718  0.4038 -0.6822
 7419TIP3    H143748   2.678   1.220   0.281 -0.9078 -1.2290 -1.2508
 7419TIP3    H243749   2.686   1.175   0.425  0.0250  3.4248  0.3179
 7420TIP3   OH243750   0.498   4.836   2.350  1.0951  0.0502  0.1414
 7420TIP3    H143751   0.407   4.823   2.326  0.9806 -1.5140  1.2762
 7420TIP3    H243752   0.546   4.830   2.267  0.2428  0.1062 -0.3637
 7421TIP3   OH243753   5.272   5.584  13.094 -0.3434 -0.2205 -0.4682
 7421TIP3    H143754   5.342   5.552  13.037  1.4025  0.1692  1.3559
 7421TIP3    H243755   5.312   5.592  13.180 -2.8254 -0.5550  0.8093
 7422TIP3   OH243756   0.360   2.347   4.266 -0.0476 -0.6104  0.4145
 7422TIP3    H143757   0.283   2.397   4.239  0.7340  1.1369  1.2346
 7422TIP3    H243758   0.352   2.340   4.361  1.3862  0.6876  0.6682
 7423TIP3   OH243759   5.478   1.555  14.886 -0.1407  0.0275 -0.5740
 7423TIP3    H143760   5.509   1.497  14.816 -0.1500 -1.2998  0.4732
 7423TIP3    H243761   5.408   1.505  14.929  0.0193  0.7043  0.5128
 7424TIP3   OH243762   5.766   3.339  11.897 -0.3746  0.1530  0.1227
 7424TIP3    H143763   5.831   3.390  11.944 -0.5402  0.3399  0.1497
 7424TIP3    H243764   5.816   3.269  11.855  0.0373  1.1001 -1.0121
 7425TIP3   OH243765   2.227   1.914   3.878  0.4147 -0.2039 -0.3329
 7425TIP3    H143766   2.253   2.003   3.902  0.4249 -0.4125  0.4473
 7425TIP3    H243767   2.227   1.915   3.782  2.0248  0.1776 -0.3661
 7426TIP3   OH243768   0.402   1.281  15.502 -0.4943 -0.0025 -0.0226
 7426TIP3    H143769   0.410   1.197  15.457 -3.2156 -0.3668 -0.0131
 7426TIP3    H243770   0.426   1.346  15.436 -0.8843 -0.6925 -0.8674
 7427TIP3   OH243771   6.516   4.958   2.537 -0.6374  0.0179  0.1340
 7427TIP3    H143772   6.503   4.936   2.629  0.7209 -0.5883  0.1936
 7427TIP3    H243773   6.434   4.932   2.495 -0.0965 -2.7463  0.6466
 7428TIP3   OH243774   3.680   1.317  15.911 -0.1675  0.0819  0.3968
 7428TIP3    H143775   3.700   1.274  15.827 -1.2780 -0.6157  0.4666
 7428TIP3    H243776   3.743   1.280  15.972 -2.4120 -3.2745  0.9698
 7429TIP3   OH243777   6.142   4.237  11.478  0.6085  0.4531  0.0758
 7429TIP3    H143778   6.146   4.315  11.533  1.3607  1.9556 -2.0137
 7429TIP3    H243779   6.124   4.166  11.540  0.3412  2.1775  2.1076
 7430TIP3   OH243780   2.433   2.250   1.001 -0.8951  0.2363  0.4278
 7430TIP3    H143781   2.402   2.185   0.938  1.4902 -0.2897 -0.2999
 7430TIP3    H243782   2.410   2.335   0.962 -0.3144 -0.1097 -0.6997
 7431TIP3   OH243783   4.713   5.564  13.658 -0.2027  0.4253  0.6257
 7431TIP3    H143784   4.803   5.569  13.691 -0.6486 -0.6004  2.0979
 7431TIP3    H243785   4.723   5.537  13.566  0.9865  0.0069  0.8551
 7432TIP3   OH243786   6.191   0.942  12.618 -0.2648  0.2663 -0.2120
 7432TIP3    H143787   6.264   0.999  12.592 -0.3281  0.1382 -0.6732
 7432TIP3    H243788   6.231   0.857  12.633 -0.4269  0.0093 -1.1929
 7433TIP3   OH243789   6.666   2.786   4.809  0.5277 -0.3388 -0.0079
 7433TIP3    H143790   6.593   2.801   4.869 -1.2952 -0.3122 -2.1016
 7433TIP3    H243791   6.706   2.705   4.840 -0.6771 -0.6134  0.9294
 7434TIP3   OH243792   4.338   3.034  10.627  0.3060 -0.0182 -0.5561
 7434TIP3    H143793   4.243   3.019  10.634  0.2406 -0.8021 -2.4656
 7434TIP3    H243794   4.345   3.117  10.579  0.5875 -0.0436 -0.5578
 7435TIP3   OH243795   5.510   5.435   4.324 -0.7553 -0.4188 -0.0180
 7435TIP3    H143796   5.574   5.486   4.375 -1.8280  0.4149  0.5387
 7435TIP3    H243797   5.563   5.382   4.266  0.4481  0.4800  0.2112
 7436TIP3   OH243798   1.845   5.890  13.817  0.1378 -0.0329 -0.8731
 7436TIP3    H143799   1.849   5.985  13.820 -2.0800  0.2022 -2.9100
 7436TIP3    H243800   1.753   5.870  13.800  1.0091 -2.3749 -3.6866
 7437TIP3   OH243801   3.429   1.524  12.663  0.0080  0.4243  0.3097
 7437TIP3    H143802   3.404   1.609  12.628 -2.3720 -0.7968 -1.2083
 7437TIP3    H243803   3.356   1.498  12.718  0.3820 -0.9442  0.1998
 7438TIP3   OH243804   2.786   2.130  15.279 -0.0113  0.1746 -0.1949
 7438TIP3    H143805   2.746   2.121  15.192 -3.0339 -2.2561  1.2791
 7438TIP3    H243806   2.715   2.161  15.335  1.6437  0.8569  1.6334
 7439TIP3   OH243807   2.021   1.662   2.043 -0.1127  0.0044 -0.3015
 7439TIP3    H143808   2.077   1.704   2.108 -0.3209 -1.2046  0.6924
 7439TIP3    H243809   2.061   1.576   2.028  0.1884  0.4164 -2.1344
 7440TIP3   OH243810   2.115   1.636   3.881 -0.4462 -0.1236  0.1274
 7440TIP3    H143811   2.161   1.572   3.935  1.2802  1.3357  0.4879
 7440TIP3    H243812   2.175   1.711   3.877 -2.3317  1.4352 -0.3483
 7441TIP3   OH243813   5.333   4.013   4.280  0.0542  0.3275  0.1771
 7441TIP3    H143814   5.331   3.971   4.194  0.0775 -0.3568  0.5047
 7441TIP3    H243815   5.323   4.106   4.261 -1.2941  0.0754 -0.4813
 7442TIP3   OH243816   5.040   3.395  11.953  0.3700 -0.1162 -0.2203
 7442TIP3    H143817   5.103   3.326  11.935 -0.2919 -0.6023 -0.6932
 7442TIP3    H243818   5.033   3.443  11.871 -0.7311 -0.7725 -0.5294
 7443TIP3   OH243819   2.755   2.382   5.998  0.1285 -0.0404 -0.0671
 7443TIP3    H143820   2.842   2.344   6.008  0.4408  0.2499 -1.4386
 7443TIP3    H243821   2.697   2.308   5.985  0.3886 -0.1733 -0.4918
 7444TIP3   OH243822   6.471   6.405  11.162 -0.0585 -0.2920  0.0772
 7444TIP3    H143823   6.418   6.384  11.239 -1.4731  0.1511 -0.7391
 7444TIP3    H243824   6.432   6.353  11.092  0.8019 -0.1929 -0.4875
 7445TIP3   OH243825   5.946   2.093   0.985  0.8336 -0.0255 -0.2514
 7445TIP3    H143826   5.862   2.107   0.941 -0.2973  1.4621  2.1584
 7445TIP3    H243827   5.982   2.014   0.945 -1.3114 -0.2203 -1.9401
 7446TIP3   OH243828   4.780   5.206   1.184  0.7790  0.1275  0.3047
 7446TIP3    H143829   4.829   5.263   1.243 -0.4501  0.4837  1.0332
 7446TIP3    H243830   4.694   5.197   1.227 -0.2232  0.5562 -1.5276
 7447TIP3   OH243831   2.077   2.780   2.342  0.2859  0.5353  0.7625
 7447TIP3    H143832   2.022   2.727   2.284  0.4142 -0.0345  1.1529
 7447TIP3    H243833   2.060   2.745   2.430  1.4118  0.2200  0.8689
 7448TIP3   OH243834   3.019   2.172  13.943  0.2931  0.4464  0.5308
 7448TIP3    H143835   3.070   2.246  13.911  3.1039 -1.6534 -0.3387
 7448TIP3    H243836   3.073   2.135  14.013  0.4160 -2.2725 -0.8545
 7449TIP3   OH243837   0.381   4.830  11.598  0.1053 -1.0121  0.6056
 7449TIP3    H143838   0.450   4.787  11.547  0.4872 -0.3294  0.5338
 7449TIP3    H243839   0.323   4.867  11.531  1.3352  1.0536  0.6196
 7450TIP3   OH243840   4.918   5.366  17.108  0.0601  0.6427 -0.4466
 7450TIP3    H143841   4.964   5.287  17.138  0.9391  0.8766 -1.1758
 7450TIP3    H243842   4.826   5.339  17.106  0.1295  0.1684  1.0072
 7451TIP3   OH243843   1.681   2.238   1.117  0.3741 -0.4883  0.1903
 7451TIP3    H143844   1.658   2.148   1.096  0.4664 -0.2491 -1.0391
 7451TIP3    H243845   1.604   2.274   1.160 -0.5067 -0.5395 -1.2670
 7452TIP3   OH243846   4.790   4.564  15.054  0.2103  0.2067  0.9038
 7452TIP3    H143847   4.717   4.537  14.997 -0.4556  1.5447  1.0926
 7452TIP3    H243848   4.854   4.603  14.994  0.2581  0.0914  0.8786
 7453TIP3   OH243849   5.531   3.377  11.427 -0.6576 -0.8530 -0.0771
 7453TIP3    H143850   5.477   3.314  11.475  0.7777 -1.8809  0.2416
 7453TIP3    H243851   5.586   3.417  11.494  1.7689 -2.7090 -0.8399
 7454TIP3   OH243852   4.124   6.218  17.066 -0.4119 -0.4407  0.0431
 7454TIP3    H143853   4.120   6.192  17.159  0.3142  0.1573  0.2539
 7454TIP3    H243854   4.038   6.255  17.048 -0.4948 -0.3751  0.5491
 7455TIP3   OH243855   0.443   0.261  12.213 -0.2792 -0.4373  0.3854
 7455TIP3    H143856   0.353   0.242  12.184 -1.0866  0.4463  2.1866
 7455TIP3    H243857   0.466   0.342  12.169 -0.7652 -0.1265  0.6927
 7456TIP3   OH243858   6.088   1.123  16.183 -0.1264  0.2341  0.2469
 7456TIP3    H143859   6.033   1.048  16.203  0.6550 -0.6697 -0.8821
 7456TIP3    H243860   6.137   1.139  16.263  0.6916 -1.3355  0.0973
 7457TIP3   OH243861   3.893   2.820   0.182 -0.3247 -0.5281 -0.7789
 7457TIP3    H143862   3.846   2.889   0.135 -3.2273 -1.8346  0.0013
 7457TIP3    H243863   3.901   2.853   0.271 -1.1190 -0.8883 -0.5650
 7458TIP3   OH243864   4.074   6.798   2.856  0.0102 -0.1639  0.2671
 7458TIP3    H143865   4.080   6.878   2.803  1.1862 -1.6470 -1.9577
 7458TIP3    H243866   4.138   6.811   2.926 -0.7655  1.3603  0.7468
 7459TIP3   OH243867   3.277   1.894   3.889 -0.4427 -0.2729 -0.0958
 7459TIP3    H143868   3.294   1.816   3.941  1.7836 -0.7479 -1.3984
 7459TIP3    H243869   3.213   1.944   3.940  1.3996 -0.8026  2.9724
 7460TIP3   OH243870   4.397   5.866   3.127  0.1739  0.2432 -0.2091
 7460TIP3    H143871   4.413   5.884   3.220  1.0300 -0.2514 -0.2477
 7460TIP3    H243872   4.484   5.854   3.090 -0.2173 -1.2676 -0.7254
 7461TIP3   OH243873   3.389   6.691   1.759  0.2028 -0.2331  0.1941
 7461TIP3    H143874   3.479   6.674   1.730  0.0565  1.0667 -1.1776
 7461TIP3    H243875   3.391   6.680   1.854  1.7143 -0.6004  0.1402
 7462TIP3   OH243876   1.292   1.711  12.994  0.3440  0.5425 -0.5064
 7462TIP3    H143877   1.262   1.801  12.977  0.9235  1.1546  1.4552
 7462TIP3    H243878   1.386   1.719  13.006  0.0671  0.2770  2.7506
 7463TIP3   OH243879   1.531   4.726  14.522  0.2154  0.4708  0.9662
 7463TIP3    H143880   1.522   4.707  14.428 -1.7917  2.8049  0.5760
 7463TIP3    H243881   1.625   4.725  14.538  0.5553 -1.1341 -0.7868
 7464TIP3   OH243882   1.035   6.420  14.463  0.5255  0.2966 -0.9331
 7464TIP3    H143883   0.957   6.465  14.497  0.4948 -0.9592  0.7909
 7464TIP3    H243884   1.107   6.480  14.483  0.3529  0.1165  0.3293
 7465TIP3   OH243885   2.154   5.131  11.892  0.5552  0.0401  0.6836
 7465TIP3    H143886   2.141   5.209  11.839 -0.4041 -0.2240  0.4999
 7465TIP3    H243887   2.177   5.164  11.979  2.4869  0.4683  0.0440
 7466TIP3   OH243888   4.453   1.527   4.655 -0.3339  0.1522 -0.4620
 7466TIP3    H143889   4.482   1.608   4.613 -1.4337  1.3681  0.9884
 7466TIP3    H243890   4.377   1.553   4.708  0.4143 -1.4555  1.5457
 7467TIP3   OH243891   2.993   5.220  17.251 -0.0104 -0.0785  0.1988
 7467TIP3    H143892   2.959   5.306  17.275 -1.0137 -0.5220  0.4200
 7467TIP3    H243893   2.973   5.211  17.158  0.2222 -0.0186  0.1426
 7468TIP3   OH243894   3.069   5.018  16.298 -0.0159 -0.1293  0.4011
 7468TIP3    H143895   3.000   4.952  16.286 -0.9746  0.7856  0.6680
 7468TIP3    H243896   3.028   5.100  16.269  0.7556  0.5371  1.1619
 7469TIP3   OH243897   3.314   2.265  11.134 -0.4585  0.1214 -0.2955
 7469TIP3    H143898   3.258   2.197  11.097  0.9392  0.5021 -3.3765
 7469TIP3    H243899   3.403   2.235  11.118  0.2130  1.5473  0.5548
 7470TIP3   OH243900   0.310   6.255  13.488 -0.0124 -0.3026  0.1066
 7470TIP3    H143901   0.349   6.279  13.404  3.6448  0.0571  1.7083
 7470TIP3    H243902   0.253   6.329  13.510 -0.7698 -0.2528 -1.8229
 7471TIP3   OH243903   4.779   6.023   2.087 -0.2344 -0.2783 -0.0207
 7471TIP3    H143904   4.732   5.950   2.046 -0.1309 -0.0026 -0.6356
 7471TIP3    H243905   4.870   5.993   2.091 -0.4924 -0.9718  1.5255
 7472TIP3   OH243906   2.928   5.261  12.187  0.3728 -0.4644 -0.7674
 7472TIP3    H143907   2.926   5.165  12.185  2.4980 -0.7944  2.9792
 7472TIP3    H243908   3.022   5.282  12.183  0.0216  1.3683 -0.0960
 7473TIP3   OH243909   4.891   6.286  13.875  0.1493  0.1306 -0.0899
 7473TIP3    H143910   4.951   6.340  13.823  1.2200 -1.1064 -0.1888
 7473TIP3    H243911   4.888   6.330  13.960  1.7896 -0.1434  0.1423
 7474TIP3   OH243912   5.399   1.707  16.963 -0.7391 -0.1180  0.1439
 7474TIP3    H143913   5.415   1.614  16.944 -0.6767 -0.3756  1.3977
 7474TIP3    H243914   5.447   1.724  17.043  1.9455  1.8618 -1.7335
 7475TIP3   OH243915   5.105   3.641   1.473 -0.3291  0.2218  0.3223
 7475TIP3    H143916   5.018   3.669   1.443 -0.4254 -0.3237  0.0749
 7475TIP3    H243917   5.090   3.605   1.560 -0.6914 -1.6180 -0.4566
 7476TIP3   OH243918   2.653   3.553  16.989 -0.0334  0.0114 -0.2290
 7476TIP3    H143919   2.675   3.465  16.960 -0.2430 -0.2311  0.3452
 7476TIP3    H243920   2.561   3.549  17.013  0.4153 -0.1141  1.6069
 7477TIP3   OH243921   5.073   5.268  12.462  0.0111  0.3889  0.8117
 7477TIP3    H143922   5.100   5.202  12.526 -1.7979 -0.0558  1.1991
 7477TIP3    H243923   5.132   5.256  12.388  1.9929  0.7312  2.2574
 7478TIP3   OH243924   4.673   3.247   2.422  0.1631 -0.4131 -0.1795
 7478TIP3    H143925   4.713   3.228   2.506  3.0760  0.7115 -1.2028
 7478TIP3    H243926   4.685   3.342   2.410 -1.9526 -0.1923 -1.0500
 7479TIP3   OH243927   0.473   4.652   3.256 -0.2288 -0.1054 -1.3683
 7479TIP3    H143928   0.423   4.659   3.175 -1.2508 -0.1967 -0.7693
 7479TIP3    H243929   0.510   4.739   3.269 -0.9407  0.2116 -1.3916
 7480TIP3   OH243930   4.478   1.811   0.783  0.3055  0.3630 -0.3743
 7480TIP3    H143931   4.385   1.795   0.767  0.7858 -0.7263 -2.4407
 7480TIP3    H243932   4.491   1.904   0.766 -0.4282  0.5575  0.1084
 7481TIP3   OH243933   1.030   0.917  11.239  0.2029  0.3307  0.5883
 7481TIP3    H143934   1.071   1.003  11.234 -0.4825  0.6805  0.7773
 7481TIP3    H243935   0.937   0.936  11.256 -0.1083 -0.4190 -0.2039
 7482TIP3   OH243936   2.296   4.777   3.118  0.3414  0.1826  0.2573
 7482TIP3    H143937   2.243   4.848   3.154 -0.5466 -0.8676  1.1034
 7482TIP3    H243938   2.232   4.710   3.093  1.0085  0.4900 -2.4921
 7483TIP3   OH243939   0.563   2.149   3.524 -0.3780 -0.0259 -0.2388
 7483TIP3    H143940   0.620   2.072   3.518  0.2070  0.2420  1.4162
 7483TIP3    H243941   0.596   2.208   3.457 -1.0135 -1.2943 -1.7321
 7484TIP3   OH243942   5.554   6.066   0.989  0.0613  0.2849 -0.1735
 7484TIP3    H143943   5.588   5.999   0.930 -0.5182 -1.2000  1.1040
 7484TIP3    H243944   5.463   6.079   0.962 -0.7206 -1.6252  1.3717
 7485TIP3   OH243945   2.127   3.706   4.370  0.1908  0.6912 -0.0021
 7485TIP3    H143946   2.083   3.745   4.295  1.6803  0.2932 -1.1333
 7485TIP3    H243947   2.082   3.622   4.382  1.4305 -0.3319 -2.0088
 7486TIP3   OH243948   0.815   4.407  14.967 -0.1837  0.2957 -0.5576
 7486TIP3    H143949   0.745   4.399  15.032 -0.3596  0.6199 -0.7060
 7486TIP3    H243950   0.847   4.497  14.976 -1.3983  0.9257 -2.1098
 7487TIP3   OH243951   2.564   1.807   2.941 -0.3139  0.1254  0.4037
 7487TIP3    H143952   2.496   1.773   2.999 -1.9630  1.4709 -0.6264
 7487TIP3    H243953   2.595   1.887   2.984 -0.9899  0.7047 -0.1516
 7488TIP3   OH243954   6.081   2.949  11.359  0.1548  0.8988  0.1233
 7488TIP3    H143955   6.043   2.896  11.430  0.1386 -0.6008 -0.9491
 7488TIP3    H243956   6.009   2.959  11.296  1.0908 -0.8632 -1.3235
 7489TIP3   OH243957   1.658   1.238   0.436  0.2894 -1.0103  0.2347
 7489TIP3    H143958   1.566   1.245   0.463  0.2672 -0.5795  0.0579
 7489TIP3    H243959   1.681   1.326   0.405  0.4146 -1.4020 -0.8296
 7490TIP3   OH243960   5.334   2.302   0.707  0.0486 -0.1134  0.2345
 7490TIP3    H143961   5.316   2.259   0.624 -1.4713 -1.7934  1.3539
 7490TIP3    H243962   5.344   2.230   0.770  2.4895  1.0535  1.3160
 7491TIP3   OH243963   2.338   4.671   0.937 -0.4774  0.3255 -0.1994
 7491TIP3    H143964   2.305   4.750   0.981  0.1484 -0.7318  2.3730
 7491TIP3    H243965   2.268   4.645   0.877 -0.5659  2.9568 -1.3873
 7492TIP3   OH243966   1.432   4.769  14.053  0.6510  0.3816  0.7123
 7492TIP3    H143967   1.490   4.762  14.129 -0.1605 -0.6957  1.2715
 7492TIP3    H243968   1.387   4.684  14.051 -0.5022  0.9945 -0.0215
 7493TIP3   OH243969   4.227   2.484  15.526 -0.7421  0.2764 -0.0120
 7493TIP3    H143970   4.148   2.439  15.498 -1.1566  0.9153  0.1288
 7493TIP3    H243971   4.226   2.567  15.478 -1.6934  1.6072  2.1788
 7494TIP3   OH243972   4.170   3.703  11.215  0.3362 -0.1643 -0.1755
 7494TIP3    H143973   4.143   3.780  11.265  0.5278  0.5305 -1.1112
 7494TIP3    H243974   4.088   3.656  11.199  0.2624 -0.3325  0.6922
 7495TIP3   OH243975   4.115   0.311   1.505  0.1819  0.1552 -0.4767
 7495TIP3    H143976   4.065   0.296   1.586  0.3682  1.1284 -0.1642
 7495TIP3    H243977   4.055   0.359   1.449  0.4415  0.4875 -0.4716
 7496TIP3   OH243978   5.290   5.994  16.420 -0.6993  0.7514  0.4020
 7496TIP3    H143979   5.359   6.018  16.483  0.2959  0.3656 -0.5170
 7496TIP3    H243980   5.303   5.900  16.405 -2.6410  0.2326  1.6460
 7497TIP3   OH243981   5.453   3.804  17.046  0.0913  0.2776 -0.0157
 7497TIP3    H143982   5.447   3.832  17.138  0.6648  0.3510 -0.0009
 7497TIP3    H243983   5.383   3.853  17.002 -0.2207  0.2043  0.3913
 7498TIP3   OH243984   1.061   6.534  15.079  0.3536  0.1445 -0.1297
 7498TIP3    H143985   0.994   6.519  15.145 -0.0775  0.3675 -0.5135
 7498TIP3    H243986   1.107   6.613  15.108  1.4787 -0.8614  0.9577
 7499TIP3   OH243987   0.508   6.225  15.766 -0.8073  0.3646  0.0534
 7499TIP3    H143988   0.596   6.241  15.730 -0.0945 -1.7599  0.7477
 7499TIP3    H243989   0.523   6.189  15.853 -2.3655 -0.4975  0.0035
 7500TIP3   OH243990   0.015   1.648  10.928  0.5679 -0.5998 -0.1731
 7500TIP3    H143991   0.081   1.608  10.871  3.4375  0.4886  2.1281
 7500TIP3    H243992   0.015   1.740  10.903  2.4948  0.0757  1.9055
 7501TIP3   OH243993   5.172   6.438  12.603 -0.1907 -0.4174  0.3744
 7501TIP3    H143994   5.170   6.502  12.532  0.1436  0.1380  0.8563
 7501TIP3    H243995   5.256   6.452  12.646 -0.7841 -0.0816  1.4739
 7502TIP3   OH243996   5.087   1.254   1.669 -0.0618 -0.0608  0.6077
 7502TIP3    H143997   5.149   1.219   1.604  0.3393 -0.6514  1.2830
 7502TIP3    H243998   5.075   1.182   1.731 -0.8544  0.3097  0.8996
 7503TIP3   OH243999   6.355   5.387  14.084 -0.0452  0.5550  0.1200
 7503TIP3    H144000   6.295   5.384  14.158  1.6682 -2.5247  1.5828
 7503TIP3    H244001   6.317   5.452  14.025 -3.3383  0.6482  2.1007
 7504TIP3   OH244002   2.833   0.507   2.694 -0.5181  0.1936  0.1166
 7504TIP3    H144003   2.910   0.557   2.666 -0.9980  0.8124 -0.1362
 7504TIP3    H244004   2.795   0.474   2.612 -0.6300  0.0599  0.2218
 7505TIP3   OH244005   3.389   2.727   3.966  0.2943  0.1883  0.0411
 7505TIP3    H144006   3.469   2.780   3.959  0.3461  0.0959 -0.0641
 7505TIP3    H244007   3.405   2.670   4.042  1.2502 -1.3905 -1.2672
 7506TIP3   OH244008   0.271   6.267  16.635 -0.2423 -0.2369 -0.1857
 7506TIP3    H144009   0.307   6.264  16.724  0.2163 -0.1714 -0.3614
 7506TIP3    H244010   0.309   6.346  16.597  1.5708 -1.5112 -1.2478
 7507TIP3   OH244011   6.039   1.671  12.896 -0.2526 -0.4069 -0.6040
 7507TIP3    H144012   5.989   1.596  12.864 -0.7698 -1.0493  1.5365
 7507TIP3    H244013   5.990   1.748  12.865 -0.7183 -0.9784 -1.3110
 7508TIP3   OH244014   6.003   4.978  11.202  0.1555  0.0725  0.0404
 7508TIP3    H144015   6.069   5.038  11.236  0.9366  0.2087 -1.5916
 7508TIP3    H244016   6.046   4.937  11.127 -1.1937 -0.7728 -0.2857
 7509TIP3   OH244017   2.997   3.645  13.990 -0.0856  0.5798  0.3064
 7509TIP3    H144018   2.990   3.740  13.980  1.4431  0.5803 -1.1769
 7509TIP3    H244019   3.091   3.628  13.995 -0.2465 -0.9617 -0.9473
 7510TIP3   OH244020   3.178   4.721   5.311 -0.5753  0.3601  0.6104
 7510TIP3    H144021   3.103   4.688   5.361  0.7749 -2.7922  0.8052
 7510TIP3    H244022   3.226   4.776   5.372 -0.7425 -0.7108  1.7590
 7511TIP3   OH244023   5.785   1.992  14.710 -0.2402 -0.0744 -0.1932
 7511TIP3    H144024   5.825   2.077  14.695 -2.4623  1.2221  0.7741
 7511TIP3    H244025   5.836   1.954  14.783 -0.3024  1.1994  0.5368
 7512TIP3   OH244026   4.351   5.137  13.827 -0.5017  0.5125  0.5397
 7512TIP3    H144027   4.396   5.221  13.832 -0.4575  0.6741 -1.6450
 7512TIP3    H244028   4.268   5.156  13.784 -0.3420 -0.5886 -0.3004
 7513TIP3   OH244029   5.215   1.521   1.290 -0.5241  0.0547  0.3159
 7513TIP3    H144030   5.171   1.441   1.319 -0.9350  0.5678  1.1777
 7513TIP3    H244031   5.275   1.542   1.362 -0.3282  0.4479  0.0377
 7514TIP3   OH244032   3.011   4.815  11.335  1.1598 -0.3531 -0.0061
 7514TIP3    H144033   2.975   4.726  11.338 -1.7421  0.6421 -1.4170
 7514TIP3    H244034   3.029   4.831  11.242 -0.3231  1.1879 -0.0676
 7515TIP3   OH244035   4.137   2.964  14.098  0.0804  0.9336  0.2627
 7515TIP3    H144036   4.176   2.887  14.140 -2.9691 -2.5404 -2.6204
 7515TIP3    H244037   4.179   2.967  14.012 -0.5086  1.9902  0.0050
 7516TIP3   OH244038   1.689   1.381   0.000  0.0035 -0.5044 -0.5916
 7516TIP3    H144039   1.628   1.343  -0.064 -0.7503 -0.1519 -0.1010
 7516TIP3    H244040   1.736   1.305   0.036 -0.9092 -0.9107 -0.2137
 7517TIP3   OH244041   2.045   2.145  13.462  0.3787  0.4033 -1.0149
 7517TIP3    H144042   1.966   2.177  13.505  0.6495 -0.0627 -0.1676
 7517TIP3    H244043   2.036   2.175  13.371 -1.7081 -1.3093 -1.4518
 7518TIP3   OH244044   0.619   4.434  16.840 -0.3209 -0.3443  0.3657
 7518TIP3    H144045   0.570   4.513  16.858  1.9960  1.4357 -0.6171
 7518TIP3    H244046   0.593   4.373  16.909 -2.9065  0.8632  0.5743
 7519TIP3   OH244047   5.600   0.504   3.958  0.6123  0.4078  0.4978
 7519TIP3    H144048   5.650   0.543   4.030 -1.0349  0.0432  1.8962
 7519TIP3    H244049   5.524   0.561   3.948  1.1125  0.7987 -1.4167
 7520TIP3   OH244050   0.247   6.345  16.251  0.2716 -0.2211  0.0431
 7520TIP3    H144051   0.308   6.294  16.303 -0.0859 -0.9161 -0.2155
 7520TIP3    H244052   0.194   6.392  16.315  2.1690  1.7502  0.2755
 7521TIP3   OH244053   4.703   6.623   3.831 -0.3321 -0.2358  0.3461
 7521TIP3    H144054   4.764   6.561   3.871  2.1508  3.0468  2.1055
 7521TIP3    H244055   4.759   6.686   3.786 -2.7556  0.4539 -1.9377
 7522TIP3   OH244056   6.112   2.699  13.297  0.3889 -0.5398  0.1872
 7522TIP3    H144057   6.160   2.733  13.372  0.1750  2.9115 -1.0600
 7522TIP3    H244058   6.134   2.758  13.225 -1.5128 -2.0629 -1.7900
 7523TIP3   OH244059   4.112   3.081  13.801 -0.3173  0.1482 -0.2340
 7523TIP3    H144060   4.021   3.050  13.809 -0.1756  0.0980  1.5568
 7523TIP3    H244061   4.108   3.149  13.734 -1.2761 -1.3247 -1.7384
 7524TIP3   OH244062   5.065   0.212  16.922 -0.0580  0.0479  0.1588
 7524TIP3    H144063   5.160   0.228  16.925  0.0019 -0.3630  0.7858
 7524TIP3    H244064   5.028   0.276  16.983  0.0158 -1.0229  1.3695
 7525TIP3   OH244065   1.859   6.014   1.878 -0.3455 -0.2125  0.3382
 7525TIP3    H144066   1.927   6.067   1.919 -0.3967  0.1438 -0.0308
 7525TIP3    H244067   1.815   6.074   1.817  0.7318 -1.1036 -1.4039
 7526TIP3   OH244068   3.830   3.760  11.643  0.1706 -0.0914 -0.4031
 7526TIP3    H144069   3.864   3.769  11.554 -1.4873 -2.2253 -1.3345
 7526TIP3    H244070   3.756   3.700  11.634  1.2072 -2.0506  2.7051
 7527TIP3   OH244071   0.888   0.401   6.339 -0.3238 -0.4257 -0.1047
 7527TIP3    H144072   0.864   0.485   6.380 -0.2550  0.0308 -0.9783
 7527TIP3    H244073   0.969   0.420   6.293 -1.0167 -0.6111 -1.4282
 7528TIP3   OH244074   4.724   5.911   0.137 -0.2120 -0.1645 -0.3543
 7528TIP3    H144075   4.688   5.873   0.217  1.9900 -1.2544  0.2156
 7528TIP3    H244076   4.659   5.974   0.108 -1.0117  0.3854  2.3876
 7529TIP3   OH244077   2.023   1.819   3.010  0.3103  0.4108 -0.1443
 7529TIP3    H144078   2.090   1.845   3.073  0.4510  2.5135 -1.0920
 7529TIP3    H244079   2.072   1.798   2.930  0.0318 -0.8942  0.0085
 7530TIP3   OH244080   2.632   3.394   2.709 -0.1059 -0.1004  0.2914
 7530TIP3    H144081   2.542   3.407   2.740  0.4187  0.5352  1.5938
 7530TIP3    H244082   2.636   3.442   2.627 -1.0403 -0.3990  0.0553
 7531TIP3   OH244083   6.104   6.558  13.812 -0.3496  0.9161  0.1976
 7531TIP3    H144084   6.151   6.479  13.840 -2.4041  0.1612  1.8512
 7531TIP3    H244085   6.113   6.618  13.886 -1.8005  0.7983  0.4950
 7532TIP3   OH244086   6.526   3.449   2.247 -0.0053  0.3796  0.1837
 7532TIP3    H144087   6.469   3.500   2.305 -0.7111 -0.0907 -0.0853
 7532TIP3    H244088   6.608   3.499   2.245 -0.9181  1.9527 -0.6917
 7533TIP3   OH244089   5.658   5.169  16.376 -0.2457  0.6689  0.0247
 7533TIP3    H144090   5.674   5.225  16.451  0.7155  0.2247  0.1656
 7533TIP3    H244091   5.565   5.148  16.381 -0.8655  2.9904 -0.5714
 7534TIP3   OH244092   5.817   3.331  10.629  0.2940 -0.5040  0.9172
 7534TIP3    H144093   5.875   3.257  10.608  0.2182 -0.3602  0.2028
 7534TIP3    H244094   5.850   3.403  10.575 -1.5505 -0.8474 -0.7632
 7535TIP3   OH244095   5.331   6.616   1.988  0.0998 -0.5983 -0.0443
 7535TIP3    H144096   5.393   6.629   2.060 -0.5022 -0.7024  0.4999
 7535TIP3    H244097   5.387   6.605   1.911  0.7500 -0.3305  0.3757
 7536TIP3   OH244098   5.473   4.816  15.875  0.1365 -0.4276  0.3365
 7536TIP3    H144099   5.498   4.852  15.960  2.3234 -0.7684 -0.0945
 7536TIP3    H244100   5.422   4.738  15.895 -1.2302  0.6608  1.2874
 7537TIP3   OH244101   4.763   3.316  16.490 -0.6425 -0.1489  0.0033
 7537TIP3    H144102   4.849   3.305  16.530 -0.8634 -1.2449  0.2024
 7537TIP3    H244103   4.735   3.403  16.518  0.4153  0.2444 -0.1058
 7538TIP3   OH244104   3.259   5.565   2.007 -0.0223  0.3970  0.0001
 7538TIP3    H144105   3.332   5.627   2.010 -0.1206  0.5045  0.1614
 7538TIP3    H244106   3.225   5.572   1.918  0.7873 -0.3678 -0.3788
 7539TIP3   OH244107   0.724   1.179   1.426  0.5710 -0.3465 -0.2918
 7539TIP3    H144108   0.765   1.157   1.343 -1.1592 -0.4811 -1.1674
 7539TIP3    H244109   0.662   1.107   1.441 -0.4857  0.6321  0.1284
 7540TIP3   OH244110   5.661   1.660   0.117 -0.0373  0.3390 -0.0463
 7540TIP3    H144111   5.597   1.707   0.064  1.3989  1.8770 -0.5340
 7540TIP3    H244112   5.710   1.606   0.055  0.8207  1.1823 -0.1391
 7541TIP3   OH244113   6.348   6.289   2.078  0.3909 -0.1227  0.2626
 7541TIP3    H144114   6.298   6.323   2.005  1.5757 -0.2140 -0.6158
 7541TIP3    H244115   6.323   6.197   2.084  0.0682 -0.0393  0.1666
 7542TIP3   OH244116   6.300   5.607  13.535  0.5495  0.0393 -0.7803
 7542TIP3    H144117   6.237   5.670  13.569 -0.7658 -1.4276 -0.3303
 7542TIP3    H244118   6.324   5.641  13.449 -2.0780 -0.0701 -1.6572
 7543TIP3   OH244119   0.175   5.038   5.656  0.0408 -0.0735 -0.0308
 7543TIP3    H144120   0.119   5.052   5.732  0.5640 -0.5948  0.4629
 7543TIP3    H244121   0.186   4.943   5.651 -0.0136 -0.0475 -0.7759
 7544TIP3   OH244122   3.714   4.722   1.912  0.0164 -0.3673 -0.0800
 7544TIP3    H144123   3.723   4.629   1.890  0.6129 -0.6114  1.1088
 7544TIP3    H244124   3.796   4.761   1.881  0.1765 -0.4228  0.2646
 7545TIP3   OH244125   5.015   3.596   1.736  0.0735  0.2103 -0.4649
 7545TIP3    H144126   4.928   3.556   1.735  0.1792 -0.0214 -1.0359
 7545TIP3    H244127   5.068   3.539   1.791 -0.2310  0.5763  0.2227
 7546TIP3   OH244128   2.287   6.591  11.234 -0.2821  1.1267 -0.6042
 7546TIP3    H144129   2.370   6.576  11.280 -0.0934 -0.5608 -1.4253
 7546TIP3    H244130   2.312   6.606  11.143 -0.8374  1.5811 -0.6917
 7547TIP3   OH244131   3.071   3.007  16.523  0.8773  0.2560  0.2998
 7547TIP3    H144132   3.162   2.980  16.514  0.4331 -1.0569 -0.7057
 7547TIP3    H244133   3.057   3.070  16.452  0.8549 -0.0014  0.0721
 7548TIP3   OH244134   5.544   3.104  15.778  0.4230  0.1923  0.0613
 7548TIP3    H144135   5.555   3.091  15.872  0.8190  0.4991  0.0588
 7548TIP3    H244136   5.504   3.191  15.771  0.2527  0.1076 -0.0512
 7549TIP3   OH244137   3.848   0.514  11.596  0.1757  0.3899  0.9545
 7549TIP3    H144138   3.783   0.452  11.629 -0.3727 -0.6146 -1.7507
 7549TIP3    H244139   3.932   0.473  11.616 -0.1187 -0.1513  1.1111
 7550TIP3   OH244140   5.975   1.078  12.777 -0.0453 -0.3924 -0.1462
 7550TIP3    H144141   6.057   1.048  12.738  0.0889  0.3850 -0.4939
 7550TIP3    H244142   5.925   0.998  12.795  1.5381 -1.0179  1.8077
 7551TIP3   OH244143   4.941   3.413  11.289 -0.1227 -0.4348  0.0942
 7551TIP3    H144144   4.900   3.337  11.331  0.7201 -0.8199  0.2546
 7551TIP3    H244145   4.959   3.384  11.200  0.0764 -0.3788  0.1154
 7552TIP3   OH244146   0.817   5.033  16.133 -0.6607 -0.2988  0.1280
 7552TIP3    H144147   0.825   5.084  16.052 -0.7180 -0.5752 -0.0542
 7552TIP3    H244148   0.733   5.060  16.170 -1.1145 -0.9232 -0.4310
 7553TIP3   OH244149   2.253   2.983   1.175 -0.1142  0.3181  0.4104
 7553TIP3    H144150   2.259   2.947   1.086 -1.6745 -0.0011  0.4144
 7553TIP3    H244151   2.169   2.953   1.208  0.4096  0.4910  1.9988
 7554TIP3   OH244152   0.765   2.500   1.271  0.4097  0.2883  0.9704
 7554TIP3    H144153   0.747   2.415   1.229  0.0322 -0.6366  2.8821
 7554TIP3    H244154   0.697   2.558   1.237 -0.5102 -0.6980  1.0576
 7555TIP3   OH244155   0.879   3.536   2.994  0.2010 -0.3185  0.5657
 7555TIP3    H144156   0.791   3.545   3.030 -0.6920 -2.0391 -1.0100
 7555TIP3    H244157   0.930   3.603   3.040 -0.9305 -1.8608  4.5005
 7556TIP3   OH244158   0.383   2.847  12.049  0.1619 -0.3900 -0.5058
 7556TIP3    H144159   0.459   2.790  12.038  1.7074  1.6167 -0.5811
 7556TIP3    H244160   0.309   2.793  12.019  1.7600 -1.7933 -2.1657
 7557TIP3   OH244161   6.810   0.484  17.212 -0.2942  0.2002 -1.0467
 7557TIP3    H144162   6.891   0.463  17.164 -1.5142 -0.5198 -2.8867
 7557TIP3    H244163   6.754   0.526  17.147 -1.0554  1.6705  0.4763
 7558TIP3   OH244164   4.003   1.357  17.063 -0.2516  0.2816 -0.0263
 7558TIP3    H144165   3.957   1.407  16.995  0.3782 -1.8405 -2.1455
 7558TIP3    H244166   4.083   1.326  17.019  1.0510  0.2410  2.2430
 7559TIP3   OH244167   6.507   3.587   1.107 -0.0962  0.1869 -0.8134
 7559TIP3    H144168   6.538   3.546   1.026  0.2530 -1.5027  0.1377
 7559TIP3    H244169   6.435   3.644   1.078  0.7627  0.5096 -2.4396
 7560TIP3   OH244170   3.717   3.314   6.669  0.0445  0.3407  0.1147
 7560TIP3    H144171   3.774   3.244   6.638  0.0267  0.2695  0.2420
 7560TIP3    H244172   3.765   3.395   6.650  1.1604  0.2125  2.1426
 7561TIP3   OH244173   3.140   5.252   0.620 -0.6793 -0.2724  0.2912
 7561TIP3    H144174   3.107   5.330   0.574 -0.0409  0.3740  0.9099
 7561TIP3    H244175   3.067   5.224   0.675 -1.1751 -0.5759 -0.4982
 7562TIP3   OH244176   0.075   1.639   1.339 -0.2155 -0.4531 -0.3561
 7562TIP3    H144177   0.103   1.548   1.343  1.3462  0.0281  0.3557
 7562TIP3    H244178   0.154   1.688   1.317 -0.2852  0.9981  2.2052
 7563TIP3   OH244179   4.192   6.672   5.402 -0.2720  0.4565 -0.3212
 7563TIP3    H144180   4.128   6.646   5.336  0.6723 -0.3447 -0.9410
 7563TIP3    H244181   4.277   6.651   5.363  0.3348  0.6675  0.8463
 7564TIP3   OH244182   3.238   5.897  14.288  0.1362 -0.3414  0.5938
 7564TIP3    H144183   3.247   5.948  14.368  1.0962 -1.2888  1.1078
 7564TIP3    H244184   3.322   5.853  14.277  0.4672  0.7153 -1.6068
 7565TIP3   OH244185   0.242   0.049   3.262 -0.6693  0.1951 -0.0526
 7565TIP3    H144186   0.307  -0.020   3.248 -0.7006 -0.0647  1.0098
 7565TIP3    H244187   0.283   0.128   3.227  0.8212  0.3161  1.8091
 7566TIP3   OH244188   4.298   2.203   6.162 -0.1384 -0.1726 -0.0430
 7566TIP3    H144189   4.385   2.185   6.198 -0.7574 -0.1222  1.5221
 7566TIP3    H244190   4.298   2.158   6.077  1.2728 -0.4853  0.0917
 7567TIP3   OH244191   2.080   3.329   0.692  0.3942  0.2523  0.0130
 7567TIP3    H144192   2.154   3.288   0.737  0.4144  0.9428  0.6481
 7567TIP3    H244193   2.077   3.418   0.729  0.3626  0.8216 -1.3100
 7568TIP3   OH244194   0.914   4.758  12.670  0.3379  0.5021 -0.0826
 7568TIP3    H144195   1.001   4.755  12.630  0.3813 -1.4374  0.0435
 7568TIP3    H244196   0.856   4.727  12.601 -0.1472  1.1082  0.0568
 7569TIP3   OH244197   6.651   3.108  16.317 -0.3952 -0.4050  0.0381
 7569TIP3    H144198   6.692   3.022  16.315 -0.8131 -0.7350  2.5362
 7569TIP3    H244199   6.702   3.157  16.382 -0.3782  1.1447 -1.0951
 7570TIP3   OH244200   2.164   5.027   2.176  0.2943  0.2115 -0.1313
 7570TIP3    H144201   2.098   4.958   2.175  0.2723  0.2412 -1.0506
 7570TIP3    H244202   2.114   5.109   2.170  0.1142  0.5315  3.4392
 7571TIP3   OH244203   4.674   0.435   0.807  0.0765  0.1154  0.5587
 7571TIP3    H144204   4.732   0.483   0.748 -0.7046 -0.4709 -0.7557
 7571TIP3    H244205   4.731   0.373   0.852  0.5442 -0.2285 -0.4748
 7572TIP3   OH244206   0.053   1.986  12.354  0.1383  0.0460  0.5138
 7572TIP3    H144207   0.061   2.006  12.261  2.1088 -2.0993  0.1413
 7572TIP3    H244208   0.135   2.016  12.393  0.2035 -0.9286  1.1707
 7573TIP3   OH244209   1.744   1.414  11.740 -0.6189  0.4560 -0.0963
 7573TIP3    H144210   1.822   1.362  11.759 -0.7814  0.1135 -0.3655
 7573TIP3    H244211   1.670   1.356  11.758 -0.8081  0.7009 -0.0749
 7574TIP3   OH244212   5.310   2.815   3.365 -0.2383  0.1310 -0.1419
 7574TIP3    H144213   5.271   2.867   3.294  1.0431  0.2984 -0.7528
 7574TIP3    H244214   5.236   2.775   3.408 -1.3358  2.5853  0.4489
 7575TIP3   OH244215   4.378   4.944   3.724 -0.2574  0.2038 -0.0576
 7575TIP3    H144216   4.370   4.856   3.759  1.8551  0.2240  0.6612
 7575TIP3    H244217   4.326   4.999   3.782 -1.2952 -0.4998 -0.3028
 7576TIP3   OH244218   3.006   1.172  13.658 -0.1149 -0.2264  0.1815
 7576TIP3    H144219   3.064   1.246  13.675  1.2563 -0.3984 -3.0400
 7576TIP3    H244220   3.065   1.099  13.642 -1.4198 -1.6704  1.6015
 7577TIP3   OH244221   4.718   1.833   7.054 -0.3669 -0.2907  0.0725
 7577TIP3    H144222   4.649   1.868   6.998 -1.7197 -0.1051  1.7732
 7577TIP3    H244223   4.799   1.871   7.020 -1.5621  3.1967  0.7615
 7578TIP3   OH244224   0.751   3.034  16.035  0.2244  0.4707  0.0986
 7578TIP3    H144225   0.735   3.124  16.062 -1.1260  0.5071 -0.7168
 7578TIP3    H244226   0.672   3.009  15.987  0.7659 -0.9971 -0.0840
 7579TIP3   OH244227   6.013   5.358   2.541  0.8605  0.3844 -0.0068
 7579TIP3    H144228   5.974   5.287   2.490 -1.9725  2.3755 -0.8330
 7579TIP3    H244229   6.086   5.389   2.488 -0.1329  0.4107 -1.4079
 7580TIP3   OH244230   1.782   3.779  11.601 -0.6894  0.3102  0.1910
 7580TIP3    H144231   1.711   3.719  11.626 -1.6132  0.8524 -1.0402
 7580TIP3    H244232   1.755   3.815  11.516  1.8298 -0.7251 -1.1760
 7581TIP3   OH244233   3.549   0.698   1.201  0.0554 -0.5297 -0.1237
 7581TIP3    H144234   3.624   0.751   1.174  0.1380 -0.4601  0.2408
 7581TIP3    H244235   3.478   0.727   1.143  0.8046 -2.0360 -1.8767
 7582TIP3   OH244236   4.869   2.613  16.501  0.3006 -0.3864  0.2467
 7582TIP3    H144237   4.929   2.649  16.566 -0.6139 -0.4809  1.1709
 7582TIP3    H244238   4.783   2.649  16.525 -0.4540 -2.2868  0.5391
 7583TIP3   OH244239   5.414   3.687   5.548 -0.3554  0.6743  0.1215
 7583TIP3    H144240   5.491   3.637   5.523  0.0174  2.6171 -3.2061
 7583TIP3    H244241   5.354   3.678   5.474 -1.4905  2.6788  0.7168
 7584TIP3   OH244242   4.888   3.995  15.154  0.1666  0.0617 -0.5218
 7584TIP3    H144243   4.909   3.995  15.247  0.0640  0.8665 -0.4934
 7584TIP3    H244244   4.803   4.039  15.148 -0.6813 -1.5295 -0.8228
 7585TIP3   OH244245   0.516   0.483  15.742 -0.4443 -0.3497  0.2299
 7585TIP3    H144246   0.515   0.435  15.660 -0.9138 -1.8470  1.0668
 7585TIP3    H244247   0.488   0.571  15.719 -2.6076 -1.2557 -0.9540
 7586TIP3   OH244248   3.579   3.109   2.295  0.5896  0.5236 -0.1130
 7586TIP3    H144249   3.631   3.030   2.281  1.8199  0.9442  1.7834
 7586TIP3    H244250   3.636   3.181   2.264 -0.8896  0.6960 -2.7594
 7587TIP3   OH244251   1.753   2.553  13.326  0.1703  0.1979 -0.5489
 7587TIP3    H144252   1.682   2.597  13.374  0.6932  0.8260 -0.3257
 7587TIP3    H244253   1.778   2.617  13.259 -1.0756 -0.9721 -2.2039
 7588TIP3   OH244254   4.940   6.089   4.031 -0.2132 -0.2819  0.0327
 7588TIP3    H144255   4.996   6.107   4.106  0.2893 -1.1964 -0.1081
 7588TIP3    H244256   4.851   6.085   4.067  0.0745 -1.2026  0.6687
 7589TIP3   OH244257   3.195   2.889  14.720  0.0109  0.0754 -0.2584
 7589TIP3    H144258   3.157   2.975  14.704 -1.6964 -0.7333 -0.7174
 7589TIP3    H244259   3.154   2.832  14.656 -1.3966 -1.7550  2.1016
 7590TIP3   OH244260   1.484   6.432  12.438  0.2908  0.7485  0.3282
 7590TIP3    H144261   1.528   6.405  12.357 -0.0008 -0.6295  0.6026
 7590TIP3    H244262   1.400   6.467  12.408  0.3792  0.6849 -0.0076
 7591TIP3   OH244263   0.400   3.646  15.673 -0.3870 -0.1879  0.3406
 7591TIP3    H144264   0.436   3.735  15.676 -0.7238 -0.0619  2.4091
 7591TIP3    H244265   0.461   3.594  15.725  0.2405 -1.3979 -1.5025
 7592TIP3   OH244266   5.111   6.426   4.006  0.3181  0.2638  0.0888
 7592TIP3    H144267   5.129   6.468   4.090 -1.0422 -0.6594  0.8812
 7592TIP3    H244268   5.188   6.446   3.953  0.9992  1.2842  1.3758
 7593TIP3   OH244269   4.327   6.780   5.906  0.5816 -0.4616 -0.3115
 7593TIP3    H144270   4.388   6.847   5.937  1.2826 -2.4217  3.1193
 7593TIP3    H244271   4.378   6.729   5.843  0.7901  0.8190 -1.2157
 7594TIP3   OH244272   1.927   3.933   5.553  0.5122 -0.5374 -0.5330
 7594TIP3    H144273   1.913   4.028   5.557 -0.4248 -0.5606 -2.2290
 7594TIP3    H244274   1.938   3.915   5.460 -1.7401 -2.3899 -0.5308
 7595TIP3   OH244275   2.902   5.223  16.192  0.0201  0.0123 -0.4843
 7595TIP3    H144276   2.831   5.202  16.131 -0.4273 -0.2586  0.1191
 7595TIP3    H244277   2.863   5.287  16.252  1.1938  2.2362 -1.9773
 7596TIP3   OH244278   5.987   3.606  12.835 -0.0940  0.1937  0.8087
 7596TIP3    H144279   5.938   3.530  12.866 -1.4089  0.3575 -0.7571
 7596TIP3    H244280   5.964   3.614  12.743  1.7418  1.1952  0.3834
 7597TIP3   OH244281   0.516   6.508  13.535 -0.1744  0.6697 -0.1555
 7597TIP3    H144282   0.484   6.461  13.612 -1.2925  1.5970 -0.0279
 7597TIP3    H244283   0.437   6.529  13.485  0.5663 -0.6529 -2.0328
 7598TIP3   OH244284   2.201   3.147  16.031 -0.7692  0.3604 -0.1043
 7598TIP3    H144285   2.278   3.189  15.991 -0.6966  0.6882  0.3676
 7598TIP3    H244286   2.159   3.101  15.959 -0.0516  0.0626 -0.3391
 7599TIP3   OH244287   3.785   5.757  13.422 -0.0397 -0.2733 -0.2128
 7599TIP3    H144288   3.756   5.688  13.482  0.5734 -1.0011 -0.7336
 7599TIP3    H244289   3.752   5.729  13.336  1.3058 -0.5961 -0.6393
 7600TIP3   OH244290   3.265   4.287   1.789  0.2930 -0.3581  0.4352
 7600TIP3    H144291   3.267   4.381   1.771 -0.0318 -0.2785  0.7799
 7600TIP3    H244292   3.333   4.249   1.733  0.2337  0.0462  0.0887
 7601TIP3   OH244293   5.867   2.427   5.962 -0.4762  0.0457  0.1226
 7601TIP3    H144294   5.959   2.435   5.988 -0.9025 -0.0367  1.7725
 7601TIP3    H244295   5.834   2.517   5.963 -0.5060  0.0366 -0.0978
 7602TIP3   OH244296   5.944   0.597   1.837  0.5015  0.0876 -0.1037
 7602TIP3    H144297   5.878   0.542   1.793 -0.0682 -0.4722  1.4065
 7602TIP3    H244298   5.896   0.639   1.908  1.0596  2.1539 -0.8841
 7603TIP3   OH244299   6.316   2.961  15.970  0.2762 -0.1668  0.0779
 7603TIP3    H144300   6.282   2.996  16.052  0.1007 -1.5365  0.6220
 7603TIP3    H244301   6.247   2.977  15.906 -0.1732 -0.3179  0.5165
 7604TIP3   OH244302   3.164   4.949  14.104  0.1177 -0.0414 -0.2326
 7604TIP3    H144303   3.095   4.995  14.151 -1.1029 -0.8101 -1.1935
 7604TIP3    H244304   3.217   5.018  14.065 -1.1182  0.5731 -0.8745
 7605TIP3   OH244305   1.268   5.872  10.906  0.1145 -0.4661  0.2815
 7605TIP3    H144306   1.281   5.891  10.814 -0.5504 -0.2153  0.2345
 7605TIP3    H244307   1.234   5.953  10.943  0.6947 -0.4615  0.8167
 7606TIP3   OH244308   6.448   3.966  13.605 -0.1881  0.4743  0.1060
 7606TIP3    H144309   6.538   3.988  13.585  0.0587 -0.1455  0.5094
 7606TIP3    H244310   6.426   4.021  13.680 -0.2234  0.7908 -0.1350
 7607TIP3   OH244311   0.215   2.013   2.577  0.2044  0.0899 -0.4358
 7607TIP3    H144312   0.173   2.098   2.567 -0.8658 -0.0255  2.2070
 7607TIP3    H244313   0.264   2.020   2.659  3.5614 -0.5722 -2.1971
 7608TIP3   OH244314   6.447   5.604  14.364  0.4155  0.0960 -0.0567
 7608TIP3    H144315   6.376   5.544  14.387 -0.3487  1.3007  0.8325
 7608TIP3    H244316   6.417   5.647  14.283 -0.3826  1.3614  0.8790
 7609TIP3   OH244317   4.900   5.498  10.457  0.1195  0.4412  0.1927
 7609TIP3    H144318   4.966   5.465  10.518 -1.4173 -1.1893  1.0697
 7609TIP3    H244319   4.913   5.446  10.377 -0.7967 -0.7505  0.7746
 7610TIP3   OH244320   0.508   5.800   5.112 -0.0655 -0.2216  0.5069
 7610TIP3    H144321   0.599   5.825   5.128 -0.2658  0.1541  1.0867
 7610TIP3    H244322   0.474   5.773   5.197 -0.0387 -1.9441  0.0199
 7611TIP3   OH244323   3.453   4.363   0.712  0.0253 -0.0600 -0.5123
 7611TIP3    H144324   3.395   4.400   0.645  0.7063 -0.9372 -1.6093
 7611TIP3    H244325   3.537   4.351   0.667  1.0527  1.0881  1.0197
 7612TIP3   OH244326   3.391   3.630  16.701  0.3941 -0.8058  0.9206
 7612TIP3    H144327   3.452   3.691  16.662 -0.0847 -0.8090  0.1367
 7612TIP3    H244328   3.348   3.679  16.771  0.1965 -0.3257  0.4648
 7613TIP3   OH244329   0.857   1.211  12.167  0.7927 -0.1231  0.2611
 7613TIP3    H144330   0.813   1.273  12.109 -0.3816  0.0566  1.3087
 7613TIP3    H244331   0.879   1.137  12.111 -1.4025 -0.4833 -0.1791
 7614TIP3   OH244332   0.345   0.095  12.486  0.3498  0.4327 -0.3106
 7614TIP3    H144333   0.314   0.017  12.440  1.7881 -1.0982  1.2212
 7614TIP3    H244334   0.353   0.161  12.417  0.1541 -1.0783 -1.8430
 7615TIP3   OH244335   4.556   3.735  14.578  0.3810 -0.2199 -0.5073
 7615TIP3    H144336   4.508   3.763  14.656  1.4551 -1.1886  0.5388
 7615TIP3    H244337   4.513   3.781  14.506 -1.2465 -0.0300  0.5319
 7616TIP3   OH244338   4.335   2.169   1.937  0.1252  0.2821  0.1978
 7616TIP3    H144339   4.391   2.114   1.993  0.5116  0.6238  0.1528
 7616TIP3    H244340   4.342   2.257   1.975 -1.5881  0.0699  1.1107
 7617TIP3   OH244341   4.648   1.730  14.703  0.4769  0.4925 -0.1329
 7617TIP3    H144342   4.570   1.677  14.718 -0.5167  1.5902 -1.1984
 7617TIP3    H244343   4.690   1.691  14.626  1.1904 -0.3043  0.6416
 7618TIP3   OH244344   1.910   1.551  15.561 -0.3134  0.8612 -0.4144
 7618TIP3    H144345   1.998   1.547  15.599 -0.1469 -0.2929 -0.8778
 7618TIP3    H244346   1.852   1.567  15.636  0.0989 -0.4717  0.2283
 7619TIP3   OH244347   3.425   0.234   3.859  0.5820  0.0035 -0.1242
 7619TIP3    H144348   3.441   0.193   3.775  1.3689 -0.0527  0.0407
 7619TIP3    H244349   3.338   0.273   3.852  0.5929 -0.1165 -0.9086
 7620TIP3   OH244350   5.648   3.195   3.884 -0.5742  0.4898 -0.3353
 7620TIP3    H144351   5.564   3.228   3.917  0.6513  2.3573  1.1035
 7620TIP3    H244352   5.713   3.230   3.944  1.2231 -1.4919 -1.0136
 7621TIP3   OH244353   2.211   3.645  17.088 -0.2445 -0.1627 -0.1081
 7621TIP3    H144354   2.262   3.567  17.108  0.9947  0.2238 -1.5806
 7621TIP3    H244355   2.207   3.648  16.993  0.3395  1.9103 -0.1286
 7622TIP3   OH244356   1.110   3.922  15.035  0.6221 -0.1805  0.4474
 7622TIP3    H144357   1.182   3.871  15.073  1.9319  1.7655  0.7182
 7622TIP3    H244358   1.112   4.005  15.082  0.0650  1.0269 -1.5524
 7623TIP3   OH244359   0.521   5.321  10.626  0.0969  0.0724 -0.3007
 7623TIP3    H144360   0.572   5.384  10.677 -0.5882  1.2803 -1.0444
 7623TIP3    H244361   0.430   5.341  10.648 -0.1112 -1.7828  0.7055
 7624TIP3   OH244362   6.661   3.065  14.996 -0.7618 -0.4591  0.2109
 7624TIP3    H144363   6.715   3.144  15.011 -0.0255 -1.2335  1.8997
 7624TIP3    H244364   6.572   3.098  14.992 -0.3198  0.6774 -1.0228
 7625TIP3   OH244365   6.640   2.947  16.583  0.3088 -0.0057  0.0456
 7625TIP3    H144366   6.559   2.992  16.606 -0.0749  0.3581 -1.8852
 7625TIP3    H244367   6.708   2.996  16.629 -0.1769  2.1438 -1.3906
 7626TIP3   OH244368   5.434   4.213  14.556 -0.1838  0.3247  0.1996
 7626TIP3    H144369   5.517   4.248  14.522 -0.5247 -0.7674 -1.9681
 7626TIP3    H244370   5.452   4.121  14.573 -0.9973  0.0124 -0.5450
 7627TIP3   OH244371   5.214   6.496  16.308  0.2137  0.3594  0.1948
 7627TIP3    H144372   5.216   6.439  16.384  1.6972 -0.9172 -0.7464
 7627TIP3    H244373   5.142   6.462  16.254 -1.1338  1.5442  1.1870
 7628TIP3   OH244374   3.967   3.273   5.046  0.1447 -0.2350 -0.0704
 7628TIP3    H144375   3.926   3.225   4.973  0.2916 -0.9284  0.2901
 7628TIP3    H244376   3.964   3.365   5.019 -1.6295 -0.2532 -0.0702
 7629TIP3   OH244377   3.440   0.573  16.826  0.1261  0.2884  0.2117
 7629TIP3    H144378   3.507   0.519  16.868  0.3157  0.5736  0.2747
 7629TIP3    H244379   3.488   0.649  16.793 -0.1178  0.3484 -0.0042
 7630TIP3   OH244380   4.522   1.927  14.833 -0.3564  0.0632  0.1052
 7630TIP3    H144381   4.593   1.864  14.842  0.6756  1.4472  2.9096
 7630TIP3    H244382   4.548   1.983  14.760  1.9179  1.0044  1.5398
 7631TIP3   OH244383   5.365   5.888   5.238  0.1237  0.4580 -0.2250
 7631TIP3    H144384   5.362   5.936   5.321  0.5250  0.0256  0.0491
 7631TIP3    H244385   5.388   5.798   5.264 -2.2716 -0.3079 -0.5564
 7632TIP3   OH244386   0.340   4.319  14.365 -0.0099  1.0057 -0.4280
 7632TIP3    H144387   0.288   4.377  14.418  0.8807 -0.3057  2.0427
 7632TIP3    H244388   0.286   4.241  14.353  0.6608  0.3366  0.6784
 7633TIP3   OH244389   3.611   2.059  15.460  0.0700 -0.0259 -0.0328
 7633TIP3    H144390   3.595   1.980  15.408  0.2524 -0.7731  1.0268
 7633TIP3    H244391   3.603   2.031  15.551  1.9300  0.7566  0.4299
 7634TIP3   OH244392   1.373   3.110  13.066 -0.1780 -0.2916 -0.6625
 7634TIP3    H144393   1.303   3.174  13.082  0.4843  0.1819  0.4369
 7634TIP3    H244394   1.451   3.149  13.105  0.9374 -0.3947 -2.6355
 7635TIP3   OH244395   5.932   1.897   4.992 -0.4859  0.1948 -0.1050
 7635TIP3    H144396   5.945   1.820   4.937  2.3575  0.8803 -0.5958
 7635TIP3    H244397   5.911   1.967   4.930 -0.2956  0.3484 -0.0001
 7636TIP3   OH244398   5.248   3.656   4.975 -0.1645 -0.2989 -0.1229
 7636TIP3    H144399   5.182   3.591   4.955 -1.5084  1.2304 -0.9071
 7636TIP3    H244400   5.314   3.645   4.906  0.6215 -2.0450  0.8503
 7637TIP3   OH244401   3.445   5.955  15.532  0.8407 -0.4744 -0.0776
 7637TIP3    H144402   3.410   5.888  15.473  1.3076  0.6112 -1.6725
 7637TIP3    H244403   3.523   5.916  15.569  0.3098 -1.3383  0.1523
 7638TIP3   OH244404   4.134   1.297   5.743  0.4763  0.1126  0.3361
 7638TIP3    H144405   4.118   1.381   5.699 -0.7566  0.2879  1.0766
 7638TIP3    H244406   4.190   1.249   5.682  1.6169  1.6401  0.0897
 7639TIP3   OH244407   5.049   5.775  14.620 -0.2401  0.3101 -0.1805
 7639TIP3    H144408   5.095   5.718  14.559 -0.1799  0.5156 -0.3301
 7639TIP3    H244409   4.956   5.760  14.602 -0.2818 -1.1577  1.0890
 7640TIP3   OH244410   5.290   3.348  13.997 -0.0963  0.4403  0.2364
 7640TIP3    H144411   5.331   3.335  13.912 -0.4371 -0.3147  0.1752
 7640TIP3    H244412   5.267   3.260  14.026  1.3856  0.5281  1.8119
 7641TIP3   OH244413   5.850   3.863   1.804  0.3079  0.2820  0.5117
 7641TIP3    H144414   5.878   3.953   1.789  0.8681  0.3408  1.8022
 7641TIP3    H244415   5.784   3.846   1.736  1.9386  0.8328 -1.2769
 7642TIP3   OH244416   5.681   1.538  15.950  0.4745 -0.2588  0.2236
 7642TIP3    H144417   5.620   1.525  15.878  0.1658  1.9550 -0.0061
 7642TIP3    H244418   5.733   1.458  15.953  1.3769  0.0284 -3.3365
 7643TIP3   OH244419   0.737   1.478  14.450  0.3559  0.3359  0.0067
 7643TIP3    H144420   0.685   1.415  14.401 -0.8811  1.5846 -0.3511
 7643TIP3    H244421   0.745   1.441  14.537 -0.2198 -0.3746 -0.2368
 7644TIP3   OH244422   1.682   3.230   3.466 -0.5807  0.7691  0.7514
 7644TIP3    H144423   1.614   3.268   3.523 -1.6243 -1.9858  1.4803
 7644TIP3    H244424   1.758   3.219   3.524 -0.7027  0.5483  0.8684
 7645TIP3   OH244425   2.141   2.270   3.215  0.1389  0.0751  0.2845
 7645TIP3    H144426   2.163   2.233   3.130  0.1656 -1.8802  1.1106
 7645TIP3    H244427   2.116   2.361   3.195  0.2210 -0.3064 -1.7779
 7646TIP3   OH244428   5.131   4.439  15.751 -1.0019  0.7601 -0.2865
 7646TIP3    H144429   5.194   4.439  15.678 -1.3002 -0.9384 -0.5739
 7646TIP3    H244430   5.050   4.472  15.712 -1.1852 -0.2282 -0.7785
 7647TIP3   OH244431   0.778   1.993   3.488 -0.6067  0.4995  0.1213
 7647TIP3    H144432   0.808   2.017   3.401 -0.8505  1.1798  0.2163
 7647TIP3    H244433   0.857   1.963   3.533 -0.7341 -1.3216 -0.7938
 7648TIP3   OH244434   6.471   1.488   1.616 -0.3376 -0.1797  0.0098
 7648TIP3    H144435   6.502   1.505   1.527  3.1930 -3.5496  0.3202
 7648TIP3    H244436   6.401   1.423   1.605  0.9070 -1.5059 -0.3440
 7649TIP3   OH244437   3.251   5.771   4.965 -0.6750  0.1960 -0.7503
 7649TIP3    H144438   3.238   5.676   4.955 -0.4009  0.3667 -3.2916
 7649TIP3    H244439   3.174   5.810   4.923 -1.3166  1.1518  1.2015
 7650TIP3   OH244440   4.854   5.006   3.195 -0.1206 -0.0564 -0.8930
 7650TIP3    H144441   4.804   5.026   3.274 -1.8175 -1.0252 -1.6734
 7650TIP3    H244442   4.789   4.980   3.130  0.9653  2.6609 -3.3223
 7651TIP3   OH244443   1.891   5.970   1.440 -0.1885 -0.4112  0.1985
 7651TIP3    H144444   1.894   6.045   1.499  0.8516 -0.2210 -0.0686
 7651TIP3    H244445   1.975   5.973   1.393  1.1345 -3.2290  2.0559
 7652TIP3   OH244446   6.798   1.197   2.242  0.1172 -0.2156  0.6195
 7652TIP3    H144447   6.885   1.185   2.280  0.6735  0.7982 -0.2702
 7652TIP3    H244448   6.815   1.241   2.158 -1.3117  0.9136  0.8847
 7653TIP3   OH244449   5.043   3.398   1.929  0.3545  0.4846 -0.0765
 7653TIP3    H144450   5.109   3.371   1.993  0.6539 -1.4934 -1.1252
 7653TIP3    H244451   5.048   3.331   1.860 -1.4666  1.3168 -1.0929
 7654TIP3   OH244452   4.455   2.852   3.809  0.4207  0.8817 -0.1906
 7654TIP3    H144453   4.378   2.893   3.848 -0.9646 -0.6395 -1.1961
 7654TIP3    H244454   4.496   2.922   3.759  0.3817  2.0111  1.2877
 7655TIP3   OH244455   4.603   4.220   6.725 -0.6269 -0.0710  0.1479
 7655TIP3    H144456   4.560   4.155   6.669 -0.3701 -1.0564  1.0736
 7655TIP3    H244457   4.696   4.198   6.722 -0.4565  0.6176  0.0234
 7656TIP3   OH244458   5.602   6.129  11.599  0.1054 -0.0358 -0.2885
 7656TIP3    H144459   5.674   6.067  11.589  0.1122  0.1853 -1.8737
 7656TIP3    H244460   5.523   6.075  11.589 -0.0134 -0.3395  1.7887
 7657TIP3   OH244461   3.210   1.099  12.005 -0.0966  0.5074 -0.1612
 7657TIP3    H144462   3.132   1.147  12.034 -0.2395  0.6879 -0.8483
 7657TIP3    H244463   3.184   1.007  12.012 -0.1517  0.5498  0.2238
 7658TIP3   OH244464   3.738   3.511   3.569  0.4025 -0.4108 -0.1062
 7658TIP3    H144465   3.809   3.545   3.624  0.8964 -1.0000 -0.3713
 7658TIP3    H244466   3.772   3.429   3.534 -0.8721 -1.3383  0.7504
 7659TIP3   OH244467   6.216   5.478   2.311 -0.3963 -0.1216 -0.2841
 7659TIP3    H144468   6.262   5.546   2.262  2.2024 -2.1176 -0.8246
 7659TIP3    H244469   6.269   5.464   2.389 -0.5481 -1.8886 -0.4581
 7660TIP3   OH244470   4.307   0.695   5.871  0.3906  0.5179  0.4587
 7660TIP3    H144471   4.339   0.702   5.781  1.6618 -3.2521  0.4629
 7660TIP3    H244472   4.260   0.612   5.874 -1.4608  1.5177  2.8425
 7661TIP3   OH244473   0.187   1.689   1.080 -0.0817 -0.0849  0.6422
 7661TIP3    H144474   0.095   1.665   1.082  0.1197 -0.8684  1.0078
 7661TIP3    H244475   0.230   1.613   1.041  0.3025  0.6479 -0.4131
 7662TIP3   OH244476   5.042   0.980   4.885 -0.1515  0.1196  0.2652
 7662TIP3    H144477   5.130   1.017   4.891  0.0571 -0.4623  0.9598
 7662TIP3    H244478   4.987   1.039   4.937  0.4476 -1.2827  2.6384
 7663TIP3   OH244479   1.936   3.668  12.956  0.0710 -0.0604  1.0198
 7663TIP3    H144480   1.996   3.726  12.909 -0.1907 -0.7170 -0.1650
 7663TIP3    H244481   1.861   3.659  12.898 -0.6955 -0.1506  1.9915
 7664TIP3   OH244482   1.519   4.418   5.462 -0.5323  0.2371  0.8516
 7664TIP3    H144483   1.613   4.401   5.453 -0.7292 -0.1462 -0.9589
 7664TIP3    H244484   1.488   4.349   5.520  0.1692 -0.1599  0.7718
 7665TIP3   OH244485   1.657   1.244   1.725  0.1372  0.1937  0.0267
 7665TIP3    H144486   1.590   1.183   1.693 -1.6160  2.0959 -0.1909
 7665TIP3    H244487   1.609   1.302   1.784  2.2822 -0.2118  2.3344
 7666TIP3   OH244488   1.366   4.495   4.254  0.6495  0.2161  0.2310
 7666TIP3    H144489   1.368   4.410   4.208  1.1567  0.9945 -1.2576
 7666TIP3    H244490   1.447   4.495   4.305  0.2112 -0.5532  0.9599
 7667TIP3   OH244491   0.145   1.429  16.916  0.4678  0.7312  0.3552
 7667TIP3    H144492   0.108   1.398  16.834  0.9905  1.7801 -0.3016
 7667TIP3    H244493   0.111   1.369  16.983 -2.0643  1.3750 -0.2512
 7668TIP3   OH244494   6.047   1.977  10.313  0.1036 -0.2929  0.2806
 7668TIP3    H144495   6.119   2.040  10.319 -0.4305  0.6019 -1.7797
 7668TIP3    H244496   6.005   1.980  10.399  1.9281 -0.1398  1.2147
 7669TIP3   OH244497   3.212   1.834   0.200 -0.0691  0.0997 -0.4453
 7669TIP3    H144498   3.189   1.763   0.259  0.2820 -0.0118 -0.4424
 7669TIP3    H244499   3.205   1.796   0.112  0.1952  0.0411 -0.4401
 7670TIP3   OH244500   6.331   5.064   5.753 -0.1228 -0.4985 -0.5301
 7670TIP3    H144501   6.367   5.000   5.813 -1.4077 -1.4609 -0.7292
 7670TIP3    H244502   6.274   5.119   5.807 -0.1766 -0.4742 -0.6101
 7671TIP3   OH244503   0.263   0.338   5.848  0.2730 -0.3188 -0.3533
 7671TIP3    H144504   0.248   0.333   5.754  1.7495  0.7458 -0.6708
 7671TIP3    H244505   0.336   0.278   5.864 -0.0181 -0.5494  0.1394
 7672TIP3   OH244506   4.449   6.815  16.683  0.0374 -0.4338 -0.3282
 7672TIP3    H144507   4.445   6.844  16.774  2.8172 -0.9022  0.0338
 7672TIP3    H244508   4.463   6.720  16.688  0.2896 -0.4538 -1.2295
 7673TIP3   OH244509   6.161   4.965   2.290  0.2146 -0.4724 -0.4812
 7673TIP3    H144510   6.175   5.038   2.229  0.7509 -0.1201  0.0594
 7673TIP3    H244511   6.070   4.938   2.274  0.0614  0.2113 -0.7984
 7674TIP3   OH244512   5.235   6.552  13.442  0.0548  0.3570  0.3018
 7674TIP3    H144513   5.311   6.608  13.432 -0.2731  0.7213 -0.2160
 7674TIP3    H244514   5.163   6.612  13.463 -0.7010  0.3934 -2.1042
 7675TIP3   OH244515   3.274   4.547   0.082  0.3346  0.0374 -0.0908
 7675TIP3    H144516   3.282   4.454   0.062  0.5043  0.3099 -1.3777
 7675TIP3    H244517   3.354   4.567   0.132 -0.6758 -0.9198  2.0444
 7676TIP3   OH244518   1.586   4.476   1.213 -0.1697 -0.3715  0.2585
 7676TIP3    H144519   1.640   4.520   1.147 -0.3525 -1.2955 -0.5243
 7676TIP3    H244520   1.631   4.492   1.296  0.0613  0.8198 -0.0735
 7677TIP3   OH244521   5.482   4.880  16.147  0.1636 -0.4046  0.7078
 7677TIP3    H144522   5.532   4.944  16.199  3.5459 -0.4852 -2.1479
 7677TIP3    H244523   5.503   4.796  16.186  1.3895 -0.3283  0.2497
 7678TIP3   OH244524   1.243   3.141   3.398  0.5336  0.0991  0.0637
 7678TIP3    H144525   1.238   3.183   3.484 -0.5497  0.1909 -0.0271
 7678TIP3    H244526   1.294   3.061   3.412 -1.8604 -1.2950  1.3969
 7679TIP3   OH244527   6.684   2.707  11.457 -0.5469 -0.0420  0.0703
 7679TIP3    H144528   6.629   2.690  11.534 -0.3836  0.8013  0.3879
 7679TIP3    H244529   6.622   2.715  11.385 -0.7841  0.1999  0.3010
 7680TIP3   OH244530   5.872   6.682  13.362 -0.0917 -0.0337  0.7454
 7680TIP3    H144531   5.931   6.739  13.411  0.6918 -0.2412  0.0606
 7680TIP3    H244532   5.885   6.595  13.400  0.0119 -0.0716  0.6235
 7681TIP3   OH244533   2.059   1.632   0.496 -0.2425 -0.4325  0.0801
 7681TIP3    H144534   2.007   1.577   0.437  1.2272 -2.1851  0.3580
 7681TIP3    H244535   2.096   1.700   0.439  1.9421 -2.6284 -1.3338
 7682TIP3   OH244536   1.027   4.996  11.224 -0.9516  0.0345  0.4517
 7682TIP3    H144537   1.056   5.034  11.307  1.0275  2.6943 -1.2823
 7682TIP3    H244538   1.099   4.938  11.198 -1.5967 -0.8488  0.5811
 7683TIP3   OH244539   5.226   0.165  14.208 -0.3237 -0.0334  0.3343
 7683TIP3    H144540   5.291   0.116  14.158 -0.9049  2.0434 -2.7187
 7683TIP3    H244541   5.145   0.115  14.197 -0.0109 -0.7557  1.1667
 7684TIP3   OH244542   2.336   5.374  12.317 -0.6347  0.2608  0.2119
 7684TIP3    H144543   2.282   5.452  12.305  0.2986  0.8948  0.0976
 7684TIP3    H244544   2.277   5.312  12.360 -1.3757  1.0325  0.3516
 7685TIP3   OH244545   4.610   6.087  13.141 -1.4937  0.1451 -0.1480
 7685TIP3    H144546   4.535   6.098  13.200  0.2761  0.3323  2.1810
 7685TIP3    H244547   4.633   5.995  13.148  0.2978  0.6698  1.5320
 7686TIP3   OH244548   0.297   6.086   5.256  0.4665 -0.0374  0.6840
 7686TIP3    H144549   0.235   6.077   5.183  2.1466 -0.6998 -0.7310
 7686TIP3    H244550   0.241   6.094   5.333 -1.3850 -0.0333 -0.5719
 7687TIP3   OH244551   4.731   4.907   4.655 -0.1321 -0.1922  0.6403
 7687TIP3    H144552   4.758   4.968   4.723 -1.4654  2.3309 -0.9539
 7687TIP3    H244553   4.650   4.867   4.688 -1.0402  1.3846  0.3950
 7688TIP3   OH244554   3.758   3.058  17.237 -0.4732 -0.1810  0.0683
 7688TIP3    H144555   3.664   3.076  17.244 -0.9423 -1.5890 -1.6128
 7688TIP3    H244556   3.782   3.089  17.150  1.0821  1.7215  1.0893
 7689TIP3   OH244557   0.551   0.849   0.128 -0.2832 -0.2153 -0.5429
 7689TIP3    H144558   0.590   0.763   0.111  1.2476  0.2336  0.4867
 7689TIP3    H244559   0.487   0.833   0.197  0.0295 -0.5278 -0.3193
 7690TIP3   OH244560   4.837   6.686  17.031  0.2286 -0.0458  0.1586
 7690TIP3    H144561   4.919   6.640  17.013  0.1533 -0.7473  1.5121
 7690TIP3    H244562   4.860   6.754  17.094  0.1407  1.1587 -1.0596
 7691TIP3   OH244563   0.214   1.831  14.666  0.0085  0.0354  0.3780
 7691TIP3    H144564   0.191   1.842  14.574  0.4291 -1.6697  0.0469
 7691TIP3    H244565   0.309   1.843  14.668  0.2678 -1.7515  0.2500
 7692TIP3   OH244566   4.521   3.841  14.178 -0.1816  0.1794 -0.0046
 7692TIP3    H144567   4.437   3.857  14.222 -0.2659  0.1081 -0.1400
 7692TIP3    H244568   4.559   3.767  14.225 -0.9573 -0.8908 -1.0077
 7693TIP3   OH244569   2.778   3.875  13.774 -0.2104 -0.0518  0.0244
 7693TIP3    H144570   2.811   3.948  13.722  1.9193 -1.7611 -1.2159
 7693TIP3    H244571   2.742   3.915  13.853  2.3338  2.2587  0.1446
 7694TIP3   OH244572   2.978   2.890   1.115 -0.5451 -0.2626  0.2586
 7694TIP3    H144573   2.896   2.852   1.145 -0.6055 -1.9460 -1.8087
 7694TIP3    H244574   2.974   2.981   1.143 -3.7854  0.1077 -1.0341
 7695TIP3   OH244575   6.186   5.736   5.863  0.7334  0.0027  0.0823
 7695TIP3    H144576   6.190   5.662   5.924  1.1711  0.6068  0.8094
 7695TIP3    H244577   6.249   5.714   5.795 -0.8606 -1.3962 -1.0099
 7696TIP3   OH244578   4.282   3.604  12.223 -0.2174 -0.0924  0.2339
 7696TIP3    H144579   4.261   3.665  12.294  1.1884 -2.2052  2.5783
 7696TIP3    H244580   4.220   3.533  12.233  1.5749 -1.6147  0.9835
 7697TIP3   OH244581   5.088   6.193   0.595  0.2552 -0.2490 -0.0835
 7697TIP3    H144582   5.014   6.188   0.534  1.3276 -0.6566 -1.3912
 7697TIP3    H244583   5.092   6.286   0.619 -0.1206 -0.0604 -0.7135
 7698TIP3   OH244584   3.793   2.724   1.225 -0.1997 -0.4310  0.3318
 7698TIP3    H144585   3.800   2.819   1.212 -2.0598 -0.1486  1.0976
 7698TIP3    H244586   3.883   2.694   1.231  0.6880  0.6312 -4.1318
 7699TIP3   OH244587   4.200   4.842   2.085  0.4849 -0.4766  0.5530
 7699TIP3    H144588   4.285   4.867   2.050  0.1638  0.0175  0.0973
 7699TIP3    H244589   4.137   4.873   2.019 -0.1506  0.6744  1.6531
 7700TIP3   OH244590   0.990   3.695   2.710  0.4578  0.0567  0.0019
 7700TIP3    H144591   1.039   3.760   2.760 -0.5987  0.9911 -0.1299
 7700TIP3    H244592   0.941   3.646   2.776  2.0221 -1.3303  0.1981
 7701TIP3   OH244593   2.393   2.048  16.320  0.0792  0.5363  0.1866
 7701TIP3    H144594   2.362   2.082  16.404 -1.5411 -0.3758  0.0123
 7701TIP3    H244595   2.434   1.965  16.342 -1.5834 -0.3893 -0.0110
 7702TIP3   OH244596   1.131   3.623  13.667 -0.2910 -0.2981  0.1409
 7702TIP3    H144597   1.160   3.695  13.723 -0.9547  0.8168 -0.9289
 7702TIP3    H244598   1.050   3.592  13.707 -0.8098  0.5513 -0.2510
 7703TIP3   OH244599   0.814   0.116   3.946  0.1162 -0.2381 -0.0996
 7703TIP3    H144600   0.866   0.131   4.025  0.8291  0.3663 -0.6684
 7703TIP3    H244601   0.729   0.087   3.978  0.3183  0.2354  0.8904
 7704TIP3   OH244602   6.666   4.649   0.506 -0.2486  0.4202  0.0649
 7704TIP3    H144603   6.670   4.703   0.584  0.6242 -0.5707  0.7348
 7704TIP3    H244604   6.573   4.645   0.484 -0.2656  2.9474 -0.5863
 7705TIP3   OH244605   6.746   0.350  10.672  0.4974  0.7495  0.3794
 7705TIP3    H144606   6.670   0.303  10.705  0.4546  0.0712 -0.6300
 7705TIP3    H244607   6.807   0.281  10.645  2.0631  1.2551  2.3684
 7706TIP3   OH244608   6.083   3.419   3.804  0.2218 -0.2178 -0.2659
 7706TIP3    H144609   6.107   3.507   3.834 -0.3852 -0.6227  1.4982
 7706TIP3    H244610   6.120   3.414   3.715  1.0701  1.4709 -0.0614
 7707TIP3   OH244611   6.229   2.411  10.611 -0.2658  0.5625 -0.2317
 7707TIP3    H144612   6.179   2.341  10.652 -3.1181  0.5286 -3.3058
 7707TIP3    H244613   6.305   2.367  10.572 -0.9553 -0.4962 -0.4230
 7708TIP3   OH244614   1.584   5.636   3.470  0.5090  0.2367  0.0520
 7708TIP3    H144615   1.599   5.688   3.548  1.1646  0.7038 -0.3791
 7708TIP3    H244616   1.494   5.603   3.480  1.1637 -1.1358  1.8114
 7709TIP3   OH244617   3.844   4.378   1.393  0.2554  0.2371  0.5674
 7709TIP3    H144618   3.886   4.293   1.379 -0.6801  0.0672 -1.6874
 7709TIP3    H244619   3.911   4.442   1.370  0.5237  0.0724  0.8914
 7710TIP3   OH244620   5.538   5.266  14.756  0.4001 -0.1196  0.2982
 7710TIP3    H144621   5.551   5.173  14.734  0.9708 -0.0074  0.1505
 7710TIP3    H244622   5.490   5.264  14.839 -0.3512 -0.5483 -0.1322
 7711TIP3   OH244623   3.432   4.213  13.808 -0.7144 -0.0031  0.2774
 7711TIP3    H144624   3.356   4.269  13.789 -0.3148  0.3067 -0.4464
 7711TIP3    H244625   3.418   4.135  13.755 -1.0500 -0.4064  0.9508
 7712TIP3   OH244626   0.259   2.132   1.103  0.1382  0.0984 -0.0588
 7712TIP3    H144627   0.183   2.143   1.047  0.4604  0.3902 -0.4464
 7712TIP3    H244628   0.239   2.181   1.182 -1.7259 -2.9124  1.5444
 7713TIP3   OH244629   5.387   6.783  16.979 -0.7425 -0.1536  0.7931
 7713TIP3    H144630   5.375   6.842  17.053 -1.0066  0.9018 -0.0538
 7713TIP3    H244631   5.323   6.713  16.993 -0.6030 -0.1111  1.6870
 7714TIP3   OH244632   2.600   6.616   4.326 -0.3802 -0.6833  0.3140
 7714TIP3    H144633   2.622   6.626   4.233 -1.1254  0.3538  0.2446
 7714TIP3    H244634   2.685   6.609   4.370  0.0395  0.7983 -0.2309
 7715TIP3   OH244635   1.792   2.270  16.291 -0.1886  0.2655  0.2162
 7715TIP3    H144636   1.740   2.224  16.225 -0.7442  0.9178  0.1766
 7715TIP3    H244637   1.753   2.357  16.294  1.9498  1.3506 -1.0036
 7716TIP3   OH244638   4.285   4.608   1.370  0.1817  0.0369 -0.0266
 7716TIP3    H144639   4.238   4.683   1.335  1.4583  1.0817  0.4119
 7716TIP3    H244640   4.361   4.645   1.414  1.1910 -1.5442 -0.3238
 7717TIP3   OH244641   3.488   5.190   1.961  0.0480 -0.1880  0.2549
 7717TIP3    H144642   3.402   5.155   1.982  0.8992 -2.0019  0.8850
 7717TIP3    H244643   3.509   5.248   2.035 -0.4233 -0.1176  0.3343
 7718TIP3   OH244644   3.857   6.774   4.829  0.0308  0.2352 -0.2933
 7718TIP3    H144645   3.799   6.767   4.752  0.9170 -0.2637 -0.9328
 7718TIP3    H244646   3.826   6.852   4.875 -1.9831 -0.7179  0.0990
 7719TIP3   OH244647   1.953   0.669  12.402  0.0760  0.1443 -0.3252
 7719TIP3    H144648   1.927   0.707  12.319 -0.6375  1.7156  0.5707
 7719TIP3    H244649   2.031   0.718  12.428  0.3147 -0.3566 -0.0803
 7720TIP3   OH244650   2.036   3.041  15.827 -0.6196  0.6592 -0.2258
 7720TIP3    H144651   1.941   3.036  15.833 -0.5279  0.3787  1.5272
 7720TIP3    H244652   2.061   2.962  15.779 -1.3082  1.1016 -1.3310
 7721TIP3   OH244653   2.581   1.923   1.684  0.7926  0.2927  0.0974
 7721TIP3    H144654   2.635   1.846   1.703 -0.7050 -0.5233  1.2288
 7721TIP3    H244655   2.572   1.923   1.588  2.5041  0.2838 -0.0917
 7722TIP3   OH244656   5.274   6.408  13.057  0.0630 -0.2878 -0.2996
 7722TIP3    H144657   5.192   6.389  13.011  0.3398  0.0719 -0.9468
 7722TIP3    H244658   5.269   6.501  13.077 -0.1625 -0.4934  0.6216
 7723TIP3   OH244659   6.809   6.289  13.656 -0.3658  0.3473  0.1605
 7723TIP3    H144660   6.717   6.305  13.634 -0.4411 -0.3141 -0.0312
 7723TIP3    H244661   6.808   6.209  13.708  0.1952 -0.3152 -0.8035
 7724TIP3   OH244662   1.194   4.182  13.030  0.2683 -0.2920 -0.2821
 7724TIP3    H144663   1.123   4.153  12.973  0.6639 -0.1144 -0.8742
 7724TIP3    H244664   1.154   4.250  13.084  0.0575  0.0014 -0.7999
 7725TIP3   OH244665   3.484   0.167  16.082 -0.0851  0.1873 -0.1305
 7725TIP3    H144666   3.437   0.167  16.166 -2.6564 -1.8758 -1.4277
 7725TIP3    H244667   3.437   0.229  16.028  0.5983  0.3522 -0.5414
 7726TIP3   OH244668   0.593   6.342  11.592 -0.2606  0.0004 -0.2567
 7726TIP3    H144669   0.506   6.310  11.617  0.3988 -2.0162 -0.3636
 7726TIP3    H244670   0.654   6.293  11.647  0.8231  1.7535  0.1875
 7727TIP3   OH244671   1.647   6.281  14.178 -0.0095 -0.2955  0.1054
 7727TIP3    H144672   1.591   6.257  14.252 -0.5143 -1.8253 -0.7278
 7727TIP3    H244673   1.603   6.244  14.101  1.9155 -1.1882 -0.6323
 7728TIP3   OH244674   1.925   1.681   3.706  0.0542  0.1070  0.5638
 7728TIP3    H144675   1.863   1.609   3.698 -1.5015  1.5851 -1.7344
 7728TIP3    H244676   1.994   1.647   3.763 -0.8327 -3.0201 -0.0587
 7729TIP3   OH244677   2.717   4.845  16.851  0.0497 -0.0311  0.2511
 7729TIP3    H144678   2.666   4.764  16.854 -3.1357  1.6710 -1.8181
 7729TIP3    H244679   2.716   4.878  16.941 -2.2307 -0.3084  0.3840
 7730TIP3   OH244680   0.046   3.210   3.456 -0.3721 -0.1063 -0.4415
 7730TIP3    H144681  -0.019   3.248   3.397 -1.6299 -1.0625  0.2553
 7730TIP3    H244682   0.121   3.189   3.400 -0.8152  0.6548 -1.3449
 7731TIP3   OH244683   1.149   0.475  12.068 -0.1549  0.0646 -0.3355
 7731TIP3    H144684   1.166   0.414  12.139 -0.3776 -0.4152 -0.6860
 7731TIP3    H244685   1.234   0.491  12.028 -0.1404 -0.2736 -0.4436
 7732TIP3   OH244686   0.398   3.476   5.986  0.2209  0.6017 -0.2673
 7732TIP3    H144687   0.405   3.471   6.082 -0.4739  0.7436 -0.2084
 7732TIP3    H244688   0.441   3.559   5.963  1.6668 -0.1036 -0.2181
 7733TIP3   OH244689   4.220   2.012   4.916 -0.2329  0.3572 -0.2553
 7733TIP3    H144690   4.174   2.047   4.993  0.2164  0.0597  0.1563
 7733TIP3    H244691   4.177   2.053   4.841 -2.9387 -1.8136 -0.0758
 7734TIP3   OH244692   5.415   4.197  16.200  0.3537  0.2002  0.1575
 7734TIP3    H144693   5.504   4.161  16.206  0.6989  1.1407  0.8383
 7734TIP3    H244694   5.427   4.289  16.178 -0.4666  0.3069  0.1159
 7735TIP3   OH244695   1.549   3.162  15.166 -0.2756  0.6180 -0.2028
 7735TIP3    H144696   1.504   3.244  15.148 -0.2277  0.8920  0.8576
 7735TIP3    H244697   1.617   3.185  15.230  0.4911 -0.0349 -0.7660
 7736TIP3   OH244698   0.094   5.718  15.004 -0.3431 -0.0608  0.9230
 7736TIP3    H144699   0.156   5.690  14.936 -1.7265 -0.2102 -0.3325
 7736TIP3    H244700   0.103   5.652  15.073 -0.3627 -1.1009 -0.0322
 7737TIP3   OH244701   4.153   3.912   1.348 -0.1024 -0.5934  0.1125
 7737TIP3    H144702   4.211   3.897   1.423 -1.0274 -0.9407  0.7699
 7737TIP3    H244703   4.212   3.940   1.278  0.6568  1.0201  1.3148
 7738TIP3   OH244704   3.156   6.067   1.539 -0.6291  0.5913 -0.4671
 7738TIP3    H144705   3.249   6.081   1.557 -0.6755  0.1928  0.1204
 7738TIP3    H244706   3.154   6.032   1.450 -0.2012  0.4158 -0.4106
 7739TIP3   OH244707   3.068   1.683   0.404  0.2409  0.2554  0.7423
 7739TIP3    H144708   3.096   1.645   0.487  2.4112 -0.7787 -0.3854
 7739TIP3    H244709   3.022   1.612   0.359 -1.4923  0.9949  1.2411
 7740TIP3   OH244710   0.308   5.061  16.085 -0.2137 -0.1086  0.1290
 7740TIP3    H144711   0.355   5.142  16.066  0.5833 -0.6647 -0.3164
 7740TIP3    H244712   0.254   5.082  16.161  0.6307  0.5918  0.5522
 7741TIP3   OH244713   4.156   3.411  16.180 -0.4124  0.1092 -0.3169
 7741TIP3    H144714   4.225   3.409  16.114 -1.0879  0.4394 -1.0442
 7741TIP3    H244715   4.155   3.501  16.213 -1.6976  0.6136 -1.6294
 7742TIP3   OH244716   0.177   1.253  13.587  0.0340  0.0777  0.2663
 7742TIP3    H144717   0.190   1.282  13.497  0.6414 -0.6344  0.1213
 7742TIP3    H244718   0.111   1.314  13.622 -1.8121 -0.9129 -1.3014
 7743TIP3   OH244719   0.452   0.166   0.761  0.4764  0.0132 -0.0565
 7743TIP3    H144720   0.442   0.260   0.748  0.0354  0.6025  3.4433
 7743TIP3    H244721   0.535   0.158   0.808 -0.3707 -1.0879  1.3206
 7744TIP3   OH244722   6.374   2.389  16.948 -0.5887 -0.2349 -0.3401
 7744TIP3    H144723   6.311   2.451  16.984 -1.1359 -0.8851 -0.1676
 7744TIP3    H244724   6.324   2.309  16.935  0.2563 -0.8282 -0.0001
 7745TIP3   OH244725   5.370   3.869  10.686 -0.0869 -0.2451  0.0002
 7745TIP3    H144726   5.394   3.791  10.736  0.4156 -0.5997 -0.7805
 7745TIP3    H244727   5.327   3.835  10.608  1.6787  0.1420 -1.2115
 7746TIP3   OH244728   2.840   6.699  15.158  0.2502  0.2717 -0.1381
 7746TIP3    H144729   2.748   6.723  15.174  0.8959  2.3404  0.8432
 7746TIP3    H244730   2.838   6.649  15.077 -1.5268  2.2519 -1.4238
 7747TIP3   OH244731   2.133   5.715   6.087  0.3280 -0.1571 -0.4123
 7747TIP3    H144732   2.040   5.727   6.066  0.3761  1.0269  0.0284
 7747TIP3    H244733   2.179   5.774   6.028  0.7413  0.0048  0.0663
 7748TIP3   OH244734   6.419   0.063  13.890 -0.8204 -0.4655  0.1869
 7748TIP3    H144735   6.373   0.085  13.971  1.5036 -0.1264  1.5083
 7748TIP3    H244736   6.440  -0.030  13.899  1.9106  0.1821  1.3922
 7749TIP3   OH244737   3.446   4.981  13.402  0.5723 -0.0075  0.0898
 7749TIP3    H144738   3.451   5.047  13.471  1.8561  0.1157 -0.0986
 7749TIP3    H244739   3.361   4.939  13.416  0.6925  0.1858  1.5797
 7750TIP3   OH244740   4.587   5.655  12.878 -0.3849  0.1468 -0.0921
 7750TIP3    H144741   4.588   5.561  12.860  1.6312  0.2714 -0.9642
 7750TIP3    H244742   4.631   5.664  12.963  1.1041  0.3740 -0.8436
 7751TIP3   OH244743   5.455   3.902   1.942 -0.4684 -0.0334 -0.0240
 7751TIP3    H144744   5.514   3.978   1.938 -1.6538  1.2268  3.4513
 7751TIP3    H244745   5.378   3.929   1.891  0.1697 -0.0333 -1.0317
 7752TIP3   OH244746   2.156   0.430  13.621 -0.2030 -0.7473  0.7708
 7752TIP3    H144747   2.121   0.480  13.547  1.3222 -1.0535 -0.2080
 7752TIP3    H244748   2.102   0.350  13.624 -0.0142 -0.9249 -0.2885
 7753TIP3   OH244749   2.498   4.411  14.759  0.0895 -0.2913  0.1238
 7753TIP3    H144750   2.441   4.333  14.760  0.4617 -0.5728  1.1072
 7753TIP3    H244751   2.489   4.446  14.671  0.2214 -1.6816 -0.4667
 7754TIP3   OH244752   2.545   4.563   0.270  0.1396  0.4267 -0.5256
 7754TIP3    H144753   2.560   4.533   0.360 -1.5698  1.2427  0.0831
 7754TIP3    H244754   2.632   4.582   0.236  0.8073  0.2701  1.0205
 7755TIP3   OH244755   0.364   3.999   5.990 -0.5922 -0.0303 -0.3615
 7755TIP3    H144756   0.442   4.047   6.019 -0.1414 -0.3382 -1.0305
 7755TIP3    H244757   0.305   4.067   5.958  0.3460  0.0863 -2.0244
 7756TIP3   OH244758   4.183   5.339   5.816 -0.0224  0.0233  0.1971
 7756TIP3    H144759   4.238   5.275   5.771 -0.1634 -0.3178  0.5042
 7756TIP3    H244760   4.214   5.339   5.907 -1.1192 -0.8591  0.5997
 7757TIP3   OH244761   6.625   4.319  15.311  0.3614  0.6370 -0.1902
 7757TIP3    H144762   6.697   4.260  15.290  0.7794  1.6122 -1.6258
 7757TIP3    H244763   6.577   4.329  15.230 -1.1763  0.3384  0.6493
 7758TIP3   OH244764   2.287   2.323  15.574  0.1862  0.3646 -0.3145
 7758TIP3    H144765   2.340   2.269  15.633  0.4829  0.3813 -0.5609
 7758TIP3    H244766   2.294   2.280  15.489 -2.6460 -1.3485  0.2254
 7759TIP3   OH244767   4.813   2.758  16.063  0.5322 -0.0321 -0.3954
 7759TIP3    H144768   4.731   2.794  16.097  0.0999  0.3556 -1.7622
 7759TIP3    H244769   4.877   2.828  16.076  0.1066  0.5678 -1.3777
 7760TIP3   OH244770   1.558   0.326  13.246  0.5003 -0.9799  0.6515
 7760TIP3    H144771   1.532   0.249  13.195 -1.3043  0.6501 -1.0582
 7760TIP3    H244772   1.588   0.389  13.180  0.5985  0.2858  1.8776
 7761TIP3   OH244773   0.152   3.336  11.865 -0.2046  0.1506  0.1035
 7761TIP3    H144774   0.244   3.315  11.851 -0.3830 -0.0529 -0.8777
 7761TIP3    H244775   0.113   3.253  11.892 -0.6900 -0.6351 -2.6634
 7762TIP3   OH244776   4.813   4.090  13.780  0.7180  0.3120  0.1883
 7762TIP3    H144777   4.888   4.033  13.764  0.2269 -0.8285  1.7522
 7762TIP3    H244778   4.741   4.048  13.733  0.6358  0.3860  0.2486
 7763TIP3   OH244779   3.654   5.599   5.870  0.1013  0.2792  0.2182
 7763TIP3    H144780   3.659   5.639   5.784  1.5721 -1.4950 -0.5914
 7763TIP3    H244781   3.601   5.660   5.922 -0.1172  1.7996 -1.6769
 7764TIP3   OH244782   5.480   0.437   0.903 -0.0247  0.1218 -0.0417
 7764TIP3    H144783   5.403   0.384   0.920  0.7353 -1.2436 -0.7057
 7764TIP3    H244784   5.454   0.526   0.928 -1.4453 -0.4822  0.7439
 7765TIP3   OH244785   0.381   1.343   1.178 -0.5460 -0.6331  0.2221
 7765TIP3    H144786   0.305   1.381   1.134 -0.3212 -1.4332 -0.9106
 7765TIP3    H244787   0.446   1.331   1.108 -0.6167 -3.0737  0.4996
 7766TIP3   OH244788   0.839   5.039  13.505  0.0756  0.3167  0.1067
 7766TIP3    H144789   0.846   5.083  13.590  0.1392 -2.0358  1.3984
 7766TIP3    H244790   0.929   5.038  13.471  0.5543 -1.0880  1.3193
 7767TIP3   OH244791   3.050   0.989  14.525  0.0595  0.1327 -0.2660
 7767TIP3    H144792   3.049   0.898  14.554 -0.4996 -0.1679 -1.2019
 7767TIP3    H244793   3.028   1.040  14.603 -1.7591 -0.6765 -0.2205
 7768TIP3   OH244794   1.971   1.743   0.982 -0.6701 -0.1720 -0.9523
 7768TIP3    H144795   1.983   1.770   1.073  0.1026 -0.3256 -0.9997
 7768TIP3    H244796   2.058   1.754   0.942 -0.3675 -2.4755 -1.0365
 7769TIP3   OH244797   4.315   6.475   2.360 -0.4318 -0.4817 -0.3461
 7769TIP3    H144798   4.404   6.511   2.361 -1.3532  2.0961 -1.3163
 7769TIP3    H244799   4.289   6.470   2.452  0.4256 -0.5236 -0.1009
 7770TIP3   OH244800   4.575   0.410   0.241  0.0748 -0.1547 -0.1664
 7770TIP3    H144801   4.659   0.390   0.282 -0.2058  0.5287  0.7905
 7770TIP3    H244802   4.510   0.391   0.309 -0.2835  2.7125  0.4590
 7771TIP3   OH244803   3.438   5.106  13.716  0.3820  0.0937 -0.4345
 7771TIP3    H144804   3.475   5.188  13.682 -1.7157 -0.1311 -3.7800
 7771TIP3    H244805   3.354   5.132  13.754 -0.8236 -0.5180 -2.5321
 7772TIP3   OH244806   4.853   1.078  11.348  0.0258  0.1511 -0.3675
 7772TIP3    H144807   4.833   0.993  11.389 -2.7723  0.6889 -0.4457
 7772TIP3    H244808   4.938   1.064  11.306  0.0207 -2.3653  0.2542
 7773TIP3   OH244809   6.268   0.898   5.530 -0.2017 -0.0916  0.1228
 7773TIP3    H144810   6.323   0.957   5.580 -0.3550 -0.7506  1.0903
 7773TIP3    H244811   6.280   0.812   5.571 -2.2937 -0.1754  0.6852
 7774TIP3   OH244812   1.793   1.774  13.198 -0.2611 -0.1674 -0.0799
 7774TIP3    H144813   1.702   1.786  13.171 -0.7272 -0.1797  1.4162
 7774TIP3    H244814   1.792   1.696  13.253  1.1123 -1.6284 -2.0325
 7775TIP3   OH244815   0.335   5.560  16.771 -0.0570 -0.3554  0.4191
 7775TIP3    H144816   0.244   5.546  16.794  0.4534 -1.4660  1.9472
 7775TIP3    H244817   0.367   5.623  16.835  0.2639  0.0059 -0.0859
 7776TIP3   OH244818   2.532   2.651   2.832 -0.4807 -0.0156 -0.0118
 7776TIP3    H144819   2.600   2.600   2.875 -0.3969 -0.0064 -0.1324
 7776TIP3    H244820   2.549   2.639   2.738  0.6535  1.6990 -0.0803
 7777TIP3   OH244821   4.684   5.991  13.764  0.2169  0.3667  0.1362
 7777TIP3    H144822   4.719   6.053  13.700  1.3826  1.5523  1.8583
 7777TIP3    H244823   4.609   6.036  13.803  0.1154  0.0596  0.2979
 7778TIP3   OH244824   2.300   2.078   4.331 -0.5988 -0.1285 -0.1692
 7778TIP3    H144825   2.381   2.123   4.308  0.3437 -1.4385  0.4933
 7778TIP3    H244826   2.235   2.115   4.271  0.7623  0.0054 -1.6366
 7779TIP3   OH244827   1.926   6.210   2.874 -0.2465 -0.0146 -0.6576
 7779TIP3    H144828   1.838   6.243   2.893 -0.0581  0.4310 -0.5430
 7779TIP3    H244829   1.983   6.255   2.937  0.2618  0.7992 -1.6560
 7780TIP3   OH244830   6.401   3.636  12.131  0.1082  0.0702  0.1024
 7780TIP3    H144831   6.444   3.701  12.186 -0.0864 -0.2737  0.6683
 7780TIP3    H244832   6.361   3.574  12.193  0.4191 -0.6722 -0.4211
 7781TIP3   OH244833   6.308   0.213   4.887 -0.4322  0.3448 -0.7064
 7781TIP3    H144834   6.351   0.161   4.820 -0.0320  0.4481 -0.5286
 7781TIP3    H244835   6.355   0.296   4.888  1.5762 -0.6968  1.7833
 7782TIP3   OH244836   0.469   0.259   1.201 -0.0513  0.3224 -0.0198
 7782TIP3    H144837   0.421   0.241   1.121 -0.6495  0.1065  0.3869
 7782TIP3    H244838   0.460   0.353   1.214  2.1875  0.8374 -1.5688
 7783TIP3   OH244839   5.515   6.601   1.485  0.1904 -0.0526 -0.2122
 7783TIP3    H144840   5.608   6.597   1.463  0.2375  2.2150 -0.6780
 7783TIP3    H244841   5.511   6.581   1.579  0.9683 -1.5247 -0.4761
 7784TIP3   OH244842   0.666   0.479   1.201  0.1853 -0.0428 -0.7871
 7784TIP3    H144843   0.716   0.398   1.208  2.3424  1.2147 -0.8128
 7784TIP3    H244844   0.640   0.484   1.109  3.2820  1.0195 -1.7284
 7785TIP3   OH244845   5.267   3.154  14.960  0.4045  0.4955  0.2252
 7785TIP3    H144846   5.225   3.230  15.000 -1.0116 -0.8116  1.3382
 7785TIP3    H244847   5.348   3.188  14.923  0.3771  2.3184  1.7165
 7786TIP3   OH244848   4.470   3.473   5.636  0.5017  0.0326  0.1591
 7786TIP3    H144849   4.401   3.514   5.689  0.0693  1.2062 -1.2482
 7786TIP3    H244850   4.426   3.400   5.593  0.5067 -0.0978  0.3747
 7787TIP3   OH244851   1.265   6.512  15.713 -0.3008  0.4379 -0.4685
 7787TIP3    H144852   1.301   6.447  15.774  0.8665 -0.3725 -1.9465
 7787TIP3    H244853   1.296   6.596  15.747  0.5754 -0.0233 -0.0894
 7788TIP3   OH244854   5.653   2.916   1.248  0.1932 -0.5797 -0.4719
 7788TIP3    H144855   5.674   3.008   1.258  0.5622 -0.5304 -1.5732
 7788TIP3    H244856   5.594   2.896   1.321  0.9861  0.2405  0.4061
 7789TIP3   OH244857   1.817   2.656  12.847 -0.4233  0.4635  0.6735
 7789TIP3    H144858   1.783   2.568  12.830 -0.0742  0.2932  0.8598
 7789TIP3    H244859   1.902   2.658  12.804  0.6836 -0.1273  2.7119
 7790TIP3   OH244860   5.710   2.576   6.736 -0.3878 -0.2199 -0.8764
 7790TIP3    H144861   5.757   2.495   6.757  1.0235  0.2723 -2.0104
 7790TIP3    H244862   5.734   2.637   6.805 -0.2330 -0.2979 -0.8629
 7791TIP3   OH244863   5.682   3.959  13.658 -0.4631  0.0619  0.2460
 7791TIP3    H144864   5.673   3.908  13.577  0.0079  2.2981 -1.2975
 7791TIP3    H244865   5.595   3.954  13.699 -0.7616 -0.9578 -0.4842
 7792TIP3   OH244866   4.505   1.862   6.121 -0.0361  0.1984 -0.1602
 7792TIP3    H144867   4.485   1.860   6.215  2.7226  0.0650  0.4896
 7792TIP3    H244868   4.419   1.856   6.079 -1.3891  0.6189  2.3317
 7793TIP3   OH244869   5.489   0.441  12.461  0.2117 -0.3551  0.3576
 7793TIP3    H144870   5.408   0.395  12.439  0.4504 -0.6399  0.0498
 7793TIP3    H244871   5.525   0.393  12.535  0.2488 -0.4046  0.3071
 7794TIP3   OH244872   1.757   2.148   0.271 -0.4753  0.8741 -0.2970
 7794TIP3    H144873   1.721   2.223   0.318 -0.8187  0.7061 -0.2822
 7794TIP3    H244874   1.680   2.104   0.235 -0.6486 -1.1940  2.2383
 7795TIP3   OH244875   6.338   5.257   6.056  0.0766 -0.0786 -0.4820
 7795TIP3    H144876   6.374   5.341   6.029 -0.2808 -0.3501 -1.9012
 7795TIP3    H244877   6.414   5.204   6.079  0.2912  0.6906  0.7216
 7796TIP3   OH244878   5.382   5.464  16.473 -0.1851 -0.5964 -0.0972
 7796TIP3    H144879   5.379   5.451  16.378  0.6517 -0.9904 -0.0797
 7796TIP3    H244880   5.461   5.418  16.501  0.5394  0.9802  0.5645
 7797TIP3   OH244881   3.895   4.976   5.203 -0.2172  0.2234  0.0718
 7797TIP3    H144882   3.892   5.032   5.126 -2.2797 -0.2838 -0.2865
 7797TIP3    H244883   3.813   4.926   5.199  0.2916 -0.8345  1.8335
 7798TIP3   OH244884   6.085   5.777   6.346 -0.0529 -0.6482  0.1600
 7798TIP3    H144885   6.146   5.851   6.355 -1.9600  0.9465  0.6972
 7798TIP3    H244886   6.099   5.726   6.426 -0.6844  0.7409  1.2093
 7799TIP3   OH244887   2.351   5.554   1.781  0.5686 -0.1092  0.3540
 7799TIP3    H144888   2.255   5.553   1.782  0.4555 -0.8747 -2.5532
 7799TIP3    H244889   2.377   5.479   1.833 -0.5254 -1.1256 -0.5109
 7800TIP3   OH244890   4.961   1.085   4.633  0.5842  0.8295  0.2961
 7800TIP3    H144891   4.903   1.157   4.659 -0.8257  0.5194 -1.7636
 7800TIP3    H244892   4.970   1.031   4.711 -3.1412  0.1136  0.3929
 7801TIP3   OH244893   5.493   3.219  13.217  0.1654 -0.5189 -0.2442
 7801TIP3    H144894   5.406   3.247  13.246 -0.3177 -0.3174 -1.7842
 7801TIP3    H244895   5.540   3.198  13.298  0.3847  4.1118  1.1530
 7802TIP3   OH244896   6.704   1.586   2.224  0.5161 -0.2411 -0.5424
 7802TIP3    H144897   6.648   1.512   2.198  0.9527 -0.6014 -0.4622
 7802TIP3    H244898   6.782   1.577   2.169 -0.4952  1.6721 -2.4932
 7803TIP3   OH244899   3.038   3.206   2.534  0.0632  0.1198 -0.5526
 7803TIP3    H144900   3.048   3.256   2.615 -1.0206  2.5884 -1.8040
 7803TIP3    H244901   3.111   3.234   2.479 -0.9136  0.9484 -1.5082
 7804TIP3   OH244902   0.658   6.005  11.508 -0.1410  0.4890 -0.8826
 7804TIP3    H144903   0.702   6.081  11.545 -0.9304 -0.2911  1.9661
 7804TIP3    H244904   0.575   6.001  11.555  0.1549 -2.4768 -0.4435
 7805TIP3   OH244905   0.004   1.929   4.268 -0.2725 -0.0927  0.7909
 7805TIP3    H144906  -0.059   1.858   4.277 -1.0315  0.6971  2.0521
 7805TIP3    H244907  -0.029   1.982   4.195 -1.6479  0.8292  2.0217
 7806TIP3   OH244908   5.077   5.125   4.358  0.6454 -0.1305 -0.2333
 7806TIP3    H144909   5.087   5.216   4.385  0.0550  0.3826 -1.6283
 7806TIP3    H244910   5.148   5.079   4.403  1.4957  1.1707 -0.1659
 7807TIP3   OH244911   1.266   6.203  12.167  0.2360  0.2655  0.3239
 7807TIP3    H144912   1.353   6.169  12.145 -0.0139 -1.0995  1.2808
 7807TIP3    H244913   1.246   6.162  12.252 -2.4535 -1.6367 -1.0811
 7808TIP3   OH244914   4.621   2.459  15.350  0.4761 -0.1986 -0.7334
 7808TIP3    H144915   4.577   2.536  15.313  1.7521  0.9675  0.0616
 7808TIP3    H244916   4.703   2.494  15.386 -0.6701 -1.1334  3.3368
 7809TIP3   OH244917   6.002   6.699   1.944  0.1491 -0.2898 -0.2551
 7809TIP3    H144918   6.065   6.673   1.877 -1.5205 -0.4302 -1.8450
 7809TIP3    H244919   5.997   6.624   2.003  0.9865 -0.5047 -0.4433
 7810TIP3   OH244920   5.131   4.304  14.552  0.1321 -0.2552 -0.1376
 7810TIP3    H144921   5.156   4.306  14.460 -1.2455  2.0583 -0.5362
 7810TIP3    H244922   5.206   4.341  14.598  0.7139 -1.1599 -0.3292
 7811TIP3   OH244923   0.309   0.155  15.801  0.2213  0.0480  0.4693
 7811TIP3    H144924   0.245   0.109  15.854 -0.7042 -0.7607 -1.2450
 7811TIP3    H244925   0.299   0.247  15.826 -0.6395 -0.2299  1.2118
 7812TIP3   OH244926   0.946   1.619  14.121  0.1457  0.0941  0.0459
 7812TIP3    H144927   0.964   1.545  14.063  0.6214  0.7769 -0.7204
 7812TIP3    H244928   0.851   1.617  14.135  0.4329 -2.1813  2.1986
 7813TIP3   OH244929   3.220   3.982   4.206 -0.0922 -0.1012  0.0020
 7813TIP3    H144930   3.275   3.908   4.230  1.6852  1.1126 -0.1825
 7813TIP3    H244931   3.280   4.055   4.194 -1.8225  1.5813  0.8483
 7814TIP3   OH244932   2.230   2.557   2.591  0.1636  0.1524  0.2873
 7814TIP3    H144933   2.153   2.501   2.589  0.0018  0.3938 -0.5508
 7814TIP3    H244934   2.276   2.538   2.509 -0.3388  1.8532 -0.4153
 7815TIP3   OH244935   1.387   3.242  14.056 -0.1983  0.4222  0.5086
 7815TIP3    H144936   1.335   3.162  14.056 -0.9108  0.7979 -1.9953
 7815TIP3    H244937   1.398   3.264  13.964 -0.7390  3.6489  1.0790
 7816TIP3   OH244938   0.097   0.148   0.704  0.3400  0.8075  0.6558
 7816TIP3    H144939   0.149   0.085   0.655  0.2830  0.3149  1.2142
 7816TIP3    H244940   0.071   0.214   0.640  0.6121  0.3959  0.1215
 7817TIP3   OH244941   3.840   3.112   2.200 -0.0610 -0.3233 -0.0481
 7817TIP3    H144942   3.891   3.075   2.128  0.5828 -1.4067  0.9250
 7817TIP3    H244943   3.850   3.206   2.191  0.3504 -0.4587 -1.1280
 7818TIP3   OH244944   4.788   5.463  11.994 -1.1924 -0.5768  0.0274
 7818TIP3    H144945   4.780   5.466  12.089 -2.7915  0.5735 -0.0952
 7818TIP3    H244946   4.801   5.370  11.973 -1.8346 -0.9695  1.2986
 7819TIP3   OH244947   2.820   0.338   3.209  0.1039  0.1706 -0.2127
 7819TIP3    H144948   2.741   0.340   3.264  0.2335  1.8920 -0.0286
 7819TIP3    H244949   2.793   0.382   3.128  1.0221  1.3926  0.1120
 7820TIP3   OH244950   0.717   5.767  11.404 -0.0639 -0.6058  0.0848
 7820TIP3    H144951   0.811   5.781  11.410 -0.1503  0.7547 -1.2032
 7820TIP3    H244952   0.679   5.855  11.402 -1.5651 -1.0650  2.6201
 7821TIP3   OH244953   1.119   2.268   3.053  0.1819  0.7589  0.3030
 7821TIP3    H144954   1.147   2.323   2.980  3.1092  1.1947  1.6140
 7821TIP3    H244955   1.179   2.194   3.051  0.8409  1.1628  2.6754
 7822TIP3   OH244956   0.765   6.016   1.297  0.7177  0.1436 -0.1819
 7822TIP3    H144957   0.723   5.979   1.219  2.2368 -1.3415 -0.3625
 7822TIP3    H244958   0.843   6.061   1.264  0.9050  0.2538  0.3932
 7823TIP3   OH244959   3.250   0.038  16.237  0.4450  0.0439  0.7133
 7823TIP3    H144960   3.166   0.005  16.202  0.7254 -0.7910  0.8147
 7823TIP3    H244961   3.225   0.105  16.300 -0.2039 -1.1201  1.7214
 7824TIP3   OH244962   5.938   1.283  13.699 -0.0948 -0.3577  0.2624
 7824TIP3    H144963   5.923   1.231  13.620 -0.9815 -0.5630  0.5572
 7824TIP3    H244964   6.031   1.307  13.695 -0.2895  0.2699 -1.2310
 7825TIP3   OH244965   5.199   6.075  16.961 -0.7917  0.0834  0.0228
 7825TIP3    H144966   5.109   6.054  16.986 -1.2152  0.9539 -0.7207
 7825TIP3    H244967   5.192   6.158  16.915  0.3765  0.0676 -0.2029
 7826TIP3   OH244968   0.642   0.397   2.342  0.2342  1.0247  0.1717
 7826TIP3    H144969   0.594   0.365   2.266  0.5241  2.0999 -0.4696
 7826TIP3    H244970   0.724   0.347   2.341  1.3564  2.7790 -1.7044
 7827TIP3   OH244971   4.033   3.322  11.237 -0.3951 -0.0548 -0.0865
 7827TIP3    H144972   3.954   3.313  11.184 -0.3800 -1.4645  0.1061
 7827TIP3    H244973   4.098   3.357  11.176 -0.9530  0.3991 -0.4370
 7828TIP3   OH244974   2.528   3.387  14.812 -0.1505 -0.2833  1.0342
 7828TIP3    H144975   2.572   3.433  14.883 -0.5023  2.9625 -0.6226
 7828TIP3    H244976   2.573   3.416  14.733 -2.4815 -0.2182 -0.3820
 7829TIP3   OH244977   6.695   5.303  15.602 -0.5364 -0.2026  0.2406
 7829TIP3    H144978   6.674   5.349  15.683  1.0407  1.0106  0.0040
 7829TIP3    H244979   6.775   5.255  15.621 -0.9290 -1.0624 -0.2023
 7830TIP3   OH244980   5.114   3.134  11.817 -0.1357 -0.1517 -0.0466
 7830TIP3    H144981   5.192   3.169  11.774  0.6850 -0.9659  0.7316
 7830TIP3    H244982   5.131   3.041  11.824 -1.4624 -0.4343 -0.3966
 7831TIP3   OH244983   3.716   3.700   5.440 -0.3016  0.3255 -0.1025
 7831TIP3    H144984   3.743   3.713   5.531 -1.5455  1.1672  0.1765
 7831TIP3    H244985   3.780   3.749   5.388 -1.4959  2.8067  0.5813
 7832TIP3   OH244986   3.150   5.343   1.439  0.1998  0.5314  0.0697
 7832TIP3    H144987   3.085   5.399   1.397  0.0742  2.1385  2.2393
 7832TIP3    H244988   3.231   5.395   1.439  0.4044  0.2304  1.0558
 7833TIP3   OH244989   4.471   4.036   4.278  0.2628 -0.0084  0.0531
 7833TIP3    H144990   4.427   4.069   4.200  0.4628  1.5933  0.5806
 7833TIP3    H244991   4.549   3.992   4.244 -1.4641 -2.5663 -0.8575
 7834TIP3   OH244992   0.357   2.957   6.154  0.4102 -0.1883 -0.2061
 7834TIP3    H144993   0.407   2.883   6.120  3.1014  1.5624 -0.2801
 7834TIP3    H244994   0.389   2.970   6.243  0.9984  1.6775 -0.6383
 7835TIP3   OH244995   1.955   5.440   1.579  0.1950 -0.0817  0.1638
 7835TIP3    H144996   2.027   5.446   1.516 -2.0115  0.0897 -2.5247
 7835TIP3    H244997   1.939   5.530   1.607  2.1194 -0.3066  2.2353
 7836TIP3   OH244998   6.511   2.195   1.392 -0.1808 -0.2082 -0.1855
 7836TIP3    H144999   6.487   2.287   1.403  1.3036  0.0061  2.1115
 7836TIP3    H245000   6.569   2.177   1.466 -0.7064 -3.1079 -0.3673
 7837TIP3   OH245001   6.773   3.908   4.011  0.1342  0.1697  0.0973
 7837TIP3    H145002   6.792   3.947   4.096  1.0134 -0.9287  0.4380
 7837TIP3    H245003   6.733   3.824   4.031 -1.0859  0.5578 -0.6114
 7838TIP3   OH245004   0.150   5.945   2.073  0.3228 -0.1040  0.4765
 7838TIP3    H145005   0.114   5.995   2.147 -0.3420  0.0476  0.0598
 7838TIP3    H245006   0.161   5.856   2.108  1.3842  0.2835  1.1786
 7839TIP3   OH245007   2.423   1.392  11.926  0.3761  0.4591 -0.3246
 7839TIP3    H145008   2.391   1.302  11.924 -1.0112  0.9345 -1.8408
 7839TIP3    H245009   2.416   1.422  11.836  0.9608  2.0367  0.1210
 7840TIP3   OH245010   0.821   1.886   4.634  0.4660  0.4187  0.1218
 7840TIP3    H145011   0.833   1.838   4.716  1.3060 -0.7482 -0.6623
 7840TIP3    H245012   0.885   1.957   4.639  1.1197 -0.1610  0.1148
 7841TIP3   OH245013   2.052   5.045  16.984 -0.6296 -0.2441  0.2563
 7841TIP3    H145014   2.091   4.964  16.952 -1.3486 -0.4961 -0.0112
 7841TIP3    H245015   1.983   5.065  16.920 -0.3342  0.6811  0.2187
 7842TIP3   OH245016   0.138   4.668   0.775  0.1262 -0.4261  0.3866
 7842TIP3    H145017   0.193   4.624   0.711  1.7609  0.9759  0.7592
 7842TIP3    H245018   0.109   4.598   0.834 -0.2851 -1.5074 -1.0682
 7843TIP3   OH245019   3.447   5.787   4.594  0.0263  0.1522 -0.3756
 7843TIP3    H145020   3.433   5.818   4.684 -0.0091  1.1686 -0.7116
 7843TIP3    H245021   3.504   5.712   4.603 -0.2949  0.0019  0.5311
 7844TIP3   OH245022   2.247   5.490   5.805 -0.4890  0.0364 -0.2787
 7844TIP3    H145023   2.290   5.564   5.848  0.8019  0.5365 -2.2619
 7844TIP3    H245024   2.311   5.419   5.811 -0.8057 -0.2499 -0.2901
 7845TIP3   OH245025   0.631   4.170   2.143  0.3533 -0.2034 -0.0042
 7845TIP3    H145026   0.547   4.172   2.098 -0.2918  0.6225  1.1858
 7845TIP3    H245027   0.652   4.077   2.153 -0.2916 -0.4053 -0.5353
 7846TIP3   OH245028   5.039   0.846  11.737  0.0976 -0.5484  0.7744
 7846TIP3    H145029   5.031   0.912  11.805 -2.4752  0.0120  0.0552
 7846TIP3    H245030   5.093   0.887  11.669 -0.4623  0.3514  0.8655
 7847TIP3   OH245031   1.504   5.293  17.099 -0.0294  1.0922 -0.6252
 7847TIP3    H145032   1.590   5.302  17.141 -0.7996  1.2934  0.9980
 7847TIP3    H245033   1.445   5.345  17.154 -1.2718  0.6370 -1.4770
 7848TIP3   OH245034   1.510   0.021   3.063 -0.2039 -0.0694  0.5362
 7848TIP3    H145035   1.548   0.066   2.987  0.5545 -0.4216  0.6960
 7848TIP3    H245036   1.578  -0.040   3.092 -1.0315 -0.9738  0.6278
 7849TIP3   OH245037   1.391   1.211  11.057 -0.3609 -0.1473 -0.2833
 7849TIP3    H145038   1.381   1.211  10.962 -0.7840 -0.6890 -0.2394
 7849TIP3    H245039   1.452   1.283  11.074  0.5623 -0.7223 -1.0492
 7850TIP3   OH245040   5.970   0.769   6.684 -0.5944  0.2106 -0.3529
 7850TIP3    H145041   5.961   0.856   6.723  1.4671  0.7691 -0.9933
 7850TIP3    H245042   6.064   0.752   6.684 -1.0007 -2.5647  0.8152
 7851TIP3   OH245043   5.712   2.922  12.748  0.3280 -0.5558  0.3609
 7851TIP3    H145044   5.633   2.868  12.738 -0.6164  0.9618 -0.8144
 7851TIP3    H245045   5.771   2.892  12.679  0.5000 -1.1956  0.7774
 7852TIP3   OH245046   2.554   2.219  16.939 -0.8650 -0.0369 -0.0101
 7852TIP3    H145047   2.603   2.286  16.986 -1.1871 -0.1710  0.5251
 7852TIP3    H245048   2.601   2.138  16.957 -0.7054 -0.0157 -0.3275
 7853TIP3   OH245049   2.432   3.005   5.694  0.1326 -0.0029 -0.1229
 7853TIP3    H145050   2.528   3.011   5.692  0.1162  0.1970 -1.4789
 7853TIP3    H245051   2.404   3.086   5.737  0.5581  0.1864 -0.1938
 7854TIP3   OH245052   5.546   3.921   3.366  0.0027  0.0877  0.2021
 7854TIP3    H145053   5.456   3.889   3.373  0.4384 -1.1043  0.6976
 7854TIP3    H245054   5.538   4.016   3.362 -1.3322 -0.0339 -0.8079
 7855TIP3   OH245055   0.105   0.454  12.542  0.5716  0.2403 -0.5130
 7855TIP3    H145056   0.174   0.441  12.607 -0.8901 -2.4486  0.7099
 7855TIP3    H245057   0.026   0.470  12.594  0.0245  2.1689 -1.8315
 7856TIP3   OH245058   2.913   3.173  12.823  0.5023  0.1861  0.4246
 7856TIP3    H145059   2.929   3.102  12.885  1.0639 -0.6203 -0.5968
 7856TIP3    H245060   2.884   3.129  12.743 -0.2140  1.1963  0.1120
 7857TIP3   OH245061   3.785   3.450  17.117 -0.3952  0.6199  0.2646
 7857TIP3    H145062   3.710   3.500  17.150  0.1018  0.6898  1.3223
 7857TIP3    H245063   3.836   3.429  17.195 -0.2321 -0.9660 -0.2422
 7858TIP3   OH245064   1.237   4.799  11.142 -0.4215  0.6629 -0.1773
 7858TIP3    H145065   1.298   4.728  11.159  0.2576  1.2674 -0.0503
 7858TIP3    H245066   1.276   4.849  11.071 -0.7943  1.0180 -0.1395
 7859TIP3   OH245067   6.034   2.001  11.977 -0.3050 -0.2659  0.2980
 7859TIP3    H145068   5.982   2.078  11.956  2.0239  0.9641 -1.4374
 7859TIP3    H245069   6.034   1.997  12.073 -0.9838  1.5312  0.3957
 7860TIP3   OH245070   2.228   6.743   0.757 -0.0143  0.4565  0.8527
 7860TIP3    H145071   2.166   6.722   0.688 -0.3955 -2.6597  1.9776
 7860TIP3    H245072   2.291   6.802   0.716 -1.6729  0.8381 -1.3393
 7861TIP3   OH245073   5.712   3.349  11.166 -0.5906 -0.3389 -0.5014
 7861TIP3    H145074   5.752   3.329  11.251 -0.7143  1.1292 -0.0746
 7861TIP3    H245075   5.777   3.320  11.102  0.2253  0.0258  0.1422
 7862TIP3   OH245076   6.627   1.699   3.520  0.4200 -0.3635 -0.0684
 7862TIP3    H145077   6.628   1.659   3.608 -0.6237 -0.5187 -0.1132
 7862TIP3    H245078   6.632   1.793   3.537 -1.4681 -0.2836  0.2705
 7863TIP3   OH245079   6.339   2.405  12.432 -0.0150 -0.5396 -0.9144
 7863TIP3    H145080   6.292   2.322  12.439 -0.9170 -0.1553 -2.0754
 7863TIP3    H245081   6.296   2.462  12.496 -1.3713 -0.0976 -2.1879
 7864TIP3   OH245082   1.424   4.648  16.949 -0.3790  0.7084  0.4497
 7864TIP3    H145083   1.406   4.557  16.926 -0.4987  0.5822  1.0384
 7864TIP3    H245084   1.452   4.645  17.040 -0.0986  1.2297  0.3857
 7865TIP3   OH245085   1.648   0.695   1.110 -0.1426 -0.3290 -0.0869
 7865TIP3    H145086   1.630   0.788   1.125 -0.1136 -0.2589 -0.4894
 7865TIP3    H245087   1.646   0.685   1.015  2.7688 -0.1298 -0.2751
 7866TIP3   OH245088   1.662   1.835   3.682  0.6517 -0.5904 -0.3594
 7866TIP3    H145089   1.681   1.856   3.774 -0.5042  2.1519 -0.6314
 7866TIP3    H245090   1.738   1.784   3.653  0.9614 -1.6897  2.1350
 7867TIP3   OH245091   4.020   5.888  15.683 -0.1530 -0.0688 -0.2043
 7867TIP3    H145092   3.960   5.939  15.736  0.0119  0.0738 -0.1524
 7867TIP3    H245093   4.105   5.932  15.693  0.3195 -1.1877  1.0230
 7868TIP3   OH245094   1.226   6.667   5.918  0.1599  0.0491  0.4804
 7868TIP3    H145095   1.274   6.683   5.999 -0.8826 -0.6418  1.2671
 7868TIP3    H245096   1.136   6.652   5.947 -0.4868  1.0402 -0.9131
 7869TIP3   OH245097   6.391   3.329  11.784 -0.1650 -0.2268 -0.7799
 7869TIP3    H145098   6.406   3.360  11.695  3.4078  3.2442  0.6855
 7869TIP3    H245099   6.479   3.313  11.819 -1.1723  0.9513  2.7568
 7870TIP3   OH245100   6.350   0.842  12.896 -0.1224 -0.2219 -0.6791
 7870TIP3    H145101   6.263   0.806  12.880  0.0248 -1.0612  0.3613
 7870TIP3    H245102   6.401   0.769  12.931  1.2960 -0.0089 -2.1688
 7871TIP3   OH245103   0.174   4.520  16.473 -0.2353 -0.2189 -0.3321
 7871TIP3    H145104   0.137   4.435  16.449 -2.8680  0.7222  0.0967
 7871TIP3    H245105   0.191   4.513  16.567  1.9012 -1.0130 -0.7116
 7872TIP3   OH245106   5.393   2.091   5.066 -0.7672  0.1538  0.0490
 7872TIP3    H145107   5.467   2.119   5.012 -2.0683  0.8501 -1.4450
 7872TIP3    H245108   5.382   2.161   5.130  0.5414 -0.4917  1.0242
 7873TIP3   OH245109   4.118   4.503   4.001  0.0373 -0.2090  0.4054
 7873TIP3    H145110   4.094   4.433   3.940  1.6609 -0.4290 -0.0357
 7873TIP3    H245111   4.086   4.583   3.958 -0.5363 -0.5330  0.2120
 7874TIP3   OH245112   5.079   5.321  11.104 -0.5799 -0.0809 -0.2114
 7874TIP3    H145113   5.108   5.264  11.033  1.7212  1.3750 -0.5589
 7874TIP3    H245114   5.160   5.353  11.144 -1.7957  1.0553  1.5183
 7875TIP3   OH245115   3.203   0.174   4.740  0.7772 -0.0894  0.0849
 7875TIP3    H145116   3.176   0.092   4.782 -0.6210  0.3044  0.0233
 7875TIP3    H245117   3.172   0.166   4.650  1.7802 -0.0046 -0.2790
 7876TIP3   OH245118   0.358   1.013   1.912 -1.0302  0.2222  0.0186
 7876TIP3    H145119   0.320   0.925   1.906 -1.3217  0.4087 -0.9492
 7876TIP3    H245120   0.380   1.037   1.822  0.8893  0.3621  0.4732
 7877TIP3   OH245121   4.976   0.908   5.292 -0.0069 -0.4492 -0.5046
 7877TIP3    H145122   5.029   0.853   5.235  0.8993  0.6968 -0.8108
 7877TIP3    H245123   4.969   0.991   5.245  0.7582  0.5263  1.0355
 7878TIP3   OH245124   2.720   1.494  16.285  0.3986 -0.3022  0.1329
 7878TIP3    H145125   2.772   1.422  16.250 -0.9624 -1.5996  0.6428
 7878TIP3    H245126   2.673   1.455  16.359  0.4882  1.4199  1.1489
 7879TIP3   OH245127   3.263   3.433  14.154  0.5337  0.0942  0.5372
 7879TIP3    H145128   3.231   3.496  14.090  2.1015  0.5606  0.1775
 7879TIP3    H245129   3.304   3.364  14.102  0.1218 -0.5089  0.9850
 7880TIP3   OH245130   1.654   5.446  11.103  0.2109  0.3305  0.0705
 7880TIP3    H145131   1.695   5.532  11.114  0.6011  0.2317 -0.5449
 7880TIP3    H245132   1.658   5.430  11.008  1.3394 -0.9364  0.3077
 7881TIP3   OH245133   5.625   0.129  17.240  0.5590 -0.4947  0.2290
 7881TIP3    H145134   5.713   0.144  17.275  0.9484 -0.5674 -0.7148
 7881TIP3    H245135   5.581   0.214  17.251  1.0674 -0.1703 -0.2292
 7882TIP3   OH245136   1.977   5.226   2.159  0.2096 -0.1927 -0.5166
 7882TIP3    H145137   2.018   5.282   2.225  0.1170  0.2278 -0.8119
 7882TIP3    H245138   1.955   5.286   2.088 -0.4633 -0.4973 -0.5693
 7883TIP3   OH245139   5.926   3.283  14.657 -0.0576 -0.0172 -0.1965
 7883TIP3    H145140   5.889   3.196  14.671 -1.1101  0.6169  1.1487
 7883TIP3    H245141   5.926   3.294  14.562  0.6443 -1.6977 -0.4307
 7884TIP3   OH245142   3.897   3.673   2.024 -0.0933 -0.1458 -0.1725
 7884TIP3    H145143   3.832   3.742   2.038  0.5917  0.9639 -2.0434
 7884TIP3    H245144   3.968   3.717   1.976  1.1467 -1.7713  0.1143
 7885TIP3   OH245145   1.937   1.216  14.273  0.1049 -1.0259  0.1266
 7885TIP3    H145146   1.997   1.195  14.201 -0.2296 -0.7861 -0.2253
 7885TIP3    H245147   1.960   1.306  14.297 -0.3784 -0.7868 -0.2816
 7886TIP3   OH245148   2.653   0.322   1.284 -0.0928 -0.5746 -0.6170
 7886TIP3    H145149   2.695   0.254   1.337 -0.3930 -0.2799 -0.0025
 7886TIP3    H245150   2.563   0.326   1.316  0.1103  0.6164 -0.1433
 7887TIP3   OH245151   3.827   6.109   2.328  0.4151  0.2680 -0.2778
 7887TIP3    H145152   3.779   6.159   2.394  1.4793  0.4956  0.3526
 7887TIP3    H245153   3.775   6.029   2.316 -0.5510  0.8804 -0.2474
 7888TIP3   OH245154   2.663   0.712  11.679  0.4882 -0.4436  0.7994
 7888TIP3    H145155   2.666   0.700  11.584 -2.1010  1.1754  0.3961
 7888TIP3    H245156   2.622   0.632  11.711 -0.0620 -0.3577  0.3395
 7889TIP3   OH245157   5.514   3.048   2.939 -0.3116  0.1902 -0.6982
 7889TIP3    H145158   5.442   3.085   2.888  0.1663  1.5641 -0.4124
 7889TIP3    H245159   5.516   2.956   2.914 -1.5848  0.3291 -1.3888
 7890TIP3   OH245160   0.125   0.437  16.745 -0.3671 -0.2741  0.7305
 7890TIP3    H145161   0.163   0.518  16.710  0.2294 -1.2595 -0.9867
 7890TIP3    H245162   0.039   0.431  16.703 -0.2764 -0.6982  0.6064
 7891TIP3   OH245163   4.472   4.744  11.269 -0.3477  0.4428 -0.4319
 7891TIP3    H145164   4.519   4.668  11.235  0.1326 -1.4064  3.7274
 7891TIP3    H245165   4.385   4.738  11.230 -0.0906 -1.8596 -0.7884
 7892TIP3   OH245166   3.739   2.526   2.905 -0.5917 -0.2484  0.0845
 7892TIP3    H145167   3.693   2.593   2.855 -0.0340  0.5878  0.6782
 7892TIP3    H245168   3.719   2.444   2.858 -0.1773  0.4844 -1.4422
 7893TIP3   OH245169   1.706   3.587  13.137  0.3831  0.0282  0.0928
 7893TIP3    H145170   1.723   3.681  13.137  0.3404  0.0405 -0.5364
 7893TIP3    H245171   1.769   3.551  13.199 -0.1746  0.5701  0.9919
 7894TIP3   OH245172   4.087   2.149  15.841  0.6757  0.0381 -0.0471
 7894TIP3    H145173   4.039   2.231  15.827  1.0813  0.0230 -1.7573
 7894TIP3    H245174   4.097   2.112  15.753  1.0635 -1.5360  0.6261
 7895TIP3   OH245175   4.437   4.093  14.004  0.0249  0.1283 -0.1343
 7895TIP3    H145176   4.529   4.121  14.008 -0.3387  1.4082 -0.3080
 7895TIP3    H245177   4.441   4.005  13.966  1.2533 -0.2856  0.8503
 7896TIP3   OH245178   6.668   3.569  14.993 -0.2898 -0.1744  0.3134
 7896TIP3    H145179   6.594   3.533  14.943 -0.9805 -2.0712  2.5514
 7896TIP3    H245180   6.637   3.572  15.083  0.9614  3.0299  0.7569
 7897TIP3   OH245181   3.837   3.628  13.490 -0.4163  0.0757 -0.3731
 7897TIP3    H145182   3.930   3.632  13.466 -0.9249  0.5739 -2.4466
 7897TIP3    H245183   3.812   3.719  13.503 -0.7848 -0.0009 -0.5386
 7898TIP3   OH245184   6.174   0.268  11.299 -0.1231  0.4463  0.3105
 7898TIP3    H145185   6.249   0.324  11.279 -0.3009  0.9617  1.0493
 7898TIP3    H245186   6.130   0.256  11.214 -0.4774  2.0280  0.2319
 7899TIP3   OH245187   3.660   2.269   5.410  0.1940  0.1565 -0.6742
 7899TIP3    H145188   3.586   2.330   5.408 -0.5200 -0.5960  0.9180
 7899TIP3    H245189   3.644   2.215   5.487  2.9387  0.6218  0.3102
 7900TIP3   OH245190   3.923   2.635  14.308  0.5796 -0.2215  0.2281
 7900TIP3    H145191   3.906   2.720  14.267 -1.9494 -0.9607 -0.3917
 7900TIP3    H245192   3.956   2.580  14.237  1.5624  0.0229  0.4795
 7901TIP3   OH245193   5.731   3.954  11.127  0.0992 -0.1657 -0.1248
 7901TIP3    H145194   5.700   3.925  11.213  1.0624 -1.0405 -0.0530
 7901TIP3    H245195   5.825   3.936  11.128  0.3350  0.8875 -0.9479
 7902TIP3   OH245196   6.372   1.588  15.139 -0.3234  0.1653 -1.1766
 7902TIP3    H145197   6.355   1.502  15.102 -0.1379 -0.9871  1.2307
 7902TIP3    H245198   6.288   1.618  15.172 -0.0042 -0.1005 -0.0762
 7903TIP3   OH245199   1.222   1.537   2.808  0.1276 -0.0199 -0.0596
 7903TIP3    H145200   1.276   1.482   2.752  1.6130 -0.5777  1.8365
 7903TIP3    H245201   1.136   1.494   2.808  0.8557 -1.5382  0.2253
 7904TIP3   OH245202   1.766   5.942   5.304 -0.4267  0.0931 -0.7077
 7904TIP3    H145203   1.699   5.900   5.250 -0.9407  0.9379 -0.7380
 7904TIP3    H245204   1.749   5.911   5.393 -0.7473  0.1675 -0.7441
 7905TIP3   OH245205   5.767   4.943   3.006  0.6913 -0.0612 -0.0587
 7905TIP3    H145206   5.839   4.997   3.038  1.0155  0.1221 -1.0424
 7905TIP3    H245207   5.716   4.921   3.084  0.8926  1.1577  0.4391
 7906TIP3   OH245208   3.932   2.631   5.439  0.2949  0.3660  0.2522
 7906TIP3    H145209   3.992   2.599   5.506 -0.0520 -1.6337 -0.3151
 7906TIP3    H245210   3.977   2.614   5.356 -0.2626  0.5828 -0.1012
 7907TIP3   OH245211   0.115   4.755  11.939 -0.1974  0.3370 -0.1197
 7907TIP3    H145212   0.078   4.725  12.022  1.2869 -0.7573  0.1906
 7907TIP3    H245213   0.125   4.850  11.951 -0.6869  0.2960  0.6723
 7908TIP3   OH245214   6.792   4.494   0.942  0.7859 -0.3375 -0.0646
 7908TIP3    H145215   6.763   4.509   1.033 -1.2601 -0.9353 -0.5530
 7908TIP3    H245216   6.837   4.409   0.945 -1.2059 -1.4517  0.0747
 7909TIP3   OH245217   4.534   0.366  12.683  0.3459  0.1137  0.1572
 7909TIP3    H145218   4.539   0.283  12.637 -0.2938  0.0764  0.1490
 7909TIP3    H245219   4.488   0.425  12.623  0.5545  0.4004  0.2710
 7910TIP3   OH245220   6.776   6.604   0.940 -0.2402  0.2972  0.0183
 7910TIP3    H145221   6.830   6.642   0.871 -1.6921  0.0037 -1.3380
 7910TIP3    H245222   6.792   6.509   0.934 -1.9744  0.0531 -1.4064
 7911TIP3   OH245223   3.774   4.888   3.185  0.1203 -0.0073 -0.0081
 7911TIP3    H145224   3.780   4.940   3.105  0.9684  1.6537  1.0879
 7911TIP3    H245225   3.703   4.929   3.235  0.2848 -0.3719  0.5373
 7912TIP3   OH245226   4.426   3.798   6.169  0.1496 -0.2816  0.1388
 7912TIP3    H145227   4.418   3.719   6.223 -0.8962 -1.0912 -1.1311
 7912TIP3    H245228   4.340   3.840   6.176 -0.0377 -0.4574 -0.9500
 7913TIP3   OH245229   4.453   5.665   5.531  0.2827 -0.1847  0.1907
 7913TIP3    H145230   4.490   5.595   5.476  1.2252 -1.6540  2.5696
 7913TIP3    H245231   4.504   5.742   5.509  1.2123 -0.9374 -0.3799
 7914TIP3   OH245232   6.557   3.457  11.155  0.2906 -0.2927 -0.1273
 7914TIP3    H145233   6.603   3.535  11.126  1.0935 -0.3950  0.8168
 7914TIP3    H245234   6.587   3.443  11.245 -0.9045 -0.8878  0.2016
 7915TIP3   OH245235   5.455   4.427   5.535  0.3392 -1.0246 -0.3635
 7915TIP3    H145236   5.512   4.487   5.487  1.5600 -1.7307  0.1677
 7915TIP3    H245237   5.446   4.351   5.478 -1.8723 -0.0988 -1.4043
 7916TIP3   OH245238   5.011   4.939  14.312 -0.0674 -0.5542  0.0333
 7916TIP3    H145239   4.929   4.901  14.344 -1.4200  2.3662  0.3677
 7916TIP3    H245240   5.074   4.921  14.382 -0.8865 -1.2282  0.6236
 7917TIP3   OH245241   5.571   3.983  16.639 -0.1065  0.8327 -0.0161
 7917TIP3    H145242   5.612   3.940  16.713  2.2571  1.7790 -0.6860
 7917TIP3    H245243   5.583   4.076  16.655 -0.6774  1.0988 -0.9984
 7918TIP3   OH245244   0.490   2.603   0.328  0.1740  0.2246  0.2144
 7918TIP3    H145245   0.428   2.671   0.301 -0.5040 -0.0685  1.0162
 7918TIP3    H245246   0.438   2.541   0.379  0.2588 -2.0799 -2.2231
 7919TIP3   OH245247   3.465   1.135  12.122 -0.7487  0.1116 -0.4121
 7919TIP3    H145248   3.393   1.131  12.060 -1.2341 -2.4497  0.1930
 7919TIP3    H245249   3.424   1.153  12.206 -0.7947 -1.6308 -0.0176
 7920TIP3   OH245250   6.461   0.580   3.818  0.1839 -0.2347 -0.3187
 7920TIP3    H145251   6.370   0.552   3.811 -0.9585  2.8879  0.1706
 7920TIP3    H245252   6.484   0.610   3.730  0.1057  0.5572 -0.0815
 7921TIP3   OH245253   4.576   2.876  11.128  0.4823  0.3675 -0.6348
 7921TIP3    H145254   4.629   2.831  11.062  0.6988  0.2527 -0.3875
 7921TIP3    H245255   4.633   2.946  11.161  0.6599 -0.0412 -0.0429
 7922TIP3   OH245256   1.087   4.671  12.081 -0.8863 -0.0202 -0.0557
 7922TIP3    H145257   1.082   4.633  12.169  3.4715 -3.0015 -0.7522
 7922TIP3    H245258   1.043   4.607  12.025 -2.4324  1.1878 -0.2779
 7923TIP3   OH245259   0.311   1.247  12.618  0.3822 -0.7251 -0.0317
 7923TIP3    H145260   0.388   1.298  12.594  0.1407 -0.4649 -0.2661
 7923TIP3    H245261   0.246   1.312  12.642  0.3008 -0.9518  0.3600
 7924TIP3   OH245262   6.149   5.188   5.226  0.3593 -0.4692  0.6475
 7924TIP3    H145263   6.134   5.130   5.301  0.1481 -0.6761  0.4448
 7924TIP3    H245264   6.201   5.260   5.262  0.0837 -0.4611  1.0450
 7925TIP3   OH245265   3.241   6.096   2.447  0.0432 -0.1559 -0.4920
 7925TIP3    H145266   3.286   6.051   2.376 -0.1822 -1.3908  0.1133
 7925TIP3    H245267   3.150   6.066   2.441  0.1819 -0.9304  0.7857
 7926TIP3   OH245268   3.508   1.720   2.270  0.7590  0.1702  0.2866
 7926TIP3    H145269   3.588   1.769   2.250  0.8191 -0.3311 -0.7552
 7926TIP3    H245270   3.510   1.645   2.210  0.0398 -0.4249  0.9882
 7927TIP3   OH245271   0.916   2.933  15.813  0.3742 -0.7786  0.5795
 7927TIP3    H145272   0.842   2.960  15.867  0.7307 -0.2406  0.8112
 7927TIP3    H245273   0.901   2.841  15.796  0.2881 -0.9820  1.6696
 7928TIP3   OH245274   3.325   6.288   3.311  0.5578  0.7365 -0.6019
 7928TIP3    H145275   3.254   6.346   3.340 -0.6138 -1.1106  0.4355
 7928TIP3    H245276   3.281   6.205   3.291  2.3451 -0.2321 -0.6751
 7929TIP3   OH245277   3.627   3.110  11.335 -0.1819  0.1122 -0.4987
 7929TIP3    H145278   3.658   3.056  11.408  0.1229 -0.1895 -0.8507
 7929TIP3    H245279   3.643   3.200  11.364  0.0236 -0.0100 -0.2300
 7930TIP3   OH245280   0.766   1.831   2.959 -0.6587 -0.3432 -0.3098
 7930TIP3    H145281   0.708   1.903   2.985 -0.1013  0.1593 -0.4284
 7930TIP3    H245282   0.853   1.872   2.953 -0.2890 -1.0899 -0.1078
 7931TIP3   OH245283   6.603   2.589  16.012 -0.0890 -0.5410 -0.2245
 7931TIP3    H145284   6.531   2.604  15.951 -0.5689  2.1168  0.8637
 7931TIP3    H245285   6.678   2.630  15.971  0.7040 -2.6717 -1.0163
 7932TIP3   OH245286   0.726   3.734  15.839  0.8599 -0.0334  0.0035
 7932TIP3    H145287   0.757   3.695  15.921  1.3225  1.1326  0.4042
 7932TIP3    H245288   0.758   3.676  15.771  2.0595 -0.0382  0.5432
 7933TIP3   OH245289   0.700   4.610   5.037  0.3427  0.1729  0.1499
 7933TIP3    H145290   0.677   4.578   4.950  1.8520  0.7326 -0.4998
 7933TIP3    H245291   0.712   4.704   5.026  1.1080  0.1721  0.8326
 7934TIP3   OH245292   5.526   2.393  15.746 -0.1936  0.0495  0.3531
 7934TIP3    H145293   5.515   2.371  15.838 -1.3352 -0.2888  0.1530
 7934TIP3    H245294   5.451   2.449  15.725 -0.4922 -0.6693 -0.5979
 7935TIP3   OH245295   2.150   3.846   0.989 -0.0859  0.8316  0.2467
 7935TIP3    H145296   2.109   3.907   1.050 -3.2323  0.2743 -1.1268
 7935TIP3    H245297   2.136   3.885   0.903  1.4173  0.0622 -0.3870
 7936TIP3   OH245298   3.648   0.104  11.355  0.0622 -0.5493 -0.0335
 7936TIP3    H145299   3.634   0.173  11.291  0.9196 -1.4010 -1.1721
 7936TIP3    H245300   3.737   0.119  11.387  0.0086 -0.7304  0.2027
 7937TIP3   OH245301   1.441   4.826   3.229  0.6999 -0.0339  0.0522
 7937TIP3    H145302   1.522   4.818   3.279  2.5598  2.6763 -2.1754
 7937TIP3    H245303   1.433   4.919   3.211 -2.0682 -0.4113 -1.2170
 7938TIP3   OH245304   0.413   5.923  12.424 -0.2483  0.0093  0.2478
 7938TIP3    H145305   0.488   5.884  12.469  0.0906  0.5606  0.1613
 7938TIP3    H245306   0.403   5.871  12.344  0.5962  0.4823 -0.1743
 7939TIP3   OH245307   4.915   3.718  15.142  0.5510 -0.4145  0.4621
 7939TIP3    H145308   4.904   3.813  15.147  0.5951 -0.1013 -3.1145
 7939TIP3    H245309   4.826   3.683  15.145  0.4472 -0.1543  0.3819
 7940TIP3   OH245310   3.375   1.517  16.964  0.0775  1.0714 -0.3632
 7940TIP3    H145311   3.418   1.562  17.036  0.5569  0.2866 -0.1419
 7940TIP3    H245312   3.282   1.532  16.978  0.2538  3.1296 -1.0693
 7941TIP3   OH245313   4.796   6.262   3.469 -1.0202  0.1765 -0.3234
 7941TIP3    H145314   4.878   6.292   3.509 -1.7120  1.1168  0.4393
 7941TIP3    H245315   4.738   6.338   3.474 -1.7656 -0.3017 -1.3713
 7942TIP3   OH245316   2.356   0.746  15.203 -0.2932 -0.2978 -0.5884
 7942TIP3    H145317   2.388   0.805  15.271 -0.7114 -0.2465 -0.4377
 7942TIP3    H245318   2.261   0.748  15.211 -0.2917 -1.6488 -0.0337
 7943TIP3   OH245319   2.926   2.785   1.920  0.5285 -0.1086  0.2320
 7943TIP3    H145320   2.890   2.713   1.973 -1.9543 -0.0465 -1.1751
 7943TIP3    H245321   2.888   2.771   1.833  0.6521  2.4247 -0.3016
 7944TIP3   OH245322   4.894   2.155   4.076 -0.0790  0.2299  0.2693
 7944TIP3    H145323   4.917   2.170   3.984  1.5637 -2.8161  0.0274
 7944TIP3    H245324   4.818   2.096   4.072  0.3234 -0.3422  0.8025
 7945TIP3   OH245325   1.240   3.338  13.042 -0.6061  0.2605  0.1289
 7945TIP3    H145326   1.161   3.387  13.017 -0.7258  0.6394  1.2073
 7945TIP3    H245327   1.297   3.403  13.082  1.0875  0.3978 -2.2715
 7946TIP3   OH245328   3.886   4.289   5.831  0.5116  0.5942  0.6447
 7946TIP3    H145329   3.906   4.196   5.833  0.3689  0.5407 -0.1714
 7946TIP3    H245330   3.791   4.294   5.838  0.5999  0.7412  1.9485
 7947TIP3   OH245331   4.362   6.390  12.724 -0.0466 -0.7486 -0.0943
 7947TIP3    H145332   4.285   6.404  12.669  1.0040  1.0230 -1.2143
 7947TIP3    H245333   4.341   6.434  12.807 -0.1715 -0.0727 -0.4775
 7948TIP3   OH245334   0.287   4.714   5.148 -0.0433 -0.0103  0.0681
 7948TIP3    H145335   0.281   4.794   5.200  1.1269  0.3037 -0.2581
 7948TIP3    H245336   0.209   4.664   5.172 -0.8090  1.2368  0.2608
 7949TIP3   OH245337   1.636   0.082   0.314  0.0131  0.6393  0.0176
 7949TIP3    H145338   1.593   0.102   0.231  1.4835 -1.0436 -1.2374
 7949TIP3    H245339   1.716   0.035   0.289 -0.0110 -0.8408  2.4211
 7950TIP3   OH245340   5.585   5.039   5.447 -0.3788 -0.3537 -0.6666
 7950TIP3    H145341   5.578   5.135   5.448 -0.5762 -0.3433 -1.7816
 7950TIP3    H245342   5.507   5.010   5.399 -1.6743 -1.2450  1.7695
 7951TIP3   OH245343   2.474   1.435  13.113 -0.2435  0.2911  0.8037
 7951TIP3    H145344   2.471   1.531  13.109  1.1577  0.3530  0.8199
 7951TIP3    H245345   2.392   1.407  13.072 -0.9004  1.4977  1.2482
 7952TIP3   OH245346   3.941   1.469   2.158  0.0882 -0.5455  0.1886
 7952TIP3    H145347   3.893   1.523   2.220 -0.5770 -1.4387  0.4743
 7952TIP3    H245348   4.029   1.507   2.155 -0.4486  0.7196  0.1458
 7953TIP3   OH245349   1.083   1.759   5.496 -0.4778 -0.2037 -0.2436
 7953TIP3    H145350   1.125   1.767   5.582 -0.1447 -0.1950 -0.4062
 7953TIP3    H245351   1.040   1.844   5.483 -0.9240 -0.3713  0.1193
 7954TIP3   OH245352   2.747   4.512  11.679 -0.3244  0.4569 -0.0808
 7954TIP3    H145353   2.739   4.442  11.743 -1.2090  0.1769 -0.4887
 7954TIP3    H245354   2.739   4.468  11.594  1.6089  0.6986 -0.4551
 7955TIP3   OH245355   1.856   5.659  14.583  0.5892  0.5231  0.1418
 7955TIP3    H145356   1.790   5.683  14.519  0.2193 -0.3054  0.1970
 7955TIP3    H245357   1.812   5.666  14.668  0.1272 -1.3445  0.0951
 7956TIP3   OH245358   4.923   3.086   0.480  0.2500 -0.4967 -0.4009
 7956TIP3    H145359   4.920   3.180   0.500  0.3830 -0.5832  0.0390
 7956TIP3    H245360   4.965   3.047   0.556  1.6991 -0.7204 -1.2889
 7957TIP3   OH245361   6.305   1.368   2.898 -0.0011  0.3899 -0.3069
 7957TIP3    H145362   6.229   1.402   2.945  0.0812  0.0605  0.0736
 7957TIP3    H245363   6.271   1.296   2.845  0.4142 -1.4542  1.7670
 7958TIP3   OH245364   2.422   1.616  16.346 -0.2596 -0.3126  0.1423
 7958TIP3    H145365   2.412   1.572  16.262 -3.2007 -1.6359  1.0409
 7958TIP3    H245366   2.488   1.684  16.330 -0.3640 -0.7966 -3.0632
 7959TIP3   OH245367   1.037   3.003  14.616  0.1762  0.0968  0.2851
 7959TIP3    H145368   1.047   2.966  14.528 -0.8307 -0.6879  0.4892
 7959TIP3    H245369   0.948   3.038  14.617 -0.0757 -0.5582  1.2332
 7960TIP3   OH245370   6.472   6.470  13.394  0.0631  0.1764  0.7591
 7960TIP3    H145371   6.443   6.386  13.360  0.3606  0.4786 -0.2996
 7960TIP3    H245372   6.559   6.483  13.356 -0.6194  1.6711 -0.4208
 7961TIP3   OH245373   0.250   4.881   3.570 -0.0450  0.1623 -0.2677
 7961TIP3    H145374   0.332   4.835   3.588 -0.3254 -0.4422 -0.4932
 7961TIP3    H245375   0.224   4.850   3.483 -2.1367 -2.1374  1.0610
 7962TIP3   OH245376   6.385   6.217  12.500 -0.4544 -0.0809  0.1580
 7962TIP3    H145377   6.325   6.241  12.430 -0.0485 -1.6840 -0.7855
 7962TIP3    H245378   6.466   6.263  12.479 -0.3688 -0.4699 -0.3509
 7963TIP3   OH245379   6.578   5.872   3.384  0.2280 -0.5644  0.2884
 7963TIP3    H145380   6.625   5.912   3.456 -0.0168  0.1642  0.0550
 7963TIP3    H245381   6.647   5.843   3.323  0.3773  1.0949 -0.3674
 7964TIP3   OH245382   2.449   5.679  17.044  0.6062 -0.0610  0.2735
 7964TIP3    H145383   2.413   5.599  17.005 -0.1718  0.1973  0.4285
 7964TIP3    H245384   2.449   5.662  17.138  1.3137 -0.2188  0.2501
 7965TIP3   OH245385   5.697   1.722  12.639  0.7354 -0.1433 -0.0131
 7965TIP3    H145386   5.681   1.786  12.708  0.1105  0.9894 -1.1450
 7965TIP3    H245387   5.705   1.639  12.684 -1.4648  0.2680  1.2936
 7966TIP3   OH245388   4.481   3.893  13.420  0.1120  0.2222  1.1062
 7966TIP3    H145389   4.525   3.863  13.340  0.9803  0.2765  1.5641
 7966TIP3    H245390   4.395   3.923  13.389 -0.4414 -1.8280  0.4814
 7967TIP3   OH245391   6.596   5.567  13.362 -0.2911 -0.1689  0.4189
 7967TIP3    H145392   6.630   5.558  13.451  0.5267  0.5900  0.2052
 7967TIP3    H245393   6.528   5.635  13.370 -1.5576 -1.4312  0.7803
 7968TIP3   OH245394   1.244   3.627   2.547  0.5403 -0.3825  0.8001
 7968TIP3    H145395   1.320   3.585   2.507  0.2350  0.7756 -1.1164
 7968TIP3    H245396   1.264   3.721   2.545 -0.6387 -0.1078  0.8784
 7969TIP3   OH245397   2.907   0.527   5.297 -0.6216 -0.1818 -0.2593
 7969TIP3    H145398   2.939   0.569   5.217 -1.2881  1.0316  0.0999
 7969TIP3    H245399   2.934   0.435   5.288 -0.4296  0.0045 -1.7299
 7970TIP3   OH245400   4.191   0.517   4.622  0.2947 -0.0829  0.5815
 7970TIP3    H145401   4.260   0.579   4.597  1.5129 -0.6013  2.4397
 7970TIP3    H245402   4.158   0.483   4.539  1.1757  1.3539 -0.4046
 7971TIP3   OH245403   5.150   4.392   2.393  0.4037  0.3189  0.3008
 7971TIP3    H145404   5.072   4.403   2.338  0.7090  0.8909 -0.0249
 7971TIP3    H245405   5.149   4.299   2.416  1.3102 -0.4184 -2.2673
 7972TIP3   OH245406   0.446   5.815  15.127  0.2309 -0.2098 -0.1095
 7972TIP3    H145407   0.505   5.873  15.176  0.3574  1.0929 -1.7218
 7972TIP3    H245408   0.359   5.848  15.147  0.2710  0.1893 -0.5716
 7973TIP3   OH245409   0.562   4.671   1.026  0.1733 -0.2403 -0.0108
 7973TIP3    H145410   0.535   4.680   0.935 -0.5806  0.1272  0.2455
 7973TIP3    H245411   0.504   4.604   1.062 -2.4914  2.5590  1.3223
 7974TIP3   OH245412   0.781   0.864  16.978  0.1245  0.2961  0.0883
 7974TIP3    H145413   0.773   0.771  16.958 -0.2862  0.7732 -2.1225
 7974TIP3    H245414   0.876   0.880  16.976  0.1544  0.0848 -0.3113
 7975TIP3   OH245415   1.005   5.989   3.612 -0.1684  0.4882  0.2057
 7975TIP3    H145416   1.038   6.079   3.610 -0.1345  0.4688 -0.5002
 7975TIP3    H245417   0.939   5.986   3.542  0.0520 -0.1137  0.0174
 7976TIP3   OH245418   5.999   2.500  16.890 -0.4399  0.1619 -0.1602
 7976TIP3    H145419   6.026   2.556  16.962 -0.2638  0.8639 -0.7667
 7976TIP3    H245420   6.069   2.435  16.883  0.7421  1.4836 -1.1976
 7977TIP3   OH245421   6.386   1.552  16.482 -0.4024 -0.5328 -0.8196
 7977TIP3    H145422   6.313   1.538  16.422  0.0482  0.2814 -1.5681
 7977TIP3    H245423   6.445   1.611  16.436  0.0463 -0.0328  0.3400
 7978TIP3   OH245424   4.624   2.988   0.071  0.7720  0.4301 -0.4497
 7978TIP3    H145425   4.582   2.941  -0.001  1.9894  0.6534 -1.3365
 7978TIP3    H245426   4.679   2.923   0.114 -0.3379  0.1744  0.6115
 7979TIP3   OH245427   2.957   1.270  11.354  0.5913  0.3770 -0.1713
 7979TIP3    H145428   2.902   1.348  11.349  1.2231  0.8309 -0.0094
 7979TIP3    H245429   3.038   1.299  11.395  1.1062 -0.2098 -0.7503
 7980TIP3   OH245430   0.469   3.802  14.325 -0.3729 -0.1310  0.3685
 7980TIP3    H145431   0.457   3.720  14.373 -0.9271 -0.8970 -1.0096
 7980TIP3    H245432   0.459   3.777  14.233 -0.2514  1.4447 -0.0986
 7981TIP3   OH245433   6.362   0.992  15.486 -0.5447 -0.5385  0.2812
 7981TIP3    H145434   6.386   1.074  15.444 -2.6421 -0.6982 -1.3264
 7981TIP3    H245435   6.314   1.018  15.565 -0.5301 -0.2502  0.1947
 7982TIP3   OH245436   1.401   3.393  16.278  0.7832 -0.6440  0.5930
 7982TIP3    H145437   1.483   3.432  16.248  1.0829  0.1010  2.2910
 7982TIP3    H245438   1.400   3.408  16.372 -0.4289 -2.3083  0.8903
 7983TIP3   OH245439   5.364   2.369   6.592  0.0590  0.1595 -0.3191
 7983TIP3    H145440   5.297   2.426   6.628  1.8887  3.3483 -1.5095
 7983TIP3    H245441   5.403   2.326   6.669 -0.8924  1.0795  0.7119
 7984TIP3   OH245442   4.566   3.210  14.837  0.5155 -0.5219  0.4248
 7984TIP3    H145443   4.534   3.269  14.905  1.8955 -0.0303  0.6767
 7984TIP3    H245444   4.531   3.246  14.755 -1.2553 -1.1836  0.8370
 7985TIP3   OH245445   4.612   4.149   2.703 -0.1796 -0.0587  0.4595
 7985TIP3    H145446   4.597   4.064   2.662  0.2452  0.0777  0.0076
 7985TIP3    H245447   4.535   4.201   2.679 -0.5991 -0.4109  1.0133
 7986TIP3   OH245448   4.572   3.104  15.958 -0.5817  0.4232 -0.4162
 7986TIP3    H145449   4.638   3.063  16.013 -0.8660  0.1231 -0.3023
 7986TIP3    H245450   4.622   3.164  15.902 -0.0424 -0.7865 -1.2648
 7987TIP3   OH245451   5.115   4.573  15.173  0.2422  0.5391  0.6859
 7987TIP3    H145452   5.209   4.559  15.183  0.1297 -2.1501 -1.0847
 7987TIP3    H245453   5.078   4.558  15.260  1.2903  0.1403  1.0721
 7988TIP3   OH245454   5.883   5.310   5.288 -0.3931  0.0516  0.0130
 7988TIP3    H145455   5.968   5.315   5.243 -0.8631 -1.0692 -1.0562
 7988TIP3    H245456   5.884   5.224   5.331 -0.4742  0.5813  1.1079
 7989TIP3   OH245457   4.951   4.130  13.480 -0.2841 -0.2376 -0.2129
 7989TIP3    H145458   4.864   4.160  13.507  0.5642  2.0929  0.2092
 7989TIP3    H245459   4.972   4.059  13.540 -1.4972 -0.1630  0.3304
 7990TIP3   OH245460   2.265   4.283  11.716 -0.3181  0.0593 -0.0544
 7990TIP3    H145461   2.352   4.273  11.756 -1.0225 -2.2453  1.0729
 7990TIP3    H245462   2.249   4.378  11.716  2.8520  0.7547 -1.8825
 7991TIP3   OH245463   5.876   2.493   0.979  0.2417 -0.3519 -0.8366
 7991TIP3    H145464   5.891   2.485   1.073  1.7727 -1.1858 -1.1276
 7991TIP3    H245465   5.784   2.519   0.972  0.2644  0.3370  0.8966
 7992TIP3   OH245466   2.102   3.447   2.596 -0.1169  0.2497  0.1520
 7992TIP3    H145467   2.167   3.377   2.587 -0.0226  0.2402  0.8229
 7992TIP3    H245468   2.079   3.446   2.689 -0.6302  0.6529  0.0314
 7993TIP3   OH245469   0.541   5.800   3.184  0.5834 -0.7747 -0.4723
 7993TIP3    H145470   0.616   5.843   3.145  0.9388 -2.7352 -2.0979
 7993TIP3    H245471   0.578   5.729   3.237 -0.0848 -1.6367 -1.1245
 7994TIP3   OH245472   5.483   5.177   2.338 -0.4915  0.7280  0.3558
 7994TIP3    H145473   5.410   5.204   2.393 -1.5972  1.3703 -1.3564
 7994TIP3    H245474   5.472   5.083   2.328  0.8107  0.2508  2.6966
 7995TIP3   OH245475   3.330   4.654  12.458  0.7536  0.1263  0.2977
 7995TIP3    H145476   3.411   4.681  12.415  0.8506  1.5887  1.3240
 7995TIP3    H245477   3.353   4.646  12.551 -0.0439 -0.4553  0.4585
 7996TIP3   OH245478   6.708   4.938   4.668  0.2353 -0.7396 -0.3137
 7996TIP3    H145479   6.675   5.012   4.719 -1.2088 -0.0218 -2.1594
 7996TIP3    H245480   6.682   4.861   4.718 -0.0355 -0.0536  0.6354
 7997TIP3   OH245481   3.171   5.420  14.519  0.1665  0.1856 -0.3471
 7997TIP3    H145482   3.155   5.510  14.546 -0.0709  0.2238 -0.6207
 7997TIP3    H245483   3.255   5.424  14.472  1.6449 -0.2001  2.0707
 7998TIP3   OH245484   0.843   3.989  16.523  0.0008 -0.2488 -0.3631
 7998TIP3    H145485   0.822   3.977  16.430  0.0723 -0.5894 -0.3372
 7998TIP3    H245486   0.768   3.952  16.569  0.4365 -1.0553 -0.2755
 7999TIP3   OH245487   6.399   4.530  13.252  0.0372  0.1510  0.1645
 7999TIP3    H145488   6.406   4.478  13.332 -0.3418 -2.5532 -1.4596
 7999TIP3    H245489   6.485   4.525  13.212  0.2307  1.5160  0.3588
 8000TIP3   OH245490   4.682   1.473   5.795 -0.3476  0.4404 -0.0046
 8000TIP3    H145491   4.632   1.522   5.730 -0.1789  2.1622  1.1039
 8000TIP3    H245492   4.745   1.423   5.744 -1.5803  0.0988 -1.2708
 8001TIP3   OH245493   2.782   6.199   5.503  0.1431  0.3934 -0.5070
 8001TIP3    H145494   2.702   6.152   5.529  0.4622  0.4862  0.7279
 8001TIP3    H245495   2.843   6.130   5.479  0.0622  0.2558 -0.3271
 8002TIP3   OH245496   4.188   0.657   2.826 -0.0605  0.5424 -0.3898
 8002TIP3    H145497   4.208   0.563   2.829 -2.0917  0.0749  0.1171
 8002TIP3    H245498   4.195   0.680   2.734  0.0647 -0.1908 -0.5702
 8003TIP3   OH245499   5.544   1.323  12.514 -0.2861 -0.2841  0.4201
 8003TIP3    H145500   5.614   1.350  12.454  1.1430  0.7297  2.4205
 8003TIP3    H245501   5.576   1.242  12.553 -0.8435 -0.5277  0.3774
 8004TIP3   OH245502   6.757   5.922  15.030 -0.4599  0.2958  0.4030
 8004TIP3    H145503   6.798   5.837  15.017  0.4311  0.7235  0.3566
 8004TIP3    H245504   6.669   5.912  14.992  0.0856 -0.2190 -0.7786
 8005TIP3   OH245505   5.617   1.845  14.537 -0.7105 -0.2640  0.9353
 8005TIP3    H145506   5.673   1.873  14.465 -1.0548  0.7845  1.0592
 8005TIP3    H245507   5.664   1.873  14.616 -1.7327  1.3289  1.0269
 8006TIP3   OH245508   1.348   3.956  12.594  0.1307 -0.2550  0.6770
 8006TIP3    H145509   1.371   3.985  12.682 -1.7942  1.0906  0.7963
 8006TIP3    H245510   1.255   3.977  12.585  0.5349  0.8139 -2.1054
 8007TIP3   OH245511   1.989   2.862  13.569  0.0077 -0.4014  0.2423
 8007TIP3    H145512   2.052   2.800  13.604  0.2809 -1.5339 -2.0313
 8007TIP3    H245513   2.042   2.931  13.528 -0.2934  1.3254  2.5340
 8008TIP3   OH245514   4.517   0.558  13.892 -0.0438 -0.3623  0.0943
 8008TIP3    H145515   4.547   0.649  13.904 -1.3536  0.3624 -1.6426
 8008TIP3    H245516   4.440   0.550  13.948 -0.8046  0.0984 -0.8647
 8009TIP3   OH245517   3.873   4.792  11.726 -0.0759 -0.6010  0.1514
 8009TIP3    H145518   3.943   4.849  11.757  0.0212 -0.7358  0.1809
 8009TIP3    H245519   3.846   4.742  11.803 -2.0779  1.3542  0.8293
 8010TIP3   OH245520   3.257   0.372  17.089 -0.3681  0.0609 -0.2537
 8010TIP3    H145521   3.203   0.417  17.023 -0.8510  2.0268  1.3954
 8010TIP3    H245522   3.343   0.364  17.047 -0.7449  0.9473 -1.2618
 8011TIP3   OH245523   0.408   3.271  11.756 -0.0875 -0.0285 -0.0110
 8011TIP3    H145524   0.474   3.218  11.800 -0.6737  0.5663  1.6662
 8011TIP3    H245525   0.375   3.215  11.686 -0.8552 -2.0076  1.8306
 8012TIP3   OH245526   5.663   3.784   2.616 -0.1811  0.0113 -0.3846
 8012TIP3    H145527   5.611   3.853   2.656  0.1927 -0.4770  1.0225
 8012TIP3    H245528   5.698   3.823   2.537 -0.3121  1.3088  0.1706
 8013TIP3   OH245529   1.631   0.146   3.798 -0.1340  0.1722  0.1172
 8013TIP3    H145530   1.723   0.134   3.775 -0.3818 -0.7136 -0.4939
 8013TIP3    H245531   1.583   0.105   3.726 -1.0440  1.7551 -0.2360
 8014TIP3   OH245532   2.958   0.793   0.034 -0.0448 -0.1125 -0.4475
 8014TIP3    H145533   3.042   0.763   0.070 -1.1241 -2.6004  0.2264
 8014TIP3    H245534   2.967   0.784  -0.061  0.7302  0.5636 -0.4532
 8015TIP3   OH245535   0.758   5.233  17.031 -0.2299 -0.2782 -0.1973
 8015TIP3    H145536   0.845   5.264  17.004 -0.3099  0.4890  0.3845
 8015TIP3    H245537   0.754   5.143  16.999 -0.2466  0.4848 -2.5544
 8016TIP3   OH245538   3.402   3.245   0.233 -0.3784  0.0231 -0.5954
 8016TIP3    H145539   3.309   3.268   0.225 -0.4917 -0.2923 -0.2174
 8016TIP3    H245540   3.426   3.274   0.321 -0.2135 -0.2409 -0.5544
 8017TIP3   OH245541   5.792   4.822  14.413 -0.2891  0.1604  0.0256
 8017TIP3    H145542   5.839   4.739  14.414  1.1707  0.9221 -1.2877
 8017TIP3    H245543   5.700   4.798  14.401 -0.0222 -1.2805  0.6440
 8018TIP3   OH245544   6.256   0.467  13.380  0.0200 -0.1299  0.1874
 8018TIP3    H145545   6.220   0.549  13.346 -1.6299 -0.8472  0.1092
 8018TIP3    H245546   6.201   0.445  13.455 -0.2699 -1.7118 -0.4396
 8019TIP3   OH245547   0.560   4.569   2.725  0.1774 -0.1962  0.1062
 8019TIP3    H145548   0.494   4.623   2.682 -0.9897 -0.8321  1.0546
 8019TIP3    H245549   0.613   4.535   2.653 -0.6316  0.1838 -0.6921
 8020TIP3   OH245550   2.389   3.298   4.060  0.0307 -0.1123  0.2278
 8020TIP3    H145551   2.445   3.266   4.132 -1.3717 -0.6487  1.1253
 8020TIP3    H245552   2.323   3.230   4.049  1.1925 -0.8792 -2.8075
 8021TIP3   OH245553   6.413   1.702  17.198 -0.4575 -0.3206  0.6820
 8021TIP3    H145554   6.504   1.719  17.222  0.4006 -0.0392 -2.3902
 8021TIP3    H245555   6.372   1.788  17.198 -0.5894 -0.3774  1.5055
 8022TIP3   OH245556   2.553   6.528  14.779  0.2117 -0.3634  0.0683
 8022TIP3    H145557   2.475   6.536  14.834  1.3873 -0.4105  1.8246
 8022TIP3    H245558   2.622   6.499  14.839  1.4498 -0.9385 -1.5521
 8023TIP3   OH245559   0.420   1.188  13.727  0.4451  0.2403 -0.4359
 8023TIP3    H145560   0.327   1.171  13.707  0.2700 -0.1434  0.6396
 8023TIP3    H245561   0.429   1.163  13.818  1.4830  0.8543 -0.3632
 8024TIP3   OH245562   1.216   2.645   0.202  0.2422 -0.5963  0.3490
 8024TIP3    H145563   1.195   2.583   0.271  0.1148 -0.9930 -0.0426
 8024TIP3    H245564   1.181   2.728   0.232 -1.5930 -1.1492 -0.1203
 8025TIP3   OH245565   4.253   1.190   4.135 -0.2573 -0.1933 -0.5739
 8025TIP3    H145566   4.198   1.268   4.142 -0.7929 -0.5049 -1.2424
 8025TIP3    H245567   4.199   1.125   4.090  0.1610 -0.9823  0.0235
 8026TIP3   OH245568   1.740   6.522   2.381 -0.1505 -0.0001 -0.3024
 8026TIP3    H145569   1.761   6.429   2.385 -1.6346 -0.3233  0.9873
 8026TIP3    H245570   1.666   6.527   2.320 -2.6139 -0.2910  2.4042
 8027TIP3   OH245571   3.023   6.396  12.850  0.0869  0.0332  0.2277
 8027TIP3    H145572   2.993   6.359  12.933  0.6708  0.8756  0.8342
 8027TIP3    H245573   2.944   6.433  12.810 -0.0834  0.2425  0.7472
 8028TIP3   OH245574   4.682   5.644   2.987 -0.4677 -0.6411  0.1904
 8028TIP3    H145575   4.603   5.664   2.937  0.6971 -1.0010 -1.9707
 8028TIP3    H245576   4.653   5.587   3.058 -2.3952  0.8563  0.6655
 8029TIP3   OH245577   4.840   0.804   0.538 -0.7539 -0.0105  0.3297
 8029TIP3    H145578   4.796   0.721   0.519 -1.5177  0.3421  0.5067
 8029TIP3    H245579   4.865   0.838   0.452  0.6133 -0.9620  0.3168
 8030TIP3   OH245580   2.607   0.834  17.162  0.2937 -0.0799 -0.4819
 8030TIP3    H145581   2.664   0.910  17.149  0.5922 -0.5823 -2.4788
 8030TIP3    H245582   2.622   0.808  17.253 -0.5853  2.8268  0.5940
 8031TIP3   OH245583   1.500   1.028  10.545  0.2769 -0.2591 -0.2311
 8031TIP3    H145584   1.496   1.012  10.639 -2.1217 -1.2164 -0.4292
 8031TIP3    H245585   1.570   0.970  10.515  1.4868  0.5017  1.0110
 8032TIP3   OH245586   5.187   0.400  16.059  0.3224 -0.3136 -0.0459
 8032TIP3    H145587   5.180   0.495  16.063 -0.2128 -0.3872  1.6671
 8032TIP3    H245588   5.123   0.374  15.993 -0.8889  0.4165  0.8009
 8033TIP3   OH245589   2.673   0.719   5.017 -0.8113  0.3325  0.3045
 8033TIP3    H145590   2.738   0.650   5.018 -1.5491 -0.4827 -2.0163
 8033TIP3    H245591   2.666   0.747   5.109  1.6970 -0.5202  0.8268
 8034TIP3   OH245592   5.533   0.894  16.257 -0.0938  0.1367 -0.1502
 8034TIP3    H145593   5.502   0.961  16.318 -1.4342 -0.0624 -0.5797
 8034TIP3    H245594   5.627   0.909  16.251  0.0314  0.3183  1.7580
 8035TIP3   OH245595   0.821   3.131  13.654 -0.3022 -0.6583 -0.2629
 8035TIP3    H145596   0.904   3.176  13.637 -1.0571  0.1384 -2.1800
 8035TIP3    H245597   0.822   3.055  13.597 -1.2258 -0.1632 -0.9801
 8036TIP3   OH245598   6.343   5.418   3.781 -0.3337 -0.1799 -0.2561
 8036TIP3    H145599   6.271   5.478   3.800 -0.1199 -0.4071  1.4992
 8036TIP3    H245600   6.316   5.371   3.702 -1.2052  1.1155 -0.7445
 8037TIP3   OH245601   5.344   5.211   2.997  0.5921  0.0252  0.0137
 8037TIP3    H145602   5.427   5.229   2.952  0.2922  1.3885 -0.0339
 8037TIP3    H245603   5.364   5.227   3.089  0.4278  0.1883  0.0203
 8038TIP3   OH245604   2.700   1.071  16.577  0.5796  0.2989 -0.1239
 8038TIP3    H145605   2.727   1.157  16.609  2.3441 -0.1334 -0.3150
 8038TIP3    H245606   2.723   1.073  16.484 -0.7642  0.1299 -0.4762
 8039TIP3   OH245607   6.057   5.428   4.816 -0.0743 -0.0101  0.1474
 8039TIP3    H145608   5.977   5.410   4.866  0.4876  1.0494  1.4811
 8039TIP3    H245609   6.078   5.519   4.836  1.1573 -0.1054 -0.6357
 8040TIP3   OH245610   4.353   5.969  11.607 -0.2160 -0.2154  0.3079
 8040TIP3    H145611   4.273   6.000  11.649 -0.2344 -0.3220  0.3542
 8040TIP3    H245612   4.390   5.908  11.671  0.3643  0.5015  0.6702
 8041TIP3   OH245613   6.337   4.182   5.755 -0.1196  0.1820  0.3298
 8041TIP3    H145614   6.307   4.160   5.843  0.1250  1.7898  0.8501
 8041TIP3    H245615   6.286   4.126   5.698 -1.5118  0.2831  1.4066
 8042TIP3   OH245616   0.959   6.492  15.391 -0.5041  0.1773 -0.2699
 8042TIP3    H145617   1.007   6.412  15.365  0.0304  0.0609  1.0221
 8042TIP3    H245618   0.963   6.492  15.486 -0.9824  1.4732 -0.2394
 8043TIP3   OH245619   6.123   6.736  14.023 -0.1438 -0.1412  0.0259
 8043TIP3    H145620   6.120   6.827  13.993  2.6778  0.0576  0.0123
 8043TIP3    H245621   6.042   6.723  14.072 -0.5332  2.4269  0.1716
 8044TIP3   OH245622   3.844   5.895  11.211 -0.3489  0.1409 -1.1054
 8044TIP3    H145623   3.929   5.880  11.169 -1.2812 -0.9250 -2.7493
 8044TIP3    H245624   3.860   5.964  11.274  1.4499  0.9596 -2.3641
 8045TIP3   OH245625   5.271   0.895   3.759  0.4360 -0.3692  0.2010
 8045TIP3    H145626   5.211   0.901   3.833  0.9500  0.7652  0.5425
 8045TIP3    H245627   5.302   0.984   3.746 -0.1902 -0.3967 -1.8463
 8046TIP3   OH245628   5.397   1.842  14.119 -0.4416  0.6938  0.2446
 8046TIP3    H145629   5.439   1.926  14.099 -0.0369  0.3919 -0.2210
 8046TIP3    H245630   5.314   1.865  14.160  0.1792  1.3095  1.1898
 8047TIP3   OH245631   0.986   6.316   4.126 -0.2603 -0.1208  1.1051
 8047TIP3    H145632   0.893   6.295   4.112  0.1725 -1.3923 -0.0675
 8047TIP3    H245633   1.033   6.237   4.099  1.2313  0.8359  0.7665
 8048TIP3   OH245634   5.623   0.289  16.290  0.4160  0.3652 -0.0310
 8048TIP3    H145635   5.634   0.263  16.382  0.4541  0.2737 -0.0605
 8048TIP3    H245636   5.533   0.262  16.269  1.3075 -2.3144 -0.8659
 8049TIP3   OH245637   0.127   0.388   5.555  0.0501  0.4412 -0.1855
 8049TIP3    H145638   0.078   0.330   5.612  0.0031 -0.5310 -1.1920
 8049TIP3    H245639   0.197   0.333   5.519  0.5853  1.2548 -0.4217
 8050TIP3   OH245640   6.183   1.522  13.874 -0.0173 -0.0172 -0.9507
 8050TIP3    H145641   6.240   1.596  13.897  0.8208 -1.4095  1.9392
 8050TIP3    H245642   6.229   1.477  13.804  1.9633 -0.4916  0.5891
 8051TIP3   OH245643   1.495   3.959   1.895 -0.2339  0.1600 -0.0248
 8051TIP3    H145644   1.535   3.878   1.928 -0.3203  0.7204  1.5364
 8051TIP3    H245645   1.403   3.936   1.882 -0.4649  0.2523  1.3574
 8052TIP3   OH245646   4.057   5.544  11.562 -0.3879 -0.4966 -0.2233
 8052TIP3    H145647   4.129   5.483  11.544 -0.3668 -0.2914 -0.8392
 8052TIP3    H245648   4.074   5.619  11.506 -0.5419 -0.0128  0.3624
 8053TIP3   OH245649   6.207   2.168  12.473  0.5999  0.1006  0.4254
 8053TIP3    H145650   6.155   2.115  12.412  0.2860  0.8946 -0.0072
 8053TIP3    H245651   6.259   2.104  12.521  3.1213 -0.4722 -2.6898
 8054TIP3   OH245652   4.462   2.167   3.812  0.2815 -0.5541 -0.0194
 8054TIP3    H145653   4.411   2.247   3.803 -0.1585 -0.5931  1.6884
 8054TIP3    H245654   4.405   2.107   3.861  2.1943 -0.2708  2.8336
 8055TIP3   OH245655   4.044   3.289   4.429 -0.3487  0.6641 -0.4316
 8055TIP3    H145656   3.979   3.336   4.481 -1.3303 -0.9309 -0.1447
 8055TIP3    H245657   4.096   3.241   4.493 -0.9145 -0.5083 -0.8148
 8056TIP3   OH245658   1.878   0.868   2.261 -0.1002 -0.5660 -0.3042
 8056TIP3    H145659   1.866   0.857   2.166  0.0902  1.2641 -0.5945
 8056TIP3    H245660   1.841   0.789   2.300 -0.3346 -1.2805 -1.8967
 8057TIP3   OH245661   3.052   0.246   6.678 -0.0936 -0.0381  0.6323
 8057TIP3    H145662   3.029   0.182   6.746 -0.1014  0.0471  0.7092
 8057TIP3    H245663   3.025   0.330   6.714 -2.5368 -0.2289 -0.5525
 8058TIP3   OH245664   5.521   0.373  12.740  0.5150 -0.0433  0.2658
 8058TIP3    H145665   5.462   0.375  12.816 -1.1212  0.6960 -0.9593
 8058TIP3    H245666   5.579   0.299  12.757 -0.4124 -0.4797  1.7872
 8059TIP3   OH245667   5.021   2.874  17.064  0.0858  0.7578  0.6383
 8059TIP3    H145668   5.109   2.884  17.029 -0.1419 -1.9729 -0.9986
 8059TIP3    H245669   4.979   2.959  17.049  1.2961  0.9851 -2.0253
 8060TIP3   OH245670   4.419   4.534   5.900 -0.1252 -0.1911 -0.0743
 8060TIP3    H145671   4.389   4.448   5.869 -1.0036  0.3399 -0.7535
 8060TIP3    H245672   4.398   4.534   5.993 -1.6300 -0.1196 -0.3774
 8061TIP3   OH245673   6.441   6.237  16.259 -0.5645  0.0348 -0.1202
 8061TIP3    H145674   6.402   6.152  16.240 -2.3970  0.9052 -0.5003
 8061TIP3    H245675   6.470   6.230  16.350 -1.0165 -0.8707 -0.0326
 8062TIP3   OH245676   0.642   0.772   1.235 -0.5655  0.5041  0.1848
 8062TIP3    H145677   0.629   0.678   1.226 -1.2526  0.7097 -1.4158
 8062TIP3    H245678   0.726   0.781   1.279  0.4554 -0.8740 -1.3578
 8063TIP3   OH245679   2.011   5.412   0.017 -0.4858  0.3237  0.5020
 8063TIP3    H145680   2.095   5.402  -0.026 -0.8600  1.9031 -0.6666
 8063TIP3    H245681   2.015   5.351   0.091  1.2175 -0.4630 -0.1862
 8064TIP3   OH245682   4.231   5.790  15.401  0.2401 -0.2334 -0.3778
 8064TIP3    H145683   4.307   5.846  15.417  1.2419 -1.4958 -0.5338
 8064TIP3    H245684   4.251   5.746  15.317  0.6483 -2.6062  0.8625
 8065TIP3   OH245685   4.225   0.348  14.334  0.1040  0.3377  0.5524
 8065TIP3    H145686   4.196   0.417  14.274 -0.8108  1.0173  1.7247
 8065TIP3    H245687   4.244   0.394  14.416  0.7576 -0.6419  0.9717
 8066TIP3   OH245688   6.075   3.304  14.919  0.1184  0.4024 -0.2841
 8066TIP3    H145689   6.124   3.385  14.901 -0.8082  1.3091  1.0771
 8066TIP3    H245690   6.014   3.296  14.846  0.5526  0.6481 -0.6810
 8067TIP3   OH245691   5.499   1.619   4.337  0.5398 -0.2359 -0.3041
 8067TIP3    H145692   5.576   1.580   4.295  0.9110 -0.8287  0.8951
 8067TIP3    H245693   5.432   1.617   4.269  0.8793 -1.9265 -0.6274
 8068TIP3   OH245694   0.100   1.414  12.433  0.4722 -0.5745  0.1006
 8068TIP3    H145695   0.077   1.328  12.470  1.9715 -1.2830 -0.5274
 8068TIP3    H245696   0.016   1.458  12.421 -0.3041 -1.7802  0.8457
 8069TIP3   OH245697   3.029   4.842  16.607 -0.4291  1.0995 -0.2102
 8069TIP3    H145698   3.116   4.830  16.570  0.2130  4.0789  0.0314
 8069TIP3    H245699   2.969   4.827  16.534  0.0967 -2.1238 -0.1105
 8070TIP3   OH245700   0.151   5.270  15.026  0.3990  0.2226  0.1144
 8070TIP3    H145701   0.244   5.284  15.038  0.2758  0.5370  0.7621
 8070TIP3    H245702   0.142   5.176  15.011  0.8321  0.2163 -0.1019
 8071TIP3   OH245703   3.076   3.368   3.490  0.6521  0.3434  0.1444
 8071TIP3    H145704   3.015   3.441   3.498  0.0959 -0.1393  0.3805
 8071TIP3    H245705   3.030   3.293   3.528  0.0170 -0.8258 -2.6921
 8072TIP3   OH245706   3.871   4.986  11.523 -0.1445  0.2312 -0.5041
 8072TIP3    H145707   3.818   4.943  11.590  0.0646  0.3896 -0.2369
 8072TIP3    H245708   3.935   4.920  11.497  0.5026  0.5392  0.2716
 8073TIP3   OH245709   1.110   1.593   1.507  0.2279 -0.1632  0.2030
 8073TIP3    H145710   1.159   1.560   1.582  0.5035 -0.2767 -0.0224
 8073TIP3    H245711   1.136   1.536   1.435  1.0269  0.7759 -0.2928
 8074TIP3   OH245712   3.083   0.448  15.233 -0.2848  0.0486 -0.6058
 8074TIP3    H145713   3.075   0.401  15.315 -1.3323  0.6797 -0.3316
 8074TIP3    H245714   3.164   0.499  15.242  1.0910 -1.9314 -1.0673
 8075TIP3   OH245715   4.484   0.149  13.810  0.3381  0.0005 -0.6909
 8075TIP3    H145716   4.486   0.112  13.899  0.5349 -0.2839 -0.8142
 8075TIP3    H245717   4.443   0.080  13.757 -0.8401  0.6118 -0.6147
 8076TIP3   OH245718   5.158   1.683  15.008 -0.4552  0.4308 -0.2941
 8076TIP3    H145719   5.110   1.681  14.926  0.0453 -0.4505 -0.5816
 8076TIP3    H245720   5.180   1.775  15.021 -0.0368  0.5140 -1.4598
 8077TIP3   OH245721   3.118   2.703   2.877 -0.1752  0.3674 -0.1015
 8077TIP3    H145722   3.158   2.686   2.792  0.3434  0.0594  0.1973
 8077TIP3    H245723   3.104   2.798   2.879  0.0927  0.4133 -0.4032
 8078TIP3   OH245724   5.169   4.779   3.159 -0.3254  0.0543  0.1037
 8078TIP3    H145725   5.113   4.729   3.099 -1.2809  0.5331  0.5668
 8078TIP3    H245726   5.159   4.870   3.129  1.7413 -0.0318 -1.0133
 8079TIP3   OH245727   3.053   3.161   5.289 -0.4035 -0.0851  0.0198
 8079TIP3    H145728   3.038   3.245   5.331  1.2952  0.2216  0.0479
 8079TIP3    H245729   3.107   3.181   5.213  0.4713 -1.2049  0.3273
 8080TIP3   OH245730   2.217   0.442   1.640  0.3562  0.0681 -1.1121
 8080TIP3    H145731   2.229   0.471   1.730  0.5976 -1.8596 -0.4660
 8080TIP3    H245732   2.208   0.522   1.589  1.7323  1.2561  0.4151
 8081TIP3   OH245733   5.947   2.675   4.274  0.0519 -0.0398  0.1455
 8081TIP3    H145734   5.966   2.725   4.353  1.6845  0.1504 -0.3322
 8081TIP3    H245735   5.985   2.727   4.203 -1.1594 -0.3279 -0.7555
 8082TIP3   OH245736   4.471   1.780  13.811 -0.2055  0.2660  0.0280
 8082TIP3    H145737   4.505   1.868  13.829  1.2244 -0.4242  0.8576
 8082TIP3    H245738   4.523   1.749  13.736  0.8699 -0.6945  1.1360
 8083TIP3   OH245739   4.746   4.567  11.726 -0.3210  0.3312 -0.7950
 8083TIP3    H145740   4.702   4.645  11.692 -1.7624 -0.1846 -0.1555
 8083TIP3    H245741   4.690   4.536  11.797  1.1165 -0.3201  0.0956
 8084TIP3   OH245742   3.848   5.007  16.040 -0.5181 -0.0889 -0.0892
 8084TIP3    H145743   3.768   5.033  16.086 -0.3602  2.0966 -0.9497
 8084TIP3    H245744   3.832   5.031  15.949  1.2507  0.7767 -0.2065
 8085TIP3   OH245745   2.480   0.352  16.934 -0.0818  0.7088  0.0176
 8085TIP3    H145746   2.394   0.338  16.975 -0.4207  1.0879 -0.5550
 8085TIP3    H245747   2.490   0.447  16.931 -0.4266  0.7266 -1.4909
 8086TIP3   OH245748   1.537   6.257  13.690 -0.1883  0.0510  0.1093
 8086TIP3    H145749   1.496   6.316  13.754 -1.0531 -0.8446  0.3985
 8086TIP3    H245750   1.489   6.175  13.698  1.4756 -0.9558  0.2272
 8087TIP3   OH245751   4.654   1.393  12.142  0.1005 -0.7389 -0.2098
 8087TIP3    H145752   4.745   1.422  12.134  0.1217 -0.4573  0.8748
 8087TIP3    H245753   4.614   1.419  12.059  0.1592  2.3299  0.5745
 8088TIP3   OH245754   1.017   0.326  11.462 -0.1679  0.0192 -0.7762
 8088TIP3    H145755   0.969   0.246  11.439  0.2102 -0.8153  1.0848
 8088TIP3    H245756   1.108   0.299  11.466 -0.1213  0.2861  0.7069
 8089TIP3   OH245757   0.883   5.385  10.510  0.4124 -0.0974  0.0872
 8089TIP3    H145758   0.940   5.458  10.487  0.4533  0.5421  2.0908
 8089TIP3    H245759   0.816   5.423  10.566 -0.4326 -1.3412 -0.0312
 8090TIP3   OH245760   0.766   5.461   3.613  0.0537  0.1357  0.2273
 8090TIP3    H145761   0.838   5.487   3.671  0.2429  2.1231 -0.8085
 8090TIP3    H245762   0.687   5.485   3.661  0.0504 -1.2227  0.9792
 8091TIP3   OH245763   2.611   6.412  16.182  0.1803  0.6820  0.3050
 8091TIP3    H145764   2.540   6.465  16.218 -0.0389  2.2315 -2.1512
 8091TIP3    H245765   2.676   6.476  16.152  1.0797 -0.5538 -0.4928
 8092TIP3   OH245766   1.529   0.131  14.952  0.5819  0.0005  0.0043
 8092TIP3    H145767   1.455   0.180  14.989  0.1334 -0.1096 -0.7140
 8092TIP3    H245768   1.515   0.135  14.857  2.2376  1.1140 -0.2384
 8093TIP3   OH245769   0.826   3.026   3.635 -0.0734  0.2335  0.6439
 8093TIP3    H145770   0.776   2.972   3.573  0.2752 -1.5790  1.8416
 8093TIP3    H245771   0.768   3.099   3.655 -1.6968 -1.0297  0.8386
 8094TIP3   OH245772   4.044   0.816  16.444 -0.2753  1.2344 -0.5201
 8094TIP3    H145773   3.960   0.812  16.488  0.1101 -0.1508  0.1211
 8094TIP3    H245774   4.104   0.765  16.499  0.6685  1.0655 -1.6472
 8095TIP3   OH245775   2.463   6.340   4.815  0.2152  0.5366 -0.2347
 8095TIP3    H145776   2.520   6.398   4.867 -0.4748  1.8451 -0.8796
 8095TIP3    H245777   2.399   6.307   4.879  0.8952  0.1004  0.2336
 8096TIP3   OH245778   6.806   1.084   3.263 -0.2111 -0.1209  0.6610
 8096TIP3    H145779   6.745   1.151   3.292  0.3514  1.0156 -0.6850
 8096TIP3    H245780   6.789   1.074   3.170  0.6598 -0.8385  0.5594
 8097TIP3   OH245781   1.844   0.126  14.847  0.0030 -0.5542 -0.1774
 8097TIP3    H145782   1.771   0.143  14.907  1.0202  0.0693  0.9262
 8097TIP3    H245783   1.820   0.045  14.802 -2.2511  0.6177 -1.2480
 8098TIP3   OH245784   2.225   0.977  13.839 -0.5856 -0.5231  0.3005
 8098TIP3    H145785   2.239   1.036  13.913 -0.3316  0.9814 -0.9136
 8098TIP3    H245786   2.312   0.944  13.817 -0.4595  0.1327 -0.2057
 8099TIP3   OH245787   5.980   3.718  16.049  0.2032  0.4934  0.7165
 8099TIP3    H145788   5.962   3.733  16.141 -1.1606  3.6408  0.0945
 8099TIP3    H245789   6.035   3.793  16.023  0.2154 -0.0937 -1.1130
 8100TIP3   OH245790   5.809   5.914  12.910 -0.7599 -0.2992  0.5474
 8100TIP3    H145791   5.803   6.009  12.910  0.8992 -0.0896 -1.7407
 8100TIP3    H245792   5.871   5.894  12.981 -0.0937  0.4742  0.2053
 8101TIP3   OH245793   1.324   3.062   4.624  0.5722  0.4667 -0.1952
 8101TIP3    H145794   1.265   3.087   4.695 -0.6968 -1.9102 -0.3076
 8101TIP3    H245795   1.412   3.079   4.658 -0.0833  2.8391  0.4822
 8102TIP3   OH245796   4.168   4.312   2.267  0.0121  0.6449  0.1640
 8102TIP3    H145797   4.189   4.388   2.321  0.5380 -0.8477  2.1745
 8102TIP3    H245798   4.150   4.242   2.330 -0.4722 -0.8971 -1.6060
 8103TIP3   OH245799   0.964   2.284  12.310 -0.4970 -0.2899 -0.1336
 8103TIP3    H145800   1.010   2.313  12.389 -0.4344 -1.1038  0.1444
 8103TIP3    H245801   0.879   2.252  12.343 -1.5434  1.7476 -0.6969
 8104TIP3   OH245802   3.906   2.275  11.519  0.0865 -0.0388  0.1054
 8104TIP3    H145803   3.983   2.245  11.566  0.5705  0.5598 -0.2971
 8104TIP3    H245804   3.915   2.238  11.431  0.6097  1.1230 -0.3469
 8105TIP3   OH245805   3.694   0.054   0.644 -0.2832  0.3261  0.0751
 8105TIP3    H145806   3.781   0.064   0.683  0.3315  0.5722 -1.3029
 8105TIP3    H245807   3.670  -0.037   0.662  0.4784  0.1109  0.0281
 8106TIP3   OH245808   0.090   2.174   4.523  0.4296  0.1032  0.8292
 8106TIP3    H145809   0.149   2.120   4.469  0.2863 -0.8340  1.5828
 8106TIP3    H245810   0.007   2.172   4.475  0.1790 -1.0861  1.2661
 8107TIP3   OH245811   0.411   2.094  16.272 -0.4614  0.5490 -0.5279
 8107TIP3    H145812   0.345   2.025  16.272 -1.8870  1.7347  2.8469
 8107TIP3    H245813   0.490   2.052  16.306 -0.8102  0.1936 -0.1540
 8108TIP3   OH245814   2.126   0.875   0.729 -0.5271  0.5225  0.1543
 8108TIP3    H145815   2.210   0.874   0.774  0.8142 -2.2575 -2.1012
 8108TIP3    H245816   2.063   0.844   0.793  0.0362  2.7149  1.9067
 8109TIP3   OH245817   3.707   2.369  14.207 -0.0946 -0.6107 -0.0647
 8109TIP3    H145818   3.715   2.274  14.213  2.1447 -0.5164 -0.8772
 8109TIP3    H245819   3.788   2.398  14.165 -0.8251  1.6476 -0.0503
 8110TIP3   OH245820   0.953   1.110   4.636 -0.0638  0.4390 -0.1693
 8110TIP3    H145821   0.963   1.085   4.728  1.1178  2.4069  0.2854
 8110TIP3    H245822   1.017   1.056   4.590 -0.9189 -0.8331  0.0535
 8111TIP3   OH245823   3.121   4.053  17.002  0.8473 -1.1000  0.4063
 8111TIP3    H145824   3.155   4.135  16.968  1.0364 -1.0365  0.7436
 8111TIP3    H245825   3.054   4.079  17.065  2.0843 -1.1375  1.8056
 8112TIP3   OH245826   2.695   0.263  16.777 -0.1664  0.1745  0.1345
 8112TIP3    H145827   2.695   0.169  16.759 -0.1888  0.0350  0.8140
 8112TIP3    H245828   2.625   0.275  16.842 -0.3615  0.7080 -0.1662
 8113TIP3   OH245829   1.825   4.594   0.521 -0.2141  0.1215 -0.1315
 8113TIP3    H145830   1.785   4.643   0.592 -0.2907  0.1260 -0.1779
 8113TIP3    H245831   1.796   4.504   0.535  0.0532  0.0618  0.0441
 8114TIP3   OH245832   2.632   3.971  14.845  0.1776 -0.3011 -0.2496
 8114TIP3    H145833   2.654   4.027  14.770 -1.8159  0.9809  0.0204
 8114TIP3    H245834   2.655   4.024  14.922  0.0814 -0.6616  0.0313
 8115TIP3   OH245835   5.553   3.540  11.027  0.0573 -0.0641  0.5621
 8115TIP3    H145836   5.598   3.522  10.945  0.9250 -0.6222  1.1431
 8115TIP3    H245837   5.598   3.485  11.091 -0.6637  0.2958  1.3940
 8116TIP3   OH245838   3.303   5.969   2.223 -0.6203  0.6716  0.3962
 8116TIP3    H145839   3.317   5.878   2.251 -1.7409  0.7609  1.3369
 8116TIP3    H245840   3.317   5.967   2.129 -3.3630 -1.1247 -0.0857
 8117TIP3   OH245841   6.546   4.582  17.159 -0.0755 -0.0021  0.4966
 8117TIP3    H145842   6.584   4.601  17.073  0.9247  1.7095  1.2693
 8117TIP3    H245843   6.610   4.526  17.203 -0.8672 -1.3958 -0.0507
 8118TIP3   OH245844   1.648   3.588  17.234  0.6293 -0.0176 -0.0195
 8118TIP3    H145845   1.636   3.504  17.189  0.1841  0.6119 -1.1142
 8118TIP3    H245846   1.692   3.643  17.170  0.7784  0.6429  0.6362
 8119TIP3   OH245847   1.063   5.425  17.132 -0.0614  0.2079 -0.4804
 8119TIP3    H145848   1.096   5.358  17.192 -0.2693  0.9351  0.4647
 8119TIP3    H245849   1.001   5.475  17.184 -0.0051  1.0537 -1.2122
 8120TIP3   OH245850   1.867   2.084   4.687 -0.8872  0.1274  0.6581
 8120TIP3    H145851   1.805   2.141   4.641  0.1212  0.3823 -0.4550
 8120TIP3    H245852   1.813   2.016   4.727 -1.8692  0.1713 -0.5406
 8121TIP3   OH245853   6.815   5.861  17.157 -0.4730 -0.6846 -0.4554
 8121TIP3    H145854   6.829   5.868  17.252  0.6485 -0.2685 -0.6386
 8121TIP3    H245855   6.871   5.790  17.129  1.3463  0.9460 -1.1907
 8122TIP3   OH245856   0.125   3.970   0.569 -0.1704  0.3507  0.2772
 8122TIP3    H145857   0.058   4.011   0.623 -3.2890  0.6261 -3.3933
 8122TIP3    H245858   0.158   4.041   0.513 -0.6886 -0.7264 -1.4819
 8123TIP3   OH245859   3.378   2.579   5.764 -0.2473  0.6642 -0.2842
 8123TIP3    H145860   3.360   2.671   5.780 -4.1371  0.2382 -1.1791
 8123TIP3    H245861   3.367   2.568   5.669  2.1067 -0.4326 -0.4965
 8124TIP3   OH245862   1.246   1.688  14.655  0.2398  0.1688  0.6306
 8124TIP3    H145863   1.197   1.609  14.674  1.2729 -0.0476  2.6421
 8124TIP3    H245864   1.225   1.748  14.727  1.3574  0.7955  0.4679
 8125TIP3   OH245865   1.728   6.386   0.993  0.3331 -0.0246  0.4022
 8125TIP3    H145866   1.748   6.415   0.903  1.1881 -2.1257 -0.1355
 8125TIP3    H245867   1.639   6.419   1.009  0.2989  0.6908 -1.0737
 8126TIP3   OH245868   3.815   2.318  14.564 -0.1876 -0.1158  0.0051
 8126TIP3    H145869   3.842   2.261  14.637  1.3235  0.6083  0.0656
 8126TIP3    H245870   3.893   2.322  14.508 -0.6082  1.0835 -0.5150
 8127TIP3   OH245871   2.175   5.521  13.526 -0.3400  0.0650 -0.0004
 8127TIP3    H145872   2.269   5.542  13.532 -0.3962  0.8690 -1.4182
 8127TIP3    H245873   2.133   5.586  13.583 -0.1242  0.6294 -0.4680
 8128TIP3   OH245874   1.415   0.632   0.430 -0.3357 -0.1439  0.0048
 8128TIP3    H145875   1.448   0.623   0.519 -2.0703 -3.0383  0.4690
 8128TIP3    H245876   1.473   0.578   0.377  0.9015  1.8357 -0.7971
 8129TIP3   OH245877   4.015   5.365  17.131 -0.6408  0.2844  0.0026
 8129TIP3    H145878   4.046   5.426  17.064  0.1189 -1.9499 -1.8340
 8129TIP3    H245879   4.055   5.395  17.212  1.8670  0.7381 -1.3093
 8130TIP3   OH245880   0.773   1.396   0.177 -0.1785  0.3140 -0.3607
 8130TIP3    H145881   0.839   1.327   0.186 -0.5335 -0.2617 -1.8529
 8130TIP3    H245882   0.769   1.437   0.263  0.9755 -0.6829  0.1963
 8131TIP3   OH245883   0.178   1.896   6.082 -0.3078  0.0490  0.4140
 8131TIP3    H145884   0.105   1.919   6.024  0.1280 -0.7667 -0.4856
 8131TIP3    H245885   0.139   1.893   6.169 -1.7644 -2.0445 -0.2350
 8132TIP3   OH245886   3.917   4.388  15.250 -0.1942 -0.1033 -0.0068
 8132TIP3    H145887   3.833   4.434  15.254 -0.1323 -0.0218  0.4968
 8132TIP3    H245888   3.926   4.347  15.337  0.0931 -0.4548 -0.1979
 8133TIP3   OH245889   1.559   0.960  16.656  0.3967 -0.4065  0.2554
 8133TIP3    H145890   1.515   0.911  16.585  1.4020 -1.5360  0.3742
 8133TIP3    H245891   1.643   0.915  16.667  0.7613  0.5065  1.3547
 8134TIP3   OH245892   3.754   0.717   4.176 -0.3923  0.4973  0.3550
 8134TIP3    H145893   3.799   0.794   4.141 -0.0309  0.7982  1.4270
 8134TIP3    H245894   3.678   0.704   4.119 -0.3800  1.5729  0.0840
 8135TIP3   OH245895   3.607   3.897   1.070 -0.4195 -0.2245  0.2176
 8135TIP3    H145896   3.576   3.963   1.008  0.0435 -0.7057 -0.5413
 8135TIP3    H245897   3.675   3.943   1.120 -1.0876  0.2923  0.6794
 8136TIP3   OH245898   1.050   2.759   5.365  0.7426  0.2511 -0.2263
 8136TIP3    H145899   1.014   2.674   5.339  0.5393 -0.1049  1.1253
 8136TIP3    H245900   1.145   2.745   5.366  0.7062  0.0113  0.0569
 8137TIP3   OH245901   2.635   2.660  13.585 -0.0882  0.6076 -0.1761
 8137TIP3    H145902   2.724   2.691  13.600  0.7023 -1.0044 -1.3170
 8137TIP3    H245903   2.636   2.623  13.497 -1.1582 -1.8302  0.7413
 8138TIP3   OH245904   5.473   2.964  16.270 -0.0238 -0.0819 -0.2588
 8138TIP3    H145905   5.432   2.995  16.351 -0.1143 -1.5508  0.2857
 8138TIP3    H245906   5.561   3.002  16.271  0.8620 -1.9662  1.7749
 8139TIP3   OH245907   1.365   2.226  15.043  0.0867 -0.2979  0.1493
 8139TIP3    H145908   1.343   2.315  15.018 -0.7065 -0.5726 -0.1641
 8139TIP3    H245909   1.394   2.185  14.962 -1.8003 -0.9839 -0.2322
 8140TIP3   OH245910   5.189   4.992   1.737 -0.1707 -0.1712  0.3254
 8140TIP3    H145911   5.138   4.969   1.814 -0.0596  0.9605  0.7580
 8140TIP3    H245912   5.126   5.031   1.676 -0.0770 -0.0899  0.2794
 8141TIP3   OH245913   2.388   2.707  12.296  0.5112 -0.4110 -0.3658
 8141TIP3    H145914   2.423   2.794  12.312 -1.2813  0.2910 -0.1483
 8141TIP3    H245915   2.416   2.656  12.372  1.3548  0.0044 -0.3786
 8142TIP3   OH245916   1.009   5.662   1.179  0.1874 -0.1687 -0.0014
 8142TIP3    H145917   0.997   5.720   1.254 -2.4634 -0.2227 -0.2989
 8142TIP3    H245918   1.037   5.720   1.108  0.9926  0.1456  0.5446
 8143TIP3   OH245919   0.724   3.425  11.559 -0.7292  0.1203 -0.1095
 8143TIP3    H145920   0.770   3.423  11.643  1.7458  0.7494 -1.3517
 8143TIP3    H245921   0.672   3.505  11.561 -1.4049 -0.3257  1.1303
 8144TIP3   OH245922   2.961   6.164  11.299  0.3163  0.2551 -0.1551
 8144TIP3    H145923   2.952   6.103  11.225 -2.2407  2.0065 -1.4675
 8144TIP3    H245924   2.874   6.166  11.338  0.8279  1.7002  0.9802
 8145TIP3   OH245925   4.289   1.149   3.264 -0.4292 -0.4118  0.1706
 8145TIP3    H145926   4.262   1.152   3.356 -0.4316 -1.0413  0.1985
 8145TIP3    H245927   4.219   1.193   3.217 -0.5837 -0.3630  0.4412
 8146TIP3   OH245928   3.724   6.138   3.363  0.4721 -0.0058 -0.4513
 8146TIP3    H145929   3.637   6.097   3.366 -0.0628  0.9514 -2.0320
 8146TIP3    H245930   3.772   6.086   3.299  1.4650 -1.1558  1.1264
 8147TIP3   OH245931   6.563   1.212  15.358  0.0482  0.5477 -0.0347
 8147TIP3    H145932   6.659   1.202  15.360  0.1420  1.2286 -0.6632
 8147TIP3    H245933   6.535   1.152  15.289  0.1549  1.1975 -0.6636
 8148TIP3   OH245934   6.298   0.627   5.622  0.1984  0.3086 -0.2616
 8148TIP3    H145935   6.284   0.535   5.646 -1.1494  0.5687  0.0222
 8148TIP3    H245936   6.392   0.632   5.600  0.4123 -0.9992  0.2569
 8149TIP3   OH245937   0.055   0.822   2.140  0.0642  0.5716  0.4674
 8149TIP3    H145938   0.135   0.833   2.191 -1.5452  1.5285  2.9414
 8149TIP3    H245939   0.053   0.898   2.082  0.8613  0.5958  0.4557
 8150TIP3   OH245940   3.529   6.634   1.124 -0.4184 -0.2610 -0.3307
 8150TIP3    H145941   3.520   6.553   1.174 -0.4319 -1.4985 -2.2586
 8150TIP3    H245942   3.488   6.701   1.179  0.0593 -1.4305  1.5439
 8151TIP3   OH245943   1.876   0.699  15.035  0.0113  0.3129 -0.0588
 8151TIP3    H145944   1.909   0.678  14.948 -0.8061 -0.4305 -0.2051
 8151TIP3    H245945   1.922   0.639  15.093 -0.2953  0.0107 -0.1272
 8152TIP3   OH245946   2.037   5.659  15.487 -0.0545  0.1218 -0.2606
 8152TIP3    H145947   2.090   5.591  15.529 -0.6083  0.9798  1.9607
 8152TIP3    H245948   2.098   5.706  15.431  0.6866 -1.1826 -0.5962
 8153TIP3   OH245949   1.665   0.990  13.318 -0.4716  0.3163  0.6152
 8153TIP3    H145950   1.595   0.992  13.252  0.4885 -2.0762 -0.5771
 8153TIP3    H245951   1.619   0.983  13.401 -1.6984  2.5000  0.2089
 8154TIP3   OH245952   4.742   3.057   5.232  0.6354  0.5367  0.1325
 8154TIP3    H145953   4.746   3.150   5.255  1.8057  0.5593 -0.0861
 8154TIP3    H245954   4.779   3.052   5.144 -1.0031  0.0590 -0.5709
 8155TIP3   OH245955   4.582   2.324  16.006 -0.5402  0.3731 -0.4029
 8155TIP3    H145956   4.632   2.402  16.030  0.7316 -0.3927 -0.4669
 8155TIP3    H245957   4.573   2.331  15.911  1.4452 -0.5935 -0.7015
 8156TIP3   OH245958   5.236   5.442  15.645 -0.3668 -0.1638 -0.5024
 8156TIP3    H145959   5.328   5.468  15.649  0.6288 -3.2677  0.1246
 8156TIP3    H245960   5.190   5.518  15.609  2.3542  1.6364 -0.4454
 8157TIP3   OH245961   0.390   3.830   0.535  0.5670  0.2175 -0.5457
 8157TIP3    H145962   0.312   3.885   0.536  0.8897  0.7260 -1.8796
 8157TIP3    H245963   0.376   3.768   0.607 -1.0997  0.2557 -0.8002
 8158TIP3   OH245964   5.465   4.557   3.201  0.3547  0.5112 -0.4590
 8158TIP3    H145965   5.556   4.550   3.232 -0.4129 -0.2399  1.8223
 8158TIP3    H245966   5.433   4.639   3.239 -1.0271 -1.1004  2.1184
 8159TIP3   OH245967   5.211   3.280  13.174  0.4782  0.1960  0.1606
 8159TIP3    H145968   5.115   3.280  13.169  0.4508  0.9398  0.4967
 8159TIP3    H245969   5.230   3.254  13.264  0.5035  2.5164  0.8813
 8160TIP3   OH245970   1.741   6.084   2.581  0.3658 -0.0116 -0.4398
 8160TIP3    H145971   1.763   6.065   2.673 -1.2700  1.1984  0.2536
 8160TIP3    H245972   1.746   5.999   2.537  3.0955 -0.3272  0.2900
 8161TIP3   OH245973   1.327   1.762  16.486  0.4318  0.1464  0.2748
 8161TIP3    H145974   1.347   1.678  16.528 -0.6085  0.4869  1.5327
 8161TIP3    H245975   1.235   1.756  16.461  0.7030  0.4367 -0.8503
 8162TIP3   OH245976   1.238   4.949   5.408 -0.0428  0.2243  0.3486
 8162TIP3    H145977   1.172   5.002   5.363 -1.6980 -0.6591  1.6053
 8162TIP3    H245978   1.239   4.866   5.359  0.7396  0.5171 -0.1435
 8163TIP3   OH245979   3.176   1.371  11.692 -0.0212 -0.7469  0.0870
 8163TIP3    H145980   3.111   1.439  11.711  0.3811  0.0296 -1.2258
 8163TIP3    H245981   3.124   1.295  11.666 -0.4487  0.2648 -2.2719
 8164TIP3   OH245982   4.348   5.285   2.265  0.0439  0.5768  0.0864
 8164TIP3    H145983   4.355   5.314   2.356  0.9840  0.4559  0.0715
 8164TIP3    H245984   4.277   5.336   2.228  0.9888  2.1394  0.3426
 8165TIP3   OH245985   4.046   0.222  15.049  0.0419  0.0048  0.2743
 8165TIP3    H145986   4.002   0.190  14.970  1.2095 -1.7820  0.3052
 8165TIP3    H245987   3.975   0.257  15.103 -1.0129 -0.4767 -0.7611
 8166TIP3   OH245988   5.448   2.364  13.019 -0.2877 -0.3875  0.0181
 8166TIP3    H145989   5.476   2.452  12.992 -0.6701  0.6945  2.7918
 8166TIP3    H245990   5.359   2.356  12.985 -1.0395  1.2271  1.3985
 8167TIP3   OH245991   2.451   0.068   0.665  0.1022  0.3825  0.7544
 8167TIP3    H145992   2.432   0.156   0.696  1.6967  0.7729  0.6822
 8167TIP3    H245993   2.527   0.040   0.715 -0.9826 -1.3787  1.5085
 8168TIP3   OH245994   1.268   1.935   2.355  0.0509 -0.2777  0.1977
 8168TIP3    H145995   1.181   1.965   2.328  0.5551  0.3778 -0.7580
 8168TIP3    H245996   1.258   1.841   2.368 -0.6269 -0.3349 -0.6564
 8169TIP3   OH245997   1.210   0.576   6.046 -0.0404  0.5230 -0.4409
 8169TIP3    H145998   1.180   0.496   6.087 -0.3092  0.5252 -0.6273
 8169TIP3    H245999   1.302   0.583   6.070  1.0004 -1.6911 -3.2387
 8170TIP3   OH246000   4.856   6.719   4.350 -0.2271  0.5844  0.5158
 8170TIP3    H146001   4.916   6.657   4.391 -0.3233  0.0893 -0.0814
 8170TIP3    H246002   4.837   6.783   4.419  1.9957  1.5109  0.3428
 8171TIP3   OH246003   0.347   3.658   0.737  0.4944  0.1948  0.3135
 8171TIP3    H146004   0.400   3.592   0.693 -1.1599 -3.2029  2.9989
 8171TIP3    H246005   0.382   3.664   0.825  0.3289  2.7215  0.2884
 8172TIP3   OH246006   0.362   5.318   5.474  0.1344  0.1036  0.1775
 8172TIP3    H146007   0.412   5.260   5.533 -0.1232 -1.0869 -0.7500
 8172TIP3    H246008   0.346   5.265   5.396  1.6087  2.0494 -1.5727
 8173TIP3   OH246009   6.204   5.655   3.918 -0.5814  0.1767  0.0211
 8173TIP3    H146010   6.261   5.604   3.975  0.3266 -2.2955 -2.7879
 8173TIP3    H246011   6.119   5.611   3.924 -0.3835 -0.3317 -0.7500
 8174TIP3   OH246012   0.557   3.510  16.157  0.0950  0.0646  0.3822
 8174TIP3    H146013   0.501   3.549  16.224 -1.1903 -0.7138 -0.2156
 8174TIP3    H246014   0.497   3.474  16.092  1.2936 -0.3751 -0.5358
 8175TIP3   OH246015   0.017   1.421   3.943 -0.0849  0.5190 -0.0009
 8175TIP3    H146016  -0.044   1.357   3.981 -2.1308  2.6632  0.5274
 8175TIP3    H246017   0.093   1.368   3.918 -2.0689 -2.3173 -0.6348
 8176TIP3   OH246018   0.742   4.463   1.971  0.2107  0.5587  0.0800
 8176TIP3    H146019   0.690   4.407   2.028 -1.3748  1.3558 -0.5034
 8176TIP3    H246020   0.741   4.419   1.886 -0.9228  1.3571 -0.3439
 8177TIP3   OH246021   5.746   4.469  16.731 -0.1451  0.0629  0.0665
 8177TIP3    H146022   5.776   4.481  16.642  0.0335 -0.1285  0.1014
 8177TIP3    H246023   5.650   4.470  16.725 -0.1365 -0.5151 -0.2046
 8178TIP3   OH246024   1.765   4.150   5.367  0.1659  0.1321 -0.0365
 8178TIP3    H146025   1.727   4.170   5.453  2.1520  1.2509  0.6356
 8178TIP3    H246026   1.798   4.234   5.335 -0.2641 -0.3282 -1.7955
 8179TIP3   OH246027   4.843   6.024  11.397  0.5202 -0.1325  0.0421
 8179TIP3    H146028   4.804   5.943  11.363  0.8326  0.1294 -0.9791
 8179TIP3    H246029   4.876   6.000  11.484 -0.2825 -0.8329  0.1661
 8180TIP3   OH246030   4.420   2.095   0.672  0.0756  0.0116 -0.7383
 8180TIP3    H146031   4.337   2.142   0.668  0.1683  0.4329  1.2534
 8180TIP3    H246032   4.426   2.049   0.589 -2.4160 -0.4481 -0.7305
 8181TIP3   OH246033   5.155   1.371  13.380 -0.1589 -0.1862  0.6804
 8181TIP3    H146034   5.121   1.370  13.469 -1.2940 -2.6855  0.3024
 8181TIP3    H246035   5.248   1.353  13.389  0.0382  1.0853  1.4053
 8182TIP3   OH246036   6.643   0.912  15.450 -0.3143 -0.5833  0.2671
 8182TIP3    H146037   6.562   0.958  15.430  0.3486  0.2801 -0.5359
 8182TIP3    H246038   6.640   0.896  15.544 -0.9937  0.2788  0.3997
 8183TIP3   OH246039   0.438   3.007  11.398  0.3127 -0.6054 -0.3097
 8183TIP3    H146040   0.369   3.058  11.356 -0.3945 -1.9351 -0.8295
 8183TIP3    H246041   0.516   3.062  11.391 -0.5282  0.6039 -0.3824
 8184TIP3   OH246042   1.333   3.361   4.209  0.0905  0.5574 -0.5013
 8184TIP3    H146043   1.328   3.286   4.150  0.2052  0.2008 -0.0643
 8184TIP3    H246044   1.420   3.354   4.250  0.9872  2.1029 -1.9895
 8185TIP3   OH246045   1.540   4.031   5.263 -0.1509  0.1529 -0.3386
 8185TIP3    H146046   1.625   4.060   5.295  0.0232 -0.0208 -0.6341
 8185TIP3    H246047   1.539   4.057   5.171  0.0301 -0.7903 -0.6238
 8186TIP3   OH246048   4.604   6.216   5.031 -0.7339  0.1336  0.6176
 8186TIP3    H146049   4.613   6.308   5.056 -0.1398  1.1285 -2.7278
 8186TIP3    H246050   4.670   6.204   4.963 -1.9298 -2.3212 -0.2095
 8187TIP3   OH246051   4.528   3.393  13.806 -0.2880  0.1660  0.2511
 8187TIP3    H146052   4.560   3.483  13.802  0.5473 -0.0264  1.9915
 8187TIP3    H246053   4.606   3.341  13.823 -0.8388 -0.8508 -0.2634
 8188TIP3   OH246054   0.225   5.335   5.887  0.5688  0.0839 -0.3293
 8188TIP3    H146055   0.288   5.271   5.920  1.2884  0.9891  0.1140
 8188TIP3    H246056   0.202   5.388   5.963 -0.7284 -0.2153 -0.4928
 8189TIP3   OH246057   2.290   2.080  12.741  0.1513  0.6616 -0.5082
 8189TIP3    H146058   2.326   2.016  12.680 -1.0174  1.2904 -1.9088
 8189TIP3    H246059   2.259   2.152  12.685 -1.0241  1.2270  0.8092
 8190TIP3   OH246060   0.608   0.333  14.633 -0.3274  0.3791  0.0548
 8190TIP3    H146061   0.534   0.380  14.673 -1.2953 -1.9877  1.2346
 8190TIP3    H246062   0.572   0.298  14.551  0.2761  1.2572 -0.6169
 8191TIP3   OH246063   1.350   3.239   1.050  0.1848 -0.1737 -0.2784
 8191TIP3    H146064   1.258   3.261   1.064  0.5804 -0.0093  2.8064
 8191TIP3    H246065   1.371   3.180   1.123  3.3187  2.4745  1.2097
 8192TIP3   OH246066   0.057   2.589   1.563 -0.2338  0.1568  0.3528
 8192TIP3    H146067  -0.032   2.560   1.546 -0.2637  0.7279 -0.5097
 8192TIP3    H246068   0.048   2.665   1.619 -0.3232  0.5908 -0.2462
 8193TIP3   OH246069   2.220   2.199   4.898 -0.1154  0.6566  0.2393
 8193TIP3    H146070   2.142   2.237   4.857  0.8016  0.8388 -1.4032
 8193TIP3    H246071   2.190   2.174   4.986 -1.4959  2.5673  0.3980
 8194TIP3   OH246072   1.667   4.133   4.005 -0.4636  0.2141 -0.0081
 8194TIP3    H146073   1.696   4.193   4.074 -0.5862  1.2454 -0.8313
 8194TIP3    H246074   1.747   4.088   3.979 -0.4689 -0.4188  1.0077
 8195TIP3   OH246075   3.340   4.838   4.015  0.2151  0.2798 -0.1289
 8195TIP3    H146076   3.348   4.769   4.081  1.1071 -0.7553 -1.2514
 8195TIP3    H246077   3.361   4.919   4.061 -1.5210 -0.0559  1.3977
 8196TIP3   OH246078   0.050   6.552   6.526  0.3598 -0.3862 -0.2686
 8196TIP3    H146079   0.007   6.493   6.588  1.6056 -0.7097  0.3028
 8196TIP3    H246080   0.117   6.499   6.484 -0.9643 -0.4130 -2.5501
 8197TIP3   OH246081   1.914   5.317  10.968 -0.3165 -0.1164 -0.2480
 8197TIP3    H146082   1.829   5.348  10.936 -0.9343 -0.6710  0.7747
 8197TIP3    H246083   1.922   5.228  10.933 -0.9468 -0.6854  0.9805
 8198TIP3   OH246084   6.059   1.877   5.229 -0.5235  0.0955 -0.3896
 8198TIP3    H146085   5.995   1.848   5.294 -0.1994 -0.0287 -0.1214
 8198TIP3    H246086   6.007   1.896   5.151 -1.0046  0.9329  0.1189
 8199TIP3   OH246087   5.157   3.397   6.754  0.3348  0.1648  0.3199
 8199TIP3    H146088   5.247   3.390   6.786  0.5780  1.0645 -0.1479
 8199TIP3    H246089   5.162   3.457   6.680 -0.6144  0.0279  0.1320
 8200TIP3   OH246090   1.229   5.899  16.511  0.1366 -0.2700 -0.0150
 8200TIP3    H146091   1.210   5.811  16.542  0.3984 -0.7455 -1.1611
 8200TIP3    H246092   1.313   5.922  16.553 -0.5431 -0.0309  1.2898
 8201TIP3   OH246093   0.137   3.078  13.510  0.3380 -0.0953  0.4924
 8201TIP3    H146094   0.068   3.119  13.561 -1.3354 -2.0868 -0.0492
 8201TIP3    H246095   0.218   3.108  13.551 -0.8358  1.5624  1.7348
 8202TIP3   OH246096   5.739   4.364  16.186 -0.0751  0.5556  0.2950
 8202TIP3    H146097   5.820   4.330  16.223 -0.5987 -1.9502 -0.6098
 8202TIP3    H246098   5.681   4.375  16.262  0.7354  1.3121  0.8241
 8203TIP3   OH246099   1.141   2.051  10.936  0.7679 -0.5008 -0.3787
 8203TIP3    H146100   1.063   1.996  10.922  0.0277  0.7753 -1.4583
 8203TIP3    H246101   1.195   2.000  10.997 -1.5398 -0.7900  1.5575
 8204TIP3   OH246102   0.608   4.527   2.454  0.2885 -0.0739  0.1230
 8204TIP3    H146103   0.521   4.539   2.416  0.1102  0.1495  0.5902
 8204TIP3    H246104   0.643   4.449   2.412  0.2169  0.3337 -0.7104
 8205TIP3   OH246105   6.071   1.716   2.638 -0.1759  0.3425 -0.2798
 8205TIP3    H146106   6.140   1.738   2.576 -0.7716  2.2091 -0.3551
 8205TIP3    H246107   6.072   1.621   2.643 -0.0337  0.1191 -3.0917
 8206TIP3   OH246108   0.598   5.689  13.840  0.0826  0.2208 -0.4547
 8206TIP3    H146109   0.580   5.599  13.868 -0.5391  0.7702  0.9591
 8206TIP3    H246110   0.688   5.705  13.868  0.3858 -0.1232 -1.1940
 8207TIP3   OH246111   4.358   6.510  12.310  0.0585 -0.2129  0.5474
 8207TIP3    H146112   4.355   6.528  12.216  0.4786  2.0460  0.9222
 8207TIP3    H246113   4.370   6.415  12.315 -1.3395 -0.5882 -1.6416
 8208TIP3   OH246114   3.092   4.774  13.082  0.1031 -0.3091 -0.2194
 8208TIP3    H146115   3.042   4.853  13.063 -1.4155 -1.0705  0.4827
 8208TIP3    H246116   3.092   4.768  13.178  2.5003  0.2343 -0.1050
 8209TIP3   OH246117   5.310   0.837   5.173 -0.0429  0.0004 -0.1857
 8209TIP3    H146118   5.347   0.923   5.152  0.3295 -0.1710 -0.2457
 8209TIP3    H246119   5.382   0.775   5.157  0.4702 -0.0871  2.1067
 8210TIP3   OH246120   3.782   6.144   4.394 -0.2152 -0.0620  1.0236
 8210TIP3    H146121   3.709   6.099   4.352  0.8488 -2.2056  1.3602
 8210TIP3    H246122   3.859   6.093   4.370  0.9094  0.8544  2.4995
 8211TIP3   OH246123   2.331   4.538  15.613  0.7083 -0.2184 -0.4393
 8211TIP3    H146124   2.414   4.557  15.657  0.9862 -1.3359 -0.4510
 8211TIP3    H246125   2.356   4.486  15.536  0.1477  0.9356 -1.4399
 8212TIP3   OH246126   6.437   3.087  15.531 -0.2272  0.2147 -0.3687
 8212TIP3    H146127   6.492   3.042  15.595 -0.6044  0.6555  0.2745
 8212TIP3    H246128   6.486   3.080  15.449  0.0184 -0.8152 -0.1525
 8213TIP3   OH246129   4.162   3.168  11.499  0.3614  0.1192  0.2050
 8213TIP3    H146130   4.158   3.263  11.490  4.1411  0.4158  0.0378
 8213TIP3    H246131   4.165   3.135  11.409 -0.1527 -0.1095  0.2687
 8214TIP3   OH246132   5.799   4.957  15.431 -0.2143 -0.0299  0.2211
 8214TIP3    H146133   5.774   4.980  15.520 -1.2095 -0.2180  0.0050
 8214TIP3    H246134   5.806   4.861  15.432  1.5536  0.0781  0.5298
 8215TIP3   OH246135   2.176   3.309   2.023  0.1379  0.1057  0.6918
 8215TIP3    H146136   2.228   3.370   2.075 -1.3203  0.8096  1.3927
 8215TIP3    H246137   2.139   3.362   1.953 -0.3356 -0.1879  0.7153
 8216TIP3   OH246138   6.154   1.950   1.937  0.2718 -0.8783 -0.7959
 8216TIP3    H146139   6.165   1.966   1.844  1.8161 -0.7048 -0.6089
 8216TIP3    H246140   6.239   1.920   1.967  0.1729  0.2878  0.7914
 8217TIP3   OH246141   0.750   3.894   0.053 -0.0504  0.2284  0.1523
 8217TIP3    H146142   0.681   3.831   0.030 -0.4717  0.7784 -0.1119
 8217TIP3    H246143   0.740   3.907   0.147 -0.4843  0.5092  0.0696
 8218TIP3   OH246144   3.597   2.190   2.423  0.2733 -0.0464  0.4250
 8218TIP3    H146145   3.531   2.122   2.422  1.0440 -0.8794 -2.3616
 8218TIP3    H246146   3.549   2.271   2.442 -1.0545 -0.9659  1.1205
 8219TIP3   OH246147   5.834   6.740  15.996 -0.4312 -0.7594  0.8251
 8219TIP3    H146148   5.863   6.821  16.038  1.3277 -1.4936  1.1274
 8219TIP3    H246149   5.800   6.687  16.068  0.2607 -1.0403  0.9560
 8220TIP3   OH246150   5.442   6.467  16.519  0.4452  0.2734  0.4432
 8220TIP3    H146151   5.429   6.559  16.496 -3.1383  0.0108  0.8072
 8220TIP3    H246152   5.527   6.445  16.481  0.1487  2.9721 -2.1925
 8221TIP3   OH246153   2.927   3.620   4.974  0.0108  0.1298  0.4746
 8221TIP3    H146154   2.854   3.679   4.994 -1.2223 -1.0141 -0.4741
 8221TIP3    H246155   2.959   3.591   5.060 -2.8560 -1.9243  1.0032
 8222TIP3   OH246156   1.733   5.127  12.746  0.1279 -0.0494  0.6503
 8222TIP3    H146157   1.718   5.068  12.673  2.2358  0.6430 -0.4420
 8222TIP3    H246158   1.761   5.070  12.818 -0.1219 -0.5783  0.3319
 8223TIP3   OH246159   4.994   3.454   3.002 -0.3620 -0.4247  0.2372
 8223TIP3    H146160   4.898   3.451   3.003 -0.4235  0.9403  0.5081
 8223TIP3    H246161   5.018   3.486   3.089  0.3455 -0.6925  0.1498
 8224TIP3   OH246162   4.746   1.757  12.118  0.0113 -0.3252  0.2934
 8224TIP3    H146163   4.779   1.789  12.034 -2.5116 -1.2379 -1.1468
 8224TIP3    H246164   4.748   1.662  12.109 -1.2370 -0.4159  0.8613
 8225TIP3   OH246165   5.962   2.868  14.326  0.2605 -0.3627  0.3392
 8225TIP3    H146166   6.037   2.812  14.305 -0.3262 -0.8574 -0.5204
 8225TIP3    H246167   5.975   2.892  14.418  1.3432 -0.6273  0.2741
 8226TIP3   OH246168   1.918   3.600  15.341 -0.3628  0.5898  0.2982
 8226TIP3    H146169   1.875   3.684  15.325  1.6052  1.2308 -2.2919
 8226TIP3    H246170   1.919   3.557  15.256  4.6032  0.9635 -0.1084
 8227TIP3   OH246171   4.985   5.298   2.375 -0.1187  0.0494 -0.4538
 8227TIP3    H146172   4.975   5.226   2.314  1.2203 -0.7457  0.2271
 8227TIP3    H246173   4.921   5.363   2.346 -0.6106 -0.9611 -1.7161
 8228TIP3   OH246174   2.161   5.129  14.720 -0.2274 -0.0844  0.1177
 8228TIP3    H146175   2.231   5.068  14.742 -0.5481 -0.1489  1.0156
 8228TIP3    H246176   2.154   5.185  14.797 -0.3521  0.6967 -0.4499
 8229TIP3   OH246177   6.558   5.695   2.758  0.4962 -0.2217 -0.1944
 8229TIP3    H146178   6.554   5.789   2.742  0.9945 -0.3702 -1.3260
 8229TIP3    H246179   6.474   5.673   2.799 -0.6031  0.3402 -2.0501
 8230TIP3   OH246180   1.157   1.049   0.883  0.0541 -0.1170 -0.0703
 8230TIP3    H146181   1.221   1.048   0.811 -0.2960  3.8748 -0.6660
 8230TIP3    H246182   1.072   1.047   0.839 -0.3127 -2.6131  0.6015
 8231TIP3   OH246183   0.372   5.345   1.545  0.8425  0.4636  0.5561
 8231TIP3    H146184   0.303   5.342   1.610 -0.9586  0.2462 -1.2690
 8231TIP3    H246185   0.346   5.414   1.484  2.2432  0.3904 -0.1872
 8232TIP3   OH246186   5.734   4.969  12.300 -0.0394 -0.1546  0.1490
 8232TIP3    H146187   5.651   5.013  12.317  0.6906  0.3426  3.0324
 8232TIP3    H246188   5.746   4.911  12.375  1.4457 -1.4945 -1.0427
 8233TIP3   OH246189   6.126   5.627  12.962  0.7527  0.1486  0.9429
 8233TIP3    H146190   6.157   5.536  12.962 -0.1136 -0.1774 -0.2970
 8233TIP3    H246191   6.182   5.671  12.898 -0.0424  0.0028  0.1120
 8234TIP3   OH246192   2.478   0.149   0.254 -0.5405 -0.0223 -0.0381
 8234TIP3    H146193   2.559   0.109   0.222  0.1502  0.1242  1.4192
 8234TIP3    H246194   2.507   0.217   0.314 -1.7113 -1.2075  2.0084
 8235TIP3   OH246195   5.054   5.489  15.238 -0.2483  0.3180  0.6507
 8235TIP3    H146196   4.986   5.474  15.303 -0.0107 -0.3397  0.7591
 8235TIP3    H246197   5.136   5.486  15.288  0.0052 -1.2218  0.1739
 8236TIP3   OH246198   5.369   5.894  16.814 -0.5247 -0.0185  0.1885
 8236TIP3    H146199   5.452   5.886  16.861 -0.0051 -0.8298 -0.8186
 8236TIP3    H246200   5.317   5.954  16.867 -0.2468 -1.4352  2.1856
 8237TIP3   OH246201   3.361   3.243  14.777 -0.2027  0.3103  0.4338
 8237TIP3    H146202   3.432   3.182  14.795 -1.2671 -0.5352  1.8859
 8237TIP3    H246203   3.405   3.328  14.765  1.0537 -0.1916  1.3029
 8238TIP3   OH246204   5.228   1.033  14.048  0.0455  0.5236 -0.8326
 8238TIP3    H146205   5.241   1.070  13.961  0.1627  2.6048 -0.0113
 8238TIP3    H246206   5.135   1.044  14.065  0.1379  0.7488 -0.4544
 8239TIP3   OH246207   2.841   2.774  16.652 -0.2865 -0.0591  0.3530
 8239TIP3    H146208   2.787   2.822  16.715 -2.6468 -1.5063 -0.4383
 8239TIP3    H246209   2.884   2.706  16.705 -1.3227 -0.5232  0.6323
 8240TIP3   OH246210   4.756   0.330   4.852 -0.1126  0.0968 -0.2183
 8240TIP3    H146211   4.789   0.291   4.933 -0.0465 -0.6038 -0.5689
 8240TIP3    H246212   4.831   0.377   4.815 -0.4824  1.4952  0.7487
 8241TIP3   OH246213   2.773   4.265  12.162 -0.3024 -0.1112 -0.5055
 8241TIP3    H146214   2.808   4.332  12.220  0.5188 -0.7328 -0.2716
 8241TIP3    H246215   2.848   4.211  12.138 -0.8359 -0.5681 -1.2076
 8242TIP3   OH246216   1.358   1.342  13.788 -0.1391  0.1059  0.6451
 8242TIP3    H146217   1.310   1.292  13.722  0.4095  0.4607 -0.0395
 8242TIP3    H246218   1.317   1.429  13.787 -0.4680 -0.0388  1.1502
 8243TIP3   OH246219   2.201   4.802  16.025  0.0416 -0.1995 -0.0058
 8243TIP3    H146220   2.239   4.867  15.966  0.6235 -1.6649 -1.3054
 8243TIP3    H246221   2.115   4.784  15.988 -1.1944  1.5524  1.7452
 8244TIP3   OH246222   6.056   0.297   2.256  0.1377  0.6895  0.3013
 8244TIP3    H146223   6.046   0.387   2.223 -0.1622  0.3505 -0.5818
 8244TIP3    H246224   6.014   0.243   2.188 -0.0873 -0.0814  1.0442
 8245TIP3   OH246225   0.961   1.464  13.599  0.1727  0.3824 -0.0425
 8245TIP3    H146226   0.996   1.477  13.512  4.8931  1.5453  1.7410
 8245TIP3    H246227   0.982   1.544  13.646 -1.4381 -0.5128  2.4123
 8246TIP3   OH246228   6.382   5.736  15.662 -0.0128  0.6463 -0.1056
 8246TIP3    H146229   6.367   5.772  15.749 -0.5741 -1.8390  0.9127
 8246TIP3    H246230   6.318   5.779  15.606 -0.0974  1.7954  0.8407
 8247TIP3   OH246231   4.136   5.072  11.672  0.5967 -0.3116 -0.3187
 8247TIP3    H146232   4.165   5.157  11.707 -1.0152 -0.3583  1.2739
 8247TIP3    H246233   4.043   5.084  11.655  0.2122 -1.8913  0.4687
 8248TIP3   OH246234   1.437   0.690  11.326 -0.1428  0.0161  0.0859
 8248TIP3    H146235   1.348   0.707  11.296 -1.7294 -0.0319  4.0926
 8248TIP3    H246236   1.441   0.595  11.337 -0.1840  0.1447  1.3477
 8249TIP3   OH246237   2.692   1.770  12.198  0.1127 -0.2033  0.9196
 8249TIP3    H146238   2.741   1.715  12.259 -0.7634  1.9884  3.8003
 8249TIP3    H246239   2.756   1.794  12.131  0.1851 -5.8410 -1.6123
 8250TIP3   OH246240   5.897   4.903  12.657  0.0606 -0.2741 -0.0526
 8250TIP3    H146241   5.952   4.937  12.727  0.7150 -0.8745 -0.2674
 8250TIP3    H246242   5.957   4.861  12.596 -0.4910  0.3260 -1.0447
 8251TIP3   OH246243   1.692   5.012  16.740  0.0198 -0.0411 -0.3760
 8251TIP3    H146244   1.663   5.055  16.821  1.7559 -1.1657  0.9248
 8251TIP3    H246245   1.661   4.922  16.749  0.6971 -0.3095 -0.6940
 8252TIP3   OH246246   0.468   0.189   5.141  0.1336 -0.0389  0.3248
 8252TIP3    H146247   0.438   0.198   5.051 -3.0541  0.2489  1.2781
 8252TIP3    H246248   0.441   0.100   5.167 -0.1842  0.3415  1.3625
 8253TIP3   OH246249   6.138   3.946  12.627 -0.0888  0.4578  0.4434
 8253TIP3    H146250   6.215   3.892  12.610  0.2578  1.1119 -0.0972
 8253TIP3    H246251   6.107   3.971  12.540 -1.7016 -0.8609  0.5890
 8254TIP3   OH246252   5.163   5.709   1.555  0.6195  0.1026  0.1362
 8254TIP3    H146253   5.128   5.677   1.638 -1.0873  0.6145 -0.3413
 8254TIP3    H246254   5.258   5.697   1.562  0.4374 -0.5636  1.8407
 8255TIP3   OH246255   3.323   6.208  14.313 -0.5077  0.6251 -0.0476
 8255TIP3    H146256   3.334   6.192  14.220  0.2612  0.6888  0.0274
 8255TIP3    H246257   3.406   6.183  14.352 -0.9601  0.1990  0.6798
 8256TIP3   OH246258   5.057   0.759   4.519 -0.2526  0.2363  0.2664
 8256TIP3    H146259   5.045   0.664   4.510 -1.0598  0.2533  1.0120
 8256TIP3    H246260   5.023   0.795   4.438 -1.2866 -0.0245  0.5735
 8257TIP3   OH246261   2.151   0.686   6.195  0.5390  0.5351  0.4424
 8257TIP3    H146262   2.150   0.622   6.266 -1.3793 -0.7411 -0.6767
 8257TIP3    H246263   2.242   0.687   6.165  1.2173  0.4999  2.3236
 8258TIP3   OH246264   5.164   4.903  15.667 -0.3089  0.3190 -0.2303
 8258TIP3    H146265   5.203   4.978  15.712 -1.4724  1.1196 -0.5202
 8258TIP3    H246266   5.238   4.861  15.624  0.4473  0.9783  0.3739
 8259TIP3   OH246267   5.429   0.061   1.548  0.3219 -0.4198 -0.3650
 8259TIP3    H146268   5.449  -0.020   1.500 -3.0227  0.2530 -3.3444
 8259TIP3    H246269   5.349   0.040   1.597 -0.4422  0.9902 -0.9649
 8260TIP3   OH246270   6.504   4.238  11.169 -0.2512  0.0121 -0.0361
 8260TIP3    H146271   6.536   4.300  11.103 -0.6577 -0.2640 -0.4904
 8260TIP3    H246272   6.545   4.269  11.251 -1.4568  1.6795 -0.0016
 8261TIP3   OH246273   2.107   3.092  16.269 -0.3415 -0.2302 -0.0909
 8261TIP3    H146274   2.142   3.147  16.199 -2.0425  1.2108  0.1243
 8261TIP3    H246275   2.126   3.141  16.349 -1.0527 -0.3999  0.1872
 8262TIP3   OH246276   5.094   3.569  10.445 -0.5859 -0.0229  0.0497
 8262TIP3    H146277   5.125   3.480  10.462 -0.0942 -0.2611 -1.8320
 8262TIP3    H246278   5.005   3.571  10.479 -0.9839 -1.5856 -0.8275
 8263TIP3   OH246279   0.622   0.014   3.041 -0.1858  0.1480  0.0317
 8263TIP3    H146280   0.675  -0.062   3.065 -1.6485 -1.0653 -0.4432
 8263TIP3    H246281   0.686   0.082   3.021  1.1500 -0.6702  1.3036
 8264TIP3   OH246282   0.765   5.182   0.562  0.0064 -0.3711  0.1811
 8264TIP3    H146283   0.709   5.141   0.496  0.7761 -1.2149  0.0226
 8264TIP3    H246284   0.789   5.266   0.524 -0.2669 -0.4792 -0.2420
 8265TIP3   OH246285   6.153   0.646  12.779 -0.1058 -0.6577 -0.2229
 8265TIP3    H146286   6.172   0.603  12.695 -0.9995  0.9726 -1.3164
 8265TIP3    H246287   6.085   0.709  12.758 -0.4553 -0.3149  1.7971
 8266TIP3   OH246288   2.996   3.397   4.830 -0.6414  0.1531 -0.2685
 8266TIP3    H146289   2.942   3.459   4.878  0.4759  1.5135 -0.6758
 8266TIP3    H246290   3.077   3.445   4.813 -0.2446 -0.9742 -1.7565
 8267TIP3   OH246291   2.531   4.485  12.243  0.1264  0.4849 -0.2956
 8267TIP3    H146292   2.507   4.508  12.153 -1.7214  1.7546  0.4560
 8267TIP3    H246293   2.493   4.398  12.256 -1.3506  1.1294 -0.1464
 8268TIP3   OH246294   3.911   5.042  16.810  0.3866 -0.1719  0.3876
 8268TIP3    H146295   3.918   5.109  16.742 -1.6910  0.1787  0.4440
 8268TIP3    H246296   3.860   4.972  16.768  0.3197 -0.5735  1.1302
 8269TIP3   OH246297   5.204   5.987   3.528  0.4539 -0.9124 -0.3158
 8269TIP3    H146298   5.255   6.066   3.546 -0.4631 -0.3168 -0.2083
 8269TIP3    H246299   5.113   6.017   3.530  0.1442 -1.6046 -2.1134
 8270TIP3   OH246300   5.522   3.924   4.940 -0.0134  0.3888 -0.2905
 8270TIP3    H146301   5.447   3.947   4.996  0.6391  0.2593  0.6631
 8270TIP3    H246302   5.590   3.985   4.965  1.1884 -1.3950  1.0539
 8271TIP3   OH246303   3.493   6.817   3.061  0.3245  0.0185 -0.2831
 8271TIP3    H146304   3.406   6.855   3.052  1.0355  1.7897 -0.1356
 8271TIP3    H246305   3.526   6.810   2.972  0.4288  0.4016 -0.2805
 8272TIP3   OH246306   1.433   2.259   6.780 -0.4393 -0.2657  0.1260
 8272TIP3    H146307   1.339   2.240   6.786 -0.3679 -0.3301  1.3527
 8272TIP3    H246308   1.474   2.173   6.782 -0.3076 -0.1915  1.0125
 8273TIP3   OH246309   1.776   6.004   3.359  0.6645  0.1367 -0.1880
 8273TIP3    H146310   1.847   5.941   3.353  0.9573  0.5946 -2.1348
 8273TIP3    H246311   1.750   6.020   3.269 -0.1175  1.9941  0.3174
 8274TIP3   OH246312   6.582   2.623  12.165 -0.6641  0.3450  0.4475
 8274TIP3    H146313   6.620   2.543  12.201 -0.7795 -0.6043 -1.4043
 8274TIP3    H246314   6.491   2.622  12.195  0.0700  1.4350  2.9778
 8275TIP3   OH246315   2.165   5.928  17.079 -0.0441  0.0246 -0.1907
 8275TIP3    H146316   2.096   5.992  17.058  1.5383  1.6082 -0.8382
 8275TIP3    H246317   2.235   5.948  17.017  1.0526 -1.4787  0.5116
 8276TIP3   OH246318   0.904   5.785   2.290  0.4388 -0.2212 -0.2865
 8276TIP3    H146319   0.891   5.799   2.384  0.9109 -1.0317 -0.0921
 8276TIP3    H246320   0.984   5.834   2.269 -0.0247  0.4999 -0.4122
 8277TIP3   OH246321   4.724   3.399   1.185 -0.3673 -0.3728 -0.3859
 8277TIP3    H146322   4.737   3.352   1.268 -1.6454  0.5619  0.3863
 8277TIP3    H246323   4.731   3.492   1.209  0.5614 -0.1047 -1.5916
 8278TIP3   OH246324   4.196   3.881  15.354  0.1870 -0.4958  0.5635
 8278TIP3    H146325   4.176   3.942  15.425  2.5503  1.2862 -0.1632
 8278TIP3    H246326   4.266   3.826  15.389  1.8696  0.8637 -0.5440
 8279TIP3   OH246327   5.835   3.902  12.543 -0.0028  0.0420 -0.0964
 8279TIP3    H146328   5.776   3.910  12.618  0.8364  1.7282  0.4317
 8279TIP3    H246329   5.816   3.815  12.507  0.0620 -1.1248  2.4632
 8280TIP3   OH246330   6.461   4.975   2.199  0.7889  0.3001  0.0816
 8280TIP3    H146331   6.366   4.965   2.193  0.7738  1.2102 -4.3407
 8280TIP3    H246332   6.473   5.052   2.255 -1.1012  0.4862  0.3044
 8281TIP3   OH246333   1.319   5.343   0.956  0.5379 -0.2510  0.1694
 8281TIP3    H146334   1.342   5.256   0.924 -0.8833 -0.3363 -0.7399
 8281TIP3    H246335   1.403   5.386   0.973  1.2816 -1.3519 -0.6127
 8282TIP3   OH246336   0.699   6.821  14.510 -0.1420 -0.3347  0.1511
 8282TIP3    H146337   0.697   6.893  14.447 -0.6476 -0.6724 -0.2308
 8282TIP3    H246338   0.607   6.808  14.535 -0.1879 -1.4505 -0.4997
 8283TIP3   OH246339   4.323   2.510  12.940  0.0970  0.9696 -0.1960
 8283TIP3    H146340   4.368   2.449  12.998 -0.6298  0.7731  0.1766
 8283TIP3    H246341   4.370   2.504  12.857 -0.9673 -1.3532 -0.6886
 8284TIP3   OH246342   4.114   3.649   0.498  0.0431 -1.1919  0.1057
 8284TIP3    H146343   4.034   3.655   0.446  0.0261 -2.3889 -0.0409
 8284TIP3    H246344   4.159   3.732   0.483 -2.1093  0.4084  1.7734
 8285TIP3   OH246345   1.040   5.607   3.476 -0.0318  0.4103 -0.2654
 8285TIP3    H146346   1.000   5.633   3.559 -0.7352  4.2339 -1.6275
 8285TIP3    H246347   1.133   5.624   3.488  0.4049 -2.1053  0.6573
 8286TIP3   OH246348   5.557   5.238  16.917  0.2330  0.2693  0.3024
 8286TIP3    H146349   5.647   5.258  16.945  0.3743 -1.2253  1.0032
 8286TIP3    H246350   5.503   5.293  16.974  0.6818  2.1762 -0.9970
 8287TIP3   OH246351   3.686   4.978  15.423 -0.1781  0.2579 -0.3587
 8287TIP3    H146352   3.767   4.933  15.398 -0.1210  0.8425 -1.2892
 8287TIP3    H246353   3.693   5.064  15.382 -0.7466  0.7463  0.5468
 8288TIP3   OH246354   2.572   5.002   1.434 -0.5828  0.5360 -0.4147
 8288TIP3    H146355   2.644   5.065   1.437 -1.4369  1.5988 -1.2485
 8288TIP3    H246356   2.601   4.934   1.373  1.3607 -1.2719  2.3043
 8289TIP3   OH246357   0.027   5.145   5.344 -0.4685  0.3614 -0.3175
 8289TIP3    H146358  -0.032   5.202   5.394 -0.7510  0.7748 -1.1107
 8289TIP3    H246359   0.003   5.057   5.370 -0.2541  0.5819  0.6770
 8290TIP3   OH246360   0.800   5.591  16.037 -0.6573  0.1795  0.0171
 8290TIP3    H146361   0.723   5.634  16.002 -0.4230  0.3081 -0.3453
 8290TIP3    H246362   0.864   5.661  16.050  0.1457 -0.1864 -1.7024
 8291TIP3   OH246363   3.469   4.778   1.843  0.5380  0.7550  0.1323
 8291TIP3    H146364   3.553   4.770   1.887  0.5511 -2.4153 -0.2534
 8291TIP3    H246365   3.491   4.776   1.750  0.1162  1.8352 -0.0106
 8292TIP3   OH246366   2.300   0.169  15.362  0.2417 -0.0701 -0.1023
 8292TIP3    H146367   2.256   0.139  15.442 -0.5888  0.3508 -0.3828
 8292TIP3    H246368   2.317   0.089  15.313  1.6766 -0.4291  0.9345
 8293TIP3   OH246369   6.166   1.109   3.816  0.2967 -0.2272  0.0582
 8293TIP3    H146370   6.184   1.203   3.811  0.6635 -0.3104 -0.2328
 8293TIP3    H246371   6.100   1.094   3.748 -0.1507 -0.0947  0.4543
 8294TIP3   OH246372   0.943   0.543  17.197 -0.0901 -0.0583  0.6473
 8294TIP3    H146373   1.006   0.613  17.212  1.0289 -0.6265 -1.0597
 8294TIP3    H246374   0.886   0.576  17.127 -0.8313 -0.0867  1.2242
 8295TIP3   OH246375   6.093   1.525  12.173  0.7185 -0.5473  0.0220
 8295TIP3    H146376   6.063   1.612  12.146  1.4540 -0.3355 -0.1172
 8295TIP3    H246377   6.160   1.502  12.109  1.2174 -0.8068  0.6307
 8296TIP3   OH246378   6.333   5.940  12.087  0.8819 -0.3428 -0.2756
 8296TIP3    H146379   6.314   6.033  12.085  1.4816 -0.2149 -1.6538
 8296TIP3    H246380   6.348   5.919  12.179  3.8481  1.5885 -0.2001
 8297TIP3   OH246381   1.555   2.401   0.186 -0.0285  0.5578  0.1416
 8297TIP3    H146382   1.470   2.420   0.147 -0.6400 -0.8724  0.6931
 8297TIP3    H246383   1.561   2.461   0.261 -0.7044  0.4328  0.3007
 8298TIP3   OH246384   5.190   1.519   3.207 -0.0874  0.1768  0.3877
 8298TIP3    H146385   5.145   1.441   3.241  1.4385 -1.0140 -0.1713
 8298TIP3    H246386   5.134   1.550   3.136 -0.0817 -1.2226 -0.2557
 8299TIP3   OH246387   2.499   0.318   4.068 -0.2580 -0.1106 -0.1770
 8299TIP3    H146388   2.475   0.282   3.983  1.0419  1.6292 -1.3417
 8299TIP3    H246389   2.416   0.341   4.109 -0.8672 -0.2698 -1.2852
 8300TIP3   OH246390   0.348   3.231   5.553  0.4051  0.5862 -0.2952
 8300TIP3    H146391   0.292   3.260   5.624 -0.5167 -0.1637 -0.6926
 8300TIP3    H246392   0.419   3.184   5.596  0.9999  1.9143  0.2404
 8301TIP3   OH246393   4.885   1.386   0.797  0.1456 -0.1357 -0.1405
 8301TIP3    H146394   4.848   1.302   0.824 -0.8295  0.5596  0.7459
 8301TIP3    H246395   4.812   1.448   0.803  0.7097  0.6910 -1.2995
 8302TIP3   OH246396   6.571   5.474   6.541 -0.2642  0.1135  0.3205
 8302TIP3    H146397   6.586   5.559   6.582  0.2371  0.1849 -0.0003
 8302TIP3    H246398   6.636   5.416   6.582 -1.1227 -0.3120  1.1095
 8303TIP3   OH246399   2.305   0.206   3.398  0.6587  0.0215  0.0213
 8303TIP3    H146400   2.270   0.151   3.329  0.4725  0.3586 -0.1580
 8303TIP3    H246401   2.234   0.265   3.421 -0.9466 -2.9412  3.7189
 8304TIP3   OH246402   6.208   5.418  16.968  0.0593 -0.0675 -0.6736
 8304TIP3    H146403   6.288   5.422  16.917 -0.9512 -0.0028 -2.3363
 8304TIP3    H246404   6.198   5.325  16.991 -1.4913 -0.9372 -4.1504
 8305TIP3   OH246405   6.220   3.173   0.878  0.1719  0.4869  0.1841
 8305TIP3    H146406   6.156   3.178   0.948  0.3056  1.4724  0.2421
 8305TIP3    H246407   6.305   3.165   0.923  0.1844  0.1890  0.1154
 8306TIP3   OH246408   0.227   6.066   2.312  0.0533  0.0970  0.0975
 8306TIP3    H146409   0.316   6.039   2.332 -0.2669 -0.7216  0.4275
 8306TIP3    H246410   0.236   6.121   2.233  0.4366 -3.4131 -2.5433
 8307TIP3   OH246411   0.596   4.061  14.244 -0.0252  0.1382  0.7383
 8307TIP3    H146412   0.597   3.989  14.307  0.1862  0.0683  0.6543
 8307TIP3    H246413   0.621   4.138  14.295  1.7904 -0.1968  0.3935
 8308TIP3   OH246414   4.898   1.006  15.342  0.3049  0.0230  0.4875
 8308TIP3    H146415   4.926   1.093  15.316  1.2699 -0.8098 -1.4341
 8308TIP3    H246416   4.806   1.017  15.367 -0.1751  1.2629 -1.5985
 8309TIP3   OH246417   4.613   5.152   0.541  0.9319  0.8767  0.3687
 8309TIP3    H146418   4.583   5.214   0.607 -2.1928 -0.5842  0.5129
 8309TIP3    H246419   4.626   5.070   0.590  1.9758  0.6147 -0.3137
 8310TIP3   OH246420   2.123   1.329  17.128  0.0533 -0.0199  0.2141
 8310TIP3    H146421   2.080   1.247  17.153 -1.3348  0.4741 -0.4567
 8310TIP3    H246422   2.112   1.386  17.205  0.6374 -0.3176  0.5173
 8311TIP3   OH246423   5.263   6.363  12.098  0.1213 -0.2184 -0.0388
 8311TIP3    H146424   5.178   6.405  12.112  0.6097  1.2402 -1.1752
 8311TIP3    H246425   5.254   6.317  12.015  0.4514  0.0490 -0.2314
 8312TIP3   OH246426   1.602   5.235  12.193  0.6704  0.4578 -0.2676
 8312TIP3    H146427   1.622   5.241  12.100  2.0222  1.6869  0.0646
 8312TIP3    H246428   1.589   5.142  12.209  0.0051  0.2605 -1.7511
 8313TIP3   OH246429   6.336   5.153  15.513  0.5097 -0.2123  0.1006
 8313TIP3    H146430   6.317   5.065  15.479 -0.6193 -0.6459  1.7380
 8313TIP3    H246431   6.419   5.142  15.561 -0.2902 -0.7549  1.4305
 8314TIP3   OH246432   3.467   0.804   1.444  0.6593  0.2779  0.1189
 8314TIP3    H146433   3.525   0.773   1.375 -2.4373  0.3117 -2.7618
 8314TIP3    H246434   3.463   0.899   1.432  2.9078  0.8655  2.9028
 8315TIP3   OH246435   6.002   2.680   3.475  0.1372 -0.5030  0.4461
 8315TIP3    H146436   5.959   2.604   3.437  0.5676 -0.6062  0.1611
 8315TIP3    H246437   6.095   2.669   3.454 -0.0390  1.3260 -1.7906
 8316TIP3   OH246438   2.977   2.670  15.926  0.4653  0.2890 -0.1940
 8316TIP3    H146439   3.014   2.745  15.880  1.1960  1.4539  2.1420
 8316TIP3    H246440   3.043   2.646  15.990 -0.4127 -1.3841  0.1457
 8317TIP3   OH246441   6.688   1.026  16.811 -0.0931  0.3721  0.2804
 8317TIP3    H146442   6.760   1.015  16.749  0.3309  1.0645  0.6468
 8317TIP3    H246443   6.609   1.009  16.759  0.3360 -0.6438 -0.0584
 8318TIP3   OH246444   5.100   5.650  15.493  0.3201  0.3429 -0.5060
 8318TIP3    H146445   5.057   5.694  15.420 -0.4190 -0.7773 -0.7667
 8318TIP3    H246446   5.041   5.663  15.567 -0.8615 -1.7637 -1.0177
 8319TIP3   OH246447   3.206   1.552  11.341  0.1277 -0.0378  0.1297
 8319TIP3    H146448   3.270   1.493  11.300 -0.7916 -1.1985  0.3185
 8319TIP3    H246449   3.254   1.593  11.413  1.2915  0.8018 -1.0821
 8320TIP3   OH246450   3.686   1.639   0.665 -0.3402  0.0267  0.2715
 8320TIP3    H146451   3.684   1.731   0.692 -0.8714  0.3327 -0.7495
 8320TIP3    H246452   3.621   1.633   0.595 -0.1191 -1.0726  0.1372
 8321TIP3   OH246453   2.033   2.576  13.417  0.3277 -0.1628  0.0269
 8321TIP3    H146454   1.948   2.545  13.384  0.0218  1.1705 -0.5126
 8321TIP3    H246455   2.064   2.637  13.350  2.0242 -1.0851 -0.0780
 8322TIP3   OH246456   3.483   4.854   5.368  0.1991  0.3416 -0.2624
 8322TIP3    H146457   3.446   4.766   5.378  1.2822 -0.4527 -2.5639
 8322TIP3    H246458   3.417   4.913   5.405 -0.6508 -1.3921  1.1291
 8323TIP3   OH246459   4.822   3.237  12.974 -0.1216  0.0941  0.8019
 8323TIP3    H146460   4.842   3.153  12.932  1.2541  0.4644  0.6696
 8323TIP3    H246461   4.765   3.215  13.047  2.2488 -1.3042  2.3272
 8324TIP3   OH246462   3.265   2.077  12.608 -0.7189 -0.9415 -0.0966
 8324TIP3    H146463   3.302   2.033  12.531  1.7880  1.2471 -0.2933
 8324TIP3    H246464   3.337   2.080  12.671 -1.1322  1.6786  0.3584
 8325TIP3   OH246465   3.410   2.661   4.583 -0.1247  0.3692 -0.3361
 8325TIP3    H146466   3.378   2.571   4.575 -0.1063  0.3064  0.2780
 8325TIP3    H246467   3.423   2.689   4.492  2.8122 -1.2930 -0.5743
 8326TIP3   OH246468   6.384   4.615  15.435 -0.1022  0.3316 -0.0532
 8326TIP3    H146469   6.320   4.595  15.367  0.8254 -0.5934 -0.6988
 8326TIP3    H246470   6.463   4.639  15.386  0.9208 -1.4344  0.6539
 8327TIP3   OH246471   4.429   1.957   6.424  0.2572  0.3433  0.2815
 8327TIP3    H146472   4.476   1.999   6.496  1.3360  2.2934 -1.4412
 8327TIP3    H246473   4.339   1.948   6.456  1.0566 -0.4748  2.4778
 8328TIP3   OH246474   2.758   4.394  12.585 -0.1777  0.1588 -0.2257
 8328TIP3    H146475   2.769   4.445  12.665  0.3521  0.0282 -0.2140
 8328TIP3    H246476   2.838   4.341  12.579 -0.8177 -0.8491 -0.1063
 8329TIP3   OH246477   2.895   4.795  16.340  0.0538 -0.3979 -0.3100
 8329TIP3    H146478   2.813   4.844  16.330  0.5483  0.0496 -2.8833
 8329TIP3    H246479   2.869   4.703  16.338 -0.5025 -0.2626  0.3474
 8330TIP3   OH246480   1.694   2.258  14.990  0.6374  0.1395  0.0684
 8330TIP3    H146481   1.653   2.172  14.994  1.9860 -0.5102  0.4686
 8330TIP3    H246482   1.666   2.294  14.906 -0.9994 -0.1200  0.4706
 8331TIP3   OH246483   6.492   4.286  16.177  0.2154 -0.2193  0.0382
 8331TIP3    H146484   6.539   4.328  16.248  0.5891  0.6495 -0.7056
 8331TIP3    H246485   6.400   4.287  16.204  0.4715 -0.8363  0.9563
 8332TIP3   OH246486   0.876   1.134  14.207 -0.6878  0.3861  0.0031
 8332TIP3    H146487   0.934   1.152  14.133 -2.6309  0.0215 -1.6871
 8332TIP3    H246488   0.891   1.041  14.227  0.5378  0.7174  0.7645
 8333TIP3   OH246489   2.817   2.458  12.963 -0.0382 -0.3811  1.1148
 8333TIP3    H146490   2.849   2.373  12.931  4.0764  1.2641  0.2966
 8333TIP3    H246491   2.753   2.485  12.897  1.7899 -0.9940 -1.0102
 8334TIP3   OH246492   1.230   4.804  15.953 -0.6382  0.5306  0.4540
 8334TIP3    H146493   1.161   4.787  16.018 -0.7546 -0.1066  0.1742
 8334TIP3    H246494   1.311   4.806  16.005 -0.5225 -1.6090  0.4730
 8335TIP3   OH246495   1.053   1.394  13.995 -0.3929 -0.4627 -0.9961
 8335TIP3    H146496   0.994   1.340  13.942  0.5923 -1.0412 -1.5437
 8335TIP3    H246497   1.116   1.332  14.031 -0.3805  0.0818 -0.0581
 8336TIP3   OH246498   6.232   4.616   5.436 -0.1526  0.4344 -0.2488
 8336TIP3    H146499   6.292   4.645   5.367  0.4536 -0.6910 -0.2111
 8336TIP3    H246500   6.217   4.695   5.488 -0.7829  1.3660 -1.7455
 8337TIP3   OH246501   5.579   1.142   5.752 -0.8362 -0.1771  0.3432
 8337TIP3    H146502   5.491   1.117   5.778 -0.5074 -0.8277  0.8396
 8337TIP3    H246503   5.576   1.238   5.748 -1.2227 -0.1247  1.6076
 8338TIP3   OH246504   0.993   5.783   0.747  0.0314  0.1958  0.0575
 8338TIP3    H146505   1.002   5.853   0.682  0.4803  1.2435  1.2193
 8338TIP3    H246506   1.009   5.826   0.831  1.3389 -1.5140  0.7249
 8339TIP3   OH246507   1.997   2.269   5.830 -0.0615  0.1769 -0.1001
 8339TIP3    H146508   2.030   2.183   5.806 -0.1255  0.0926  0.1122
 8339TIP3    H246509   2.065   2.307   5.885  0.0643  0.3517 -0.3706
 8340TIP3   OH246510   4.967   5.018   0.210  0.0124  0.2570  0.1977
 8340TIP3    H146511   4.919   4.938   0.190  0.8954 -0.4870  0.9446
 8340TIP3    H246512   4.906   5.071   0.262 -0.4228 -0.1321  0.0864
 8341TIP3   OH246513   1.308   2.983  12.591 -0.5137 -0.7032  0.0260
 8341TIP3    H146514   1.256   3.056  12.624 -1.5754 -0.5155 -1.8955
 8341TIP3    H246515   1.303   2.917  12.661  0.7446  1.1068  1.9432
 8342TIP3   OH246516   1.406   4.193   1.590  0.1093 -0.2327 -0.4376
 8342TIP3    H146517   1.313   4.213   1.600 -0.1517  0.0664 -2.7772
 8342TIP3    H246518   1.409   4.099   1.574  0.2121 -0.2627 -0.2403
 8343TIP3   OH246519   0.830   0.860  10.944  0.2687  0.1440  0.0417
 8343TIP3    H146520   0.903   0.798  10.941  0.0544 -0.2974  2.2957
 8343TIP3    H246521   0.774   0.835  10.871  0.6345 -1.7700  0.3735
 8344TIP3   OH246522   3.338   0.222  13.313  0.4418  0.4082 -0.9616
 8344TIP3    H146523   3.382   0.252  13.234  0.8046 -1.3218 -1.4756
 8344TIP3    H246524   3.281   0.150  13.283 -0.6000  0.7404  0.1203
 8345TIP3   OH246525   3.535   2.769   3.529 -0.0072 -0.1237 -0.2030
 8345TIP3    H146526   3.588   2.734   3.600 -0.9191 -1.2315 -0.0412
 8345TIP3    H246527   3.446   2.774   3.564 -0.3752 -0.1573 -1.0861
 8346TIP3   OH246528   0.489   6.641  15.642 -0.4192 -0.8480  0.2170
 8346TIP3    H146529   0.458   6.728  15.616  1.5315 -0.4277 -0.8867
 8346TIP3    H246530   0.455   6.629  15.730 -0.3365  1.2506  0.5856
 8347TIP3   OH246531   2.449   3.609  11.797 -0.3773  0.4206 -0.5352
 8347TIP3    H146532   2.417   3.519  11.793  1.5027 -0.4858  1.8546
 8347TIP3    H246533   2.475   3.630  11.707  0.6554 -2.0686 -0.8986
 8348TIP3   OH246534   6.822   4.837  13.482 -0.2364 -0.1599 -0.2171
 8348TIP3    H146535   6.886   4.807  13.547 -0.1544 -0.8925 -0.6245
 8348TIP3    H246536   6.855   4.922  13.453  1.7369 -1.4555 -1.9750
 8349TIP3   OH246537   2.910   3.207  13.750  0.4279 -0.4079  0.3146
 8349TIP3    H146538   2.873   3.219  13.662  0.9182 -0.9199  0.0422
 8349TIP3    H246539   2.952   3.291  13.769 -1.9363  0.6979  1.1631
 8350TIP3   OH246540   3.595   1.513  15.090  0.3086 -0.3720  0.1143
 8350TIP3    H146541   3.584   1.534  15.183  1.0398  0.1047  0.1065
 8350TIP3    H246542   3.658   1.441  15.089  0.8726  0.1131 -0.0363
 8351TIP3   OH246543   0.368   4.636   4.907  0.0510 -0.0447  0.2059
 8351TIP3    H146544   0.341   4.667   4.993 -0.7014  2.7293 -0.9314
 8351TIP3    H246545   0.315   4.558   4.892 -2.4030  1.3901  0.8742
 8352TIP3   OH246546   6.256   4.148  11.262  0.2626  0.4908 -0.3881
 8352TIP3    H146547   6.347   4.169  11.242  0.5931  0.0969  0.6569
 8352TIP3    H246548   6.229   4.216  11.324 -0.0198  0.3429 -0.3491
 8353TIP3   OH246549   0.696   1.798  15.182  0.0580 -0.2751  0.1909
 8353TIP3    H146550   0.631   1.831  15.244  1.1666 -1.5110  2.1062
 8353TIP3    H246551   0.722   1.713  15.217  2.5643  0.0850 -0.6109
 8354TIP3   OH246552   6.558   6.395   4.671  0.0855 -0.4933 -0.4243
 8354TIP3    H146553   6.539   6.405   4.578  0.6618  1.9693 -0.3671
 8354TIP3    H246554   6.502   6.323   4.700 -2.7948  0.9419 -1.9657
 8355TIP3   OH246555   4.373   5.610   0.129  0.5154  0.3438  0.1011
 8355TIP3    H146556   4.452   5.559   0.145  0.1708 -0.4855 -0.7253
 8355TIP3    H246557   4.376   5.631   0.036 -0.5745 -0.3190 -0.1099
 8356TIP3   OH246558   4.194   4.431   1.574 -0.0466  0.2767  0.1926
 8356TIP3    H146559   4.172   4.366   1.507  2.1094 -0.1746 -0.1350
 8356TIP3    H246560   4.215   4.510   1.525  2.2112 -0.2463  0.2220
 8357TIP3   OH246561   3.436   2.726  13.186 -0.6080 -0.2083 -0.0067
 8357TIP3    H146562   3.413   2.643  13.144  0.8382 -0.3285 -0.6162
 8357TIP3    H246563   3.354   2.775  13.187 -1.2147 -1.1510 -0.7774
 8358TIP3   OH246564   5.477   1.494   2.534  0.6325 -0.5345  0.0883
 8358TIP3    H146565   5.573   1.494   2.538  0.6358 -1.0455  0.0244
 8358TIP3    H246566   5.452   1.403   2.544  0.0521 -0.2142  1.9312
 8359TIP3   OH246567   3.805   1.314  16.345 -0.6716 -0.1481  0.3296
 8359TIP3    H146568   3.782   1.396  16.389 -0.8063 -0.1368  0.2398
 8359TIP3    H246569   3.766   1.246  16.401 -0.0377 -0.1851  0.7294
 8360TIP3   OH246570   6.391   3.924   2.118 -0.0614  0.2475 -0.7478
 8360TIP3    H146571   6.459   3.970   2.168 -0.3298 -1.5638  1.4431
 8360TIP3    H246572   6.439   3.860   2.065  0.1724  1.7526 -2.4660
 8361TIP3   OH246573   2.008   3.196   6.292 -0.1450  0.5597 -0.1267
 8361TIP3    H146574   1.962   3.204   6.208 -0.8270 -0.9046  0.0706
 8361TIP3    H246575   1.971   3.117   6.332  0.4777  0.9817  1.3682
 8362TIP3   OH246576   4.238   0.915  16.680 -0.5346 -0.9118 -0.1418
 8362TIP3    H146577   4.281   0.838  16.717  0.5820 -0.3565 -0.2501
 8362TIP3    H246578   4.292   0.988  16.708 -0.7271 -0.3030 -1.2944
 8363TIP3   OH246579   5.874   0.269  15.219  0.0681 -0.0268 -0.0932
 8363TIP3    H146580   5.969   0.271  15.208  0.2211 -1.3320  0.7323
 8363TIP3    H246581   5.852   0.176  15.221 -1.3874  0.2590 -1.3817
 8364TIP3   OH246582   4.386   3.221  13.957 -0.1459  0.0186 -1.0130
 8364TIP3    H146583   4.423   3.301  13.920 -0.4115 -0.2520 -1.8813
 8364TIP3    H246584   4.360   3.169  13.881  0.3531 -1.0481 -0.4793
 8365TIP3   OH246585   0.901   2.675  15.653  0.3485  0.1989  0.1396
 8365TIP3    H146586   0.816   2.717  15.658  0.0163 -0.6354  2.5470
 8365TIP3    H246587   0.886   2.596  15.600 -0.4346 -0.0266  0.6853
 8366TIP3   OH246588   2.243   2.176   5.666  0.2558 -0.1221  0.0264
 8366TIP3    H146589   2.178   2.198   5.600  0.3104 -0.0711 -0.0104
 8366TIP3    H246590   2.271   2.260   5.702 -0.6128 -0.2020  0.9329
 8367TIP3   OH246591   3.210   0.708  14.892 -0.0922 -0.4320 -0.4389
 8367TIP3    H146592   3.246   0.665  14.970 -0.2342 -0.8474 -0.6006
 8367TIP3    H246593   3.209   0.640  14.825 -1.5311 -0.5600 -0.3315
 8368TIP3   OH246594   3.638   5.857  10.977  0.1917  0.8363 -0.2808
 8368TIP3    H146595   3.719   5.901  11.003  0.2274  0.4668  0.2423
 8368TIP3    H246596   3.666   5.788  10.917  0.4329 -0.2177  1.0023
 8369TIP3   OH246597   5.590   2.940  13.118 -0.1350  0.3113 -0.0716
 8369TIP3    H146598   5.517   2.989  13.155  1.3757  1.9900  0.8274
 8369TIP3    H246599   5.630   3.001  13.056  1.2963 -0.0641  0.4513
 8370TIP3   OH246600   0.467   2.094   5.736 -0.0938  0.0844 -0.3494
 8370TIP3    H146601   0.448   2.187   5.723 -0.9282 -0.0560 -0.1559
 8370TIP3    H246602   0.513   2.091   5.821  0.7176  0.4049 -0.7597
 8371TIP3   OH246603   0.609   1.716   2.423  0.2738 -0.3308 -0.2100
 8371TIP3    H146604   0.696   1.755   2.437  0.5903 -1.1092  0.0069
 8371TIP3    H246605   0.622   1.622   2.434 -0.6295 -0.4446 -0.0274
 8372TIP3   OH246606   1.896   0.451   5.155 -0.3704 -1.0883  0.2136
 8372TIP3    H146607   1.891   0.453   5.059  3.0398 -0.4645 -0.1063
 8372TIP3    H246608   1.912   0.359   5.176  0.3024 -1.0343 -0.0097
 8373TIP3   OH246609   6.762   4.223   1.119 -0.9150  0.3765  0.0717
 8373TIP3    H146610   6.851   4.248   1.093  0.2082 -2.1190  1.2149
 8373TIP3    H246611   6.745   4.142   1.070 -0.7789 -1.5742  3.0413
 8374TIP3   OH246612   2.611   0.442  16.561 -0.2698 -0.0185  0.4748
 8374TIP3    H146613   2.618   0.515  16.624  0.9221  0.5246 -0.2534
 8374TIP3    H246614   2.644   0.366  16.610  1.8535  0.6349  0.1922
 8375TIP3   OH246615   4.925   3.896  11.764  0.2129  0.1653  0.1369
 8375TIP3    H146616   4.871   3.901  11.686 -0.5908  1.3462  0.7302
 8375TIP3    H246617   4.991   3.964  11.752 -0.4224  0.9412  0.8096
 8376TIP3   OH246618   6.201   1.264  14.626  0.2984  0.3564  0.1930
 8376TIP3    H146619   6.144   1.237  14.555  0.3161  1.3596 -0.2268
 8376TIP3    H246620   6.184   1.358  14.636  3.0257  1.0929 -1.0563
 8377TIP3   OH246621   6.423   5.526  14.764 -0.3723 -0.6940  0.0273
 8377TIP3    H146622   6.495   5.589  14.770 -0.9355 -0.0327 -0.0774
 8377TIP3    H246623   6.367   5.545  14.839 -0.5921 -1.0125 -0.0523
 8378TIP3   OH246624   6.776   1.232  16.981 -0.1077  0.1786  0.2793
 8378TIP3    H146625   6.771   1.170  16.908  0.5416  0.3636  0.0652
 8378TIP3    H246626   6.811   1.180  17.053 -1.6322 -0.2330  0.7401
 8379TIP3   OH246627   1.713   1.991  12.801  0.1604  0.8817 -0.1967
 8379TIP3    H146628   1.739   1.900  12.784  1.7080  1.3612 -0.5536
 8379TIP3    H246629   1.759   2.014  12.881 -3.2377  0.2059  2.1619
 8380TIP3   OH246630   0.169   5.082  12.308  0.2509  0.4711 -0.0631
 8380TIP3    H146631   0.094   5.087  12.249  0.2121 -0.0317 -0.0546
 8380TIP3    H246632   0.226   5.155  12.281 -0.6946  1.4846  0.5782
 8381TIP3   OH246633   4.500   0.221   1.439  0.0766 -0.1631 -0.1527
 8381TIP3    H146634   4.529   0.311   1.421 -2.2622  0.9820  1.2098
 8381TIP3    H246635   4.461   0.191   1.357 -0.1051  0.5181 -0.3232
 8382TIP3   OH246636   1.064   0.654   4.740  0.3089 -0.6279  0.1532
 8382TIP3    H146637   0.980   0.631   4.701  0.0500  0.0090  0.3112
 8382TIP3    H246638   1.053   0.746   4.766  1.3809 -0.2292 -0.7295
 8383TIP3   OH246639   0.616   5.422  12.266  0.5886 -0.1467 -0.2275
 8383TIP3    H146640   0.586   5.398  12.354  1.4386  2.3746  0.8495
 8383TIP3    H246641   0.621   5.339  12.219 -0.0695 -1.5697  2.0467
 8384TIP3   OH246642   0.563   2.358   4.866  0.4325 -0.1093  0.1856
 8384TIP3    H146643   0.573   2.434   4.922  2.0472  0.1229 -0.3526
 8384TIP3    H246644   0.507   2.388   4.794  1.7703  0.8794 -0.4892
 8385TIP3   OH246645   1.245   5.644   3.189  0.6070 -0.1829 -0.0658
 8385TIP3    H146646   1.172   5.697   3.222  1.0605 -0.2711  1.1027
 8385TIP3    H246647   1.323   5.691   3.218  1.0117 -0.7937 -0.1713
 8386TIP3   OH246648   3.801   5.333  11.991  0.3127 -0.6428  0.1884
 8386TIP3    H146649   3.709   5.333  12.019  0.0047 -0.3426 -0.7985
 8386TIP3    H246650   3.817   5.423  11.962  0.9535 -0.6723  0.4309
 8387TIP3   OH246651   3.497   2.645  14.852 -0.1815 -0.4548 -0.2440
 8387TIP3    H146652   3.569   2.592  14.885  0.5503 -0.5557 -1.9052
 8387TIP3    H246653   3.428   2.582  14.830 -0.2411 -0.4900  0.0451
 8388TIP3   OH246654   5.230   2.330   3.931  0.2407 -0.2848  0.0830
 8388TIP3    H146655   5.202   2.321   3.840 -1.4781  0.7377  0.4493
 8388TIP3    H246656   5.313   2.377   3.927 -1.1031  2.2454 -0.9424
 8389TIP3   OH246657   1.061   5.083   5.255 -0.2350 -0.2705 -0.5694
 8389TIP3    H146658   0.982   5.135   5.247 -0.0142  0.2318  0.2771
 8389TIP3    H246659   1.131   5.140   5.223  0.0992  0.2502  0.9766
 8390TIP3   OH246660   1.193   1.808  14.038  0.5993 -0.1566 -0.4626
 8390TIP3    H146661   1.240   1.813  14.121 -0.4514  0.6978  0.1031
 8390TIP3    H246662   1.105   1.779  14.062  0.1597  0.5206 -1.2187
 8391TIP3   OH246663   3.888   1.812   6.173  0.4938 -0.3173  0.3364
 8391TIP3    H146664   3.803   1.793   6.213  0.2409  0.8367  0.3833
 8391TIP3    H246665   3.869   1.878   6.107  1.2990 -0.3571  0.0549
 8392TIP3   OH246666   5.399   1.866   1.027  0.4159 -0.0125  0.5498
 8392TIP3    H146667   5.491   1.850   1.047  0.6671  1.2680  0.5303
 8392TIP3    H246668   5.378   1.805   0.957  1.3563 -0.0788  0.3112
 8393TIP3   OH246669   5.791   5.337  17.018  0.3931 -0.4358  0.2944
 8393TIP3    H146670   5.859   5.379  16.964 -0.2920 -0.1976 -0.4011
 8393TIP3    H246671   5.786   5.391  17.097  1.4984 -0.8622  0.6761
 8394TIP3   OH246672   6.458   0.873  13.971 -0.0817 -0.2748 -0.3391
 8394TIP3    H146673   6.466   0.960  13.932 -0.6033  0.2576  0.6875
 8394TIP3    H246674   6.503   0.815  13.910  0.8223  0.8044 -0.7396
 8395TIP3   OH246675   4.745   3.405   3.445 -0.0067 -0.0190  0.1543
 8395TIP3    H146676   4.806   3.476   3.427 -0.9884  0.6713 -0.4769
 8395TIP3    H246677   4.802   3.329   3.461  1.0153  0.3266 -1.5719
 8396TIP3   OH246678   3.277   4.623  12.087 -0.4842 -0.4443 -0.6335
 8396TIP3    H146679   3.263   4.717  12.101  0.7703 -0.0939 -1.4564
 8396TIP3    H246680   3.361   4.605  12.130 -0.2721 -0.9698 -1.2398
 8397TIP3   OH246681   3.257   6.381  12.991 -0.2290  0.2513  0.0900
 8397TIP3    H146682   3.234   6.398  12.900 -1.1294  0.6252  0.3793
 8397TIP3    H246683   3.348   6.409  12.998 -0.3972  0.9927 -0.4976
 8398TIP3   OH246684   5.031   3.041  16.366  0.0334 -0.1062  0.5016
 8398TIP3    H146685   5.083   2.962  16.382 -0.7134 -0.7520 -0.1299
 8398TIP3    H246686   4.942   3.016  16.392 -0.0958  0.7483  0.9061
 8399TIP3   OH246687   5.982   4.271  15.015 -0.1687 -0.5134 -0.4347
 8399TIP3    H146688   5.947   4.338  15.073 -0.3716 -0.6260 -0.4232
 8399TIP3    H246689   6.060   4.239  15.060  0.2078  0.0578 -0.6786
 8400TIP3   OH246690   2.762   3.962   4.067  0.0651  0.1705  0.5211
 8400TIP3    H146691   2.751   3.867   4.078 -0.1122  0.1697  0.3368
 8400TIP3    H246692   2.828   3.986   4.132  0.4615 -0.1584  0.2490
 8401TIP3   OH246693   2.767   5.072   5.567 -0.2545 -0.1301 -0.2191
 8401TIP3    H146694   2.674   5.069   5.545  0.0856 -2.2122 -1.6709
 8401TIP3    H246695   2.784   4.988   5.610  1.0899 -0.0815 -0.6179
 8402TIP3   OH246696   6.416   6.194  16.538  0.0826  0.3700  0.1443
 8402TIP3    H146697   6.463   6.131  16.593  0.9923  1.8313  1.0926
 8402TIP3    H246698   6.327   6.194  16.573 -0.0292 -0.6470 -0.1104
 8403TIP3   OH246699   1.312   3.701  15.857  0.0642 -0.4148  0.0931
 8403TIP3    H146700   1.242   3.643  15.829  0.8026 -0.8330 -0.9299
 8403TIP3    H246701   1.308   3.700  15.953 -0.4729 -1.4767  0.0633
 8404TIP3   OH246702   5.147   2.090  14.580  0.0441  0.0666  0.3834
 8404TIP3    H146703   5.179   2.069  14.668 -0.3847 -0.5594  0.3978
 8404TIP3    H246704   5.056   2.114  14.592 -0.3705 -1.2117 -0.0220
 8405TIP3   OH246705   1.343   0.306   5.367  0.2986 -0.1618  0.1569
 8405TIP3    H146706   1.432   0.328   5.393  0.5259 -0.2276 -0.5311
 8405TIP3    H246707   1.351   0.280   5.275 -0.4520 -0.0192  0.0445
 8406TIP3   OH246708   2.501   3.118   5.175  0.1253  0.5552 -0.2756
 8406TIP3    H146709   2.478   3.044   5.231 -1.2090  0.9280 -0.2924
 8406TIP3    H246710   2.593   3.136   5.196  0.2355 -0.5830  0.3096
 8407TIP3   OH246711   2.518   5.064   1.709  0.2811  0.3211 -0.3386
 8407TIP3    H146712   2.510   5.021   1.624  3.5636 -1.5738  0.1260
 8407TIP3    H246713   2.474   5.005   1.770  0.1754  0.3432 -0.3943
 8408TIP3   OH246714   5.793   3.405   1.212  0.0860  0.0325 -0.3220
 8408TIP3    H146715   5.875   3.355   1.213  0.0275 -0.1166 -1.4469
 8408TIP3    H246716   5.750   3.382   1.294  0.6971 -0.6886 -0.1876
 8409TIP3   OH246717   1.324   3.085   5.614 -0.2226  0.0015 -0.2887
 8409TIP3    H146718   1.300   3.138   5.690  0.0945 -1.5492  0.9527
 8409TIP3    H246719   1.382   3.140   5.562  0.0849  0.8613  0.9450
 8410TIP3   OH246720   1.703   6.523  10.538  0.1934 -0.2638 -0.1458
 8410TIP3    H146721   1.667   6.492  10.622  1.7321 -1.3844  0.1349
 8410TIP3    H246722   1.685   6.617  10.539 -1.1261 -0.4813  0.7638
 8411TIP3   OH246723   0.128   2.466   1.311  0.0869 -0.5613  0.4119
 8411TIP3    H146724   0.103   2.373   1.314  2.2578 -1.2306 -0.4864
 8411TIP3    H246725   0.191   2.476   1.383  0.9349 -0.1464 -0.3720
 8412TIP3   OH246726   3.550   5.913   3.389  0.3098 -0.1962 -0.1975
 8412TIP3    H146727   3.611   5.842   3.408 -0.6600 -1.4627 -1.5345
 8412TIP3    H246728   3.466   5.868   3.374 -0.3523  1.2390 -0.9718
 8413TIP3   OH246729   0.888   0.217   3.233  0.1212 -0.3569  0.1404
 8413TIP3    H146730   0.832   0.247   3.162 -1.1712  2.0907  2.0224
 8413TIP3    H246731   0.973   0.255   3.215  0.4111 -1.5343 -1.1381
 8414TIP3   OH246732   6.736   5.665   1.671 -0.1883  0.2844  0.1258
 8414TIP3    H146733   6.778   5.641   1.589 -1.0505 -1.6932  0.1963
 8414TIP3    H246734   6.722   5.759   1.665  0.2355  0.2602 -1.7598
 8415TIP3   OH246735   4.189   6.577   3.665  1.2513 -0.0578 -0.0477
 8415TIP3    H146736   4.108   6.552   3.710  1.9111  1.3067  2.0034
 8415TIP3    H246737   4.259   6.543   3.721  2.1016  2.0159  0.2348
 8416TIP3   OH246738   1.212   4.203  13.474 -0.5303  0.3071  0.3758
 8416TIP3    H146739   1.297   4.165  13.453  0.0731 -0.0595  3.1345
 8416TIP3    H246740   1.150   4.132  13.457 -0.4086  0.6992 -2.0274
 8417TIP3   OH246741   4.915   4.619   3.568 -0.0600 -0.0332 -0.0173
 8417TIP3    H146742   4.884   4.528   3.563  0.7581 -0.2794 -0.9625
 8417TIP3    H246743   4.930   4.644   3.477 -1.9769  1.6763  0.0547
 8418TIP3   OH246744   3.020   1.710  16.088  0.1543 -0.0551  1.4845
 8418TIP3    H146745   3.032   1.623  16.052  0.9427 -0.6629  3.1244
 8418TIP3    H246746   3.091   1.762  16.051 -0.6736  0.0900  0.0198
 8419TIP3   OH246747   2.088   3.858   0.253 -0.2003  0.1326 -0.1145
 8419TIP3    H146748   2.014   3.862   0.192 -0.6961 -0.3795  0.4251
 8419TIP3    H246749   2.166   3.860   0.198 -0.6314  0.0620 -0.7374
 8420TIP3   OH246750   3.939   6.433  14.622  0.3288 -0.0387  0.1919
 8420TIP3    H146751   3.879   6.394  14.557  1.6282 -0.6202 -0.7012
 8420TIP3    H246752   3.962   6.518  14.584  1.7407 -0.7228 -0.5736
 8421TIP3   OH246753   5.457   1.875  13.741  0.6447  0.1398 -0.2460
 8421TIP3    H146754   5.489   1.916  13.821  0.0397 -2.3874  1.4182
 8421TIP3    H246755   5.370   1.841  13.765  1.0095 -1.8561 -1.5125
 8422TIP3   OH246756   4.386   3.714  11.012  0.0651  0.3910  0.6314
 8422TIP3    H146757   4.300   3.718  11.052 -0.5427  0.7781 -0.6768
 8422TIP3    H246758   4.395   3.622  10.984  0.1280  0.3212  0.8823
 8423TIP3   OH246759   4.603   2.820  13.649 -0.0735  0.2985  0.5445
 8423TIP3    H146760   4.507   2.813  13.651 -0.0987  0.5984  0.4040
 8423TIP3    H246761   4.620   2.911  13.625  0.2483  0.1001  0.0055
 8424TIP3   OH246762   2.899   2.474   3.414 -0.2083  0.3406 -0.6627
 8424TIP3    H146763   2.867   2.412   3.480  0.4247  0.5452 -0.1550
 8424TIP3    H246764   2.819   2.507   3.372 -0.6227  0.2735  0.0551
 8425TIP3   OH246765   3.299   3.239   5.650  0.1316 -0.0617  0.4375
 8425TIP3    H146766   3.208   3.240   5.681  0.8292 -0.8961  2.7352
 8425TIP3    H246767   3.292   3.222   5.556 -2.0558 -2.5233  0.9290
 8426TIP3   OH246768   1.006   1.404   1.762  0.3397 -0.0500  0.4534
 8426TIP3    H146769   1.100   1.391   1.752  0.0753 -0.7808 -1.5403
 8426TIP3    H246770   0.983   1.352   1.839  1.6054  0.4684  1.2140
 8427TIP3   OH246771   0.755   2.594   5.327 -0.1783  0.2875 -0.0301
 8427TIP3    H146772   0.700   2.594   5.249  2.1688  1.6071 -1.8516
 8427TIP3    H246773   0.835   2.548   5.300  0.3684  0.0080  1.8846
 8428TIP3   OH246774   4.969   1.832   4.587 -0.5644  0.2744 -0.1424
 8428TIP3    H146775   4.967   1.866   4.498 -1.4890  0.9494  0.1185
 8428TIP3    H246776   5.060   1.838   4.614 -0.0225 -1.2621 -1.5274
 8429TIP3   OH246777   4.783   1.452  11.617 -0.2225  0.3909  0.1119
 8429TIP3    H146778   4.862   1.398  11.619  0.3713  1.2578  0.8800
 8429TIP3    H246779   4.722   1.407  11.676  0.0965  0.3038  0.3779
 8430TIP3   OH246780   4.457   2.399  14.595 -0.1472  0.0191  0.1223
 8430TIP3    H146781   4.495   2.423  14.679 -0.0988 -1.0839  0.4306
 8430TIP3    H246782   4.532   2.388  14.536 -0.1069 -0.4004  0.2542
 8431TIP3   OH246783   1.090   5.535  12.718 -0.0357  0.5894 -0.4733
 8431TIP3    H146784   1.064   5.462  12.775 -2.2578  1.3729 -0.3969
 8431TIP3    H246785   1.074   5.503  12.629 -1.8022  1.1963 -0.4154
 8432TIP3   OH246786   4.694   3.667  13.290  0.1908 -0.2620  0.5795
 8432TIP3    H146787   4.772   3.689  13.239  0.3739  0.9265  1.3434
 8432TIP3    H246788   4.720   3.684  13.381 -1.2486  1.0678  0.7744
 8433TIP3   OH246789   4.030   5.605  15.074 -0.2416 -0.0931 -0.0528
 8433TIP3    H146790   4.043   5.699  15.074  0.7568 -0.2186 -1.2723
 8433TIP3    H246791   4.092   5.571  15.010 -2.9109 -1.2385 -2.2700
 8434TIP3   OH246792   3.501   3.621   0.309 -0.3832  0.1072 -0.1421
 8434TIP3    H146793   3.424   3.620   0.365 -0.1392 -2.2306  0.2389
 8434TIP3    H246794   3.549   3.542   0.332  2.3167  1.6223 -0.1538
 8435TIP3   OH246795   0.384   0.436  14.794  0.0616 -0.4444 -0.3584
 8435TIP3    H146796   0.404   0.527  14.815  0.1528 -0.4361 -0.4786
 8435TIP3    H246797   0.364   0.395  14.878  3.1442 -1.1024  0.1568
 8436TIP3   OH246798   5.678   0.927  11.412 -0.0067  0.5933 -0.6197
 8436TIP3    H146799   5.735   0.871  11.358 -0.2089  1.1581 -1.4461
 8436TIP3    H246800   5.598   0.876  11.422  0.5334 -0.0939  0.3229
 8437TIP3   OH246801   5.649   1.575   3.785  0.3915 -0.9194 -0.0884
 8437TIP3    H146802   5.632   1.481   3.781  2.1731 -1.3130  0.8981
 8437TIP3    H246803   5.574   1.614   3.740  0.3422 -2.8675 -1.8787
 8438TIP3   OH246804   2.541   1.058   5.195 -0.1391 -0.0337 -0.1903
 8438TIP3    H146805   2.576   1.129   5.248  1.8809  1.0719 -2.7584
 8438TIP3    H246806   2.604   0.986   5.207 -0.0894 -0.0424 -0.4958
 8439TIP3   OH246807   5.788   3.084  10.458  0.0665  0.4852 -0.3327
 8439TIP3    H146808   5.780   2.989  10.449 -1.7131  0.5336  0.2399
 8439TIP3    H246809   5.697   3.115  10.465  0.6446  2.1196  0.5687
 8440TIP3   OH246810   5.499   2.671  11.354 -0.1922  0.3703  0.1172
 8440TIP3    H146811   5.526   2.596  11.301  2.3772 -0.2906  2.1931
 8440TIP3    H246812   5.542   2.746  11.312 -1.0116  0.3837 -0.7166
 8441TIP3   OH246813   3.207   3.805  15.414 -0.1631  0.0449 -0.5065
 8441TIP3    H146814   3.197   3.737  15.480 -0.9260  3.0044  2.7097
 8441TIP3    H246815   3.118   3.828  15.388 -0.1486  1.9143  0.9079
 8442TIP3   OH246816   1.027   5.260   1.326 -0.0470 -0.4124 -0.2137
 8442TIP3    H146817   1.029   5.210   1.245  0.2300 -1.0661  0.1925
 8442TIP3    H246818   1.038   5.195   1.395  0.9580  0.2713  0.2951
 8443TIP3   OH246819   6.180   6.645   5.700  0.0116  0.1840 -0.6994
 8443TIP3    H146820   6.124   6.620   5.774 -0.1943 -2.0169 -1.5216
 8443TIP3    H246821   6.269   6.637   5.734 -0.1081  0.1385 -0.3914
 8444TIP3   OH246822   5.843   5.291  11.894 -0.4804  0.0980  0.7617
 8444TIP3    H146823   5.771   5.228  11.903 -0.3724 -0.3285 -0.9810
 8444TIP3    H246824   5.892   5.283  11.977 -1.4108 -0.9024  1.2468
 8445TIP3   OH246825   0.427   2.669   0.650 -0.2682  0.1478 -0.3975
 8445TIP3    H146826   0.351   2.719   0.621 -0.9195 -0.5576  0.0844
 8445TIP3    H246827   0.396   2.617   0.724  0.5967 -0.3976 -0.4007
 8446TIP3   OH246828   2.062   6.162   3.706  0.0320  0.0279 -0.5712
 8446TIP3    H146829   2.022   6.094   3.762 -2.4312  0.9416 -1.0691
 8446TIP3    H246830   2.120   6.210   3.764 -1.2838 -0.0244  0.8677
 8447TIP3   OH246831   0.028   5.621   1.431 -0.1486  0.1061 -0.3642
 8447TIP3    H146832   0.026   5.705   1.385 -1.9147  0.8686  0.9967
 8447TIP3    H246833   0.109   5.580   1.402  0.2949  1.8631 -1.7887
 8448TIP3   OH246834   4.391   3.784   2.781  0.0280  0.1507 -0.8364
 8448TIP3    H146835   4.301   3.785   2.813  0.2429  2.8195 -0.0120
 8448TIP3    H246836   4.444   3.802   2.858  1.0074  1.2774 -1.7250
 8449TIP3   OH246837   0.597   3.119   0.648 -0.0852  1.2034 -0.3041
 8449TIP3    H146838   0.592   3.188   0.582 -0.0006  0.3850 -1.1834
 8449TIP3    H246839   0.507   3.089   0.658 -0.1904  1.7069  0.3949
 8450TIP3   OH246840   1.664   0.284  10.317  1.0088 -0.1042 -0.2280
 8450TIP3    H146841   1.620   0.321  10.393  1.5521  0.9487 -0.4090
 8450TIP3    H246842   1.755   0.274  10.343  1.5763  1.8860 -1.2492
 8451TIP3   OH246843   5.027   4.288   4.277 -0.3129 -0.0834  0.8558
 8451TIP3    H146844   5.057   4.289   4.368 -0.6326  0.0888  0.9629
 8451TIP3    H246845   5.104   4.311   4.226  0.3812 -2.1189  0.9094
 8452TIP3   OH246846   1.741   0.120   3.281  0.3887 -0.2070  0.0668
 8452TIP3    H146847   1.690   0.104   3.202  1.0844 -0.7098 -0.2855
 8452TIP3    H246848   1.811   0.055   3.278  2.1561  1.6197 -0.3927
 8453TIP3   OH246849   4.352   4.321  17.142 -0.0061 -0.0243 -0.8209
 8453TIP3    H146850   4.327   4.394  17.199 -1.4921 -1.6970  0.8073
 8453TIP3    H246851   4.367   4.361  17.056 -0.0568  2.2633  0.1653
 8454TIP3   OH246852   0.284   5.105  13.963 -0.5868 -0.8492  0.1994
 8454TIP3    H146853   0.191   5.127  13.956 -0.8432 -2.0668 -0.6020
 8454TIP3    H246854   0.324   5.147  13.887 -0.6244 -0.9633  0.1155
 8455TIP3   OH246855   0.804   5.394   1.340 -0.5556 -0.1126  0.1976
 8455TIP3    H146856   0.887   5.348   1.325 -0.9180 -0.9446  0.6678
 8455TIP3    H246857   0.738   5.324   1.339 -1.3413  0.6163 -0.8651
 8456TIP3   OH246858   2.660   4.633   3.454  0.1390  0.5231 -0.0533
 8456TIP3    H146859   2.570   4.617   3.484  0.6231  1.2346  1.9800
 8456TIP3    H246860   2.699   4.546   3.447  0.1126  0.2888  1.9676
 8457TIP3   OH246861   5.109   3.445   0.293 -0.5644  0.4304  0.2813
 8457TIP3    H146862   5.163   3.366   0.289 -1.1049  0.0886 -0.4330
 8457TIP3    H246863   5.083   3.461   0.202 -1.1582  0.9431  0.5347
 8458TIP3   OH246864   1.202   1.372   4.977  0.2285  0.6842 -0.1038
 8458TIP3    H146865   1.119   1.404   5.011  0.2682 -0.6208  1.3450
 8458TIP3    H246866   1.192   1.374   4.882 -2.0226 -0.7732  0.0227
 8459TIP3   OH246867   6.707   1.646   2.954 -0.3766  0.4341 -0.0789
 8459TIP3    H146868   6.699   1.642   3.049  0.3043  0.1489 -0.0263
 8459TIP3    H246869   6.765   1.721   2.938  0.6622 -0.3585 -0.1811
 8460TIP3   OH246870   2.796   4.994  12.249  0.6491 -0.6056  0.6511
 8460TIP3    H146871   2.736   4.990  12.323 -1.4833  0.4873 -0.9081
 8460TIP3    H246872   2.750   5.047  12.183  1.5644 -3.0713 -2.2246
 8461TIP3   OH246873   3.094   3.911  11.495  0.4184  0.2696 -0.3687
 8461TIP3    H146874   3.131   3.976  11.435  1.4326  0.1597  0.1178
 8461TIP3    H246875   3.160   3.901  11.564  0.6124 -1.7620 -0.7858
 8462TIP3   OH246876   3.130   1.548   5.607 -0.7410 -0.4190  0.0916
 8462TIP3    H146877   3.104   1.463   5.570  0.0160  0.0346 -1.5962
 8462TIP3    H246878   3.052   1.602   5.599 -0.7819 -0.5236 -0.2278
 8463TIP3   OH246879   2.599   3.073  15.022 -0.3372  0.1704  0.1264
 8463TIP3    H146880   2.663   3.031  14.966 -2.4956 -1.3264 -1.4009
 8463TIP3    H246881   2.516   3.062  14.976 -1.7441  1.8931  2.0462
 8464TIP3   OH246882   0.016   5.130   3.790  0.7001  0.3984  0.0871
 8464TIP3    H146883  -0.040   5.186   3.736  0.3830 -0.1193 -0.1279
 8464TIP3    H246884  -0.045   5.073   3.837  1.0007  0.4861  0.5913
 8465TIP3   OH246885   1.899   5.567  12.953  0.3138 -0.0236 -0.0168
 8465TIP3    H146886   1.855   5.547  12.871 -0.5565  0.6016  0.2806
 8465TIP3    H246887   1.836   5.620  13.002  1.0071  0.0303  0.8500
 8466TIP3   OH246888   0.881   2.987  16.289 -0.2167  0.3225  0.4947
 8466TIP3    H146889   0.871   2.999  16.195  2.4505  3.2907  0.4501
 8466TIP3    H246890   0.926   2.902  16.297 -0.6302 -0.0526 -0.8606
 8467TIP3   OH246891   5.814   3.635  11.468  0.2887 -0.2745  0.5314
 8467TIP3    H146892   5.878   3.568  11.446 -1.9692 -1.7806 -2.2210
 8467TIP3    H246893   5.754   3.592  11.529 -0.6311 -0.5004 -0.4989
 8468TIP3   OH246894   6.086   0.478  13.017 -0.1183 -0.1409 -0.0445
 8468TIP3    H146895   6.051   0.561  13.050 -2.9066 -0.4649 -1.8341
 8468TIP3    H246896   6.117   0.499  12.928  0.2863 -0.7708 -0.0567
 8469TIP3   OH246897   4.029   4.516  15.051 -0.3413  0.1115  0.2391
 8469TIP3    H146898   4.024   4.463  15.131  2.3088  0.2977  0.6119
 8469TIP3    H246899   4.069   4.458  14.986 -2.5865 -0.0809 -1.0714
 8470TIP3   OH246900   3.912   2.392  13.059 -0.0356 -0.1859 -0.3103
 8470TIP3    H146901   3.958   2.453  13.002 -0.5781 -0.9716 -1.6260
 8470TIP3    H246902   3.980   2.333  13.091  1.1665  2.8329  3.5943
 8471TIP3   OH246903   6.025   0.964  11.339 -0.1933 -0.3111  0.2108
 8471TIP3    H146904   6.026   0.895  11.273 -1.2554  0.0003 -0.1452
 8471TIP3    H246905   5.979   1.037  11.297 -0.8659 -0.1052  1.2792
 8472TIP3   OH246906   2.174   3.277   0.439  0.1211 -0.5661 -0.3495
 8472TIP3    H146907   2.126   3.334   0.380 -1.0730 -1.6629 -0.5036
 8472TIP3    H246908   2.125   3.281   0.521  1.8023  0.9960  0.6466
 8473TIP3   OH246909   2.051   5.684   4.881  0.5295  0.2234  0.3239
 8473TIP3    H146910   2.120   5.723   4.934  0.8743 -0.9321  0.7531
 8473TIP3    H246911   2.084   5.596   4.859 -0.4490 -0.0427 -0.1501
 8474TIP3   OH246912   1.131   3.620   6.018 -0.4944  0.1710 -0.8510
 8474TIP3    H146913   1.066   3.676   5.977 -1.0984  0.7732  0.8264
 8474TIP3    H246914   1.190   3.681   6.063 -2.4266 -0.4288  2.8724
 8475TIP3   OH246915   0.197   2.104  11.504 -0.4523  0.4980 -0.0585
 8475TIP3    H146916   0.150   2.079  11.425 -1.5961 -0.4802  0.9044
 8475TIP3    H246917   0.128   2.126  11.567  0.4440  1.5807  0.5811
 8476TIP3   OH246918   1.094   5.747  13.276 -1.0977 -0.1541  0.3100
 8476TIP3    H146919   1.022   5.796  13.237  1.5224  2.1063 -2.1454
 8476TIP3    H246920   1.112   5.792  13.359 -0.4079  1.5578 -0.7002
 8477TIP3   OH246921   4.323   0.896   3.679  0.4167  0.1943  0.3236
 8477TIP3    H146922   4.386   0.826   3.695 -0.0566 -0.1982  0.4933
 8477TIP3    H246923   4.323   0.907   3.584 -0.7898 -1.2663  0.1150
 8478TIP3   OH246924   5.117   1.600  13.240  0.0761 -0.3771  0.4583
 8478TIP3    H146925   5.157   1.524  13.281  4.2841  1.5471  0.4451
 8478TIP3    H246926   5.085   1.568  13.156  2.5777 -2.0437  0.0489
 8479TIP3   OH246927   3.374   6.114  14.010 -0.4217 -0.4358  0.3152
 8479TIP3    H146928   3.454   6.062  14.011 -0.1459 -0.0720 -0.8464
 8479TIP3    H246929   3.310   6.059  13.965 -0.1092  0.2233 -0.9851
 8480TIP3   OH246930   0.963   2.985   2.825 -0.6462 -0.4065  0.5343
 8480TIP3    H146931   1.015   2.910   2.856  0.3329 -0.4980 -1.1944
 8480TIP3    H246932   1.026   3.058   2.823 -1.2952  0.1752  1.0585
 8481TIP3   OH246933   1.253   5.685  14.146  0.6640  0.0458 -0.0509
 8481TIP3    H146934   1.162   5.655  14.140  0.4203  0.7717 -0.1044
 8481TIP3    H246935   1.259   5.726  14.232  0.8579  0.2565 -0.1645
 8482TIP3   OH246936   5.454   2.595   0.554  0.4486 -0.5119 -0.5961
 8482TIP3    H146937   5.373   2.547   0.570  1.1867 -2.0965 -1.4487
 8482TIP3    H246938   5.517   2.557   0.614  0.6655  0.5026 -0.1609
 8483TIP3   OH246939   1.207   0.760  16.065  0.3928  0.2557  0.0335
 8483TIP3    H146940   1.295   0.787  16.039  1.2810 -3.0190 -0.7679
 8483TIP3    H246941   1.220   0.717  16.150  0.1010 -2.4423 -1.1931
 8484TIP3   OH246942   1.664   1.487  14.392 -0.0462 -0.3750  0.1688
 8484TIP3    H146943   1.751   1.516  14.420 -0.5904  0.2067  1.3277
 8484TIP3    H246944   1.637   1.553  14.328 -0.4037  0.5371  1.2299
 8485TIP3   OH246945   1.235   3.375   1.446 -0.2411  0.6452  0.4722
 8485TIP3    H146946   1.275   3.291   1.423 -0.6355  1.0661 -2.0777
 8485TIP3    H246947   1.309   3.435   1.454 -0.0856  0.5115  0.0860
 8486TIP3   OH246948   4.980   0.338   2.792  0.2712  0.2283  0.4589
 8486TIP3    H146949   4.944   0.368   2.875 -1.1502  0.3862 -0.1730
 8486TIP3    H246950   4.922   0.377   2.726  0.0874 -1.5872 -0.5076
 8487TIP3   OH246951   1.087   1.011  16.596 -0.4084 -0.9959  0.2625
 8487TIP3    H146952   1.034   1.022  16.517 -0.9174  1.4919  0.8821
 8487TIP3    H246953   1.175   1.037  16.569 -0.6935  0.3854  0.6247
 8488TIP3   OH246954   0.311   6.605   2.762  0.2032 -0.3166 -0.4340
 8488TIP3    H146955   0.365   6.555   2.701  1.4186  0.9825 -0.4937
 8488TIP3    H246956   0.263   6.667   2.706 -0.4696 -0.6767 -0.2683
 8489TIP3   OH246957   3.709   2.185   4.928 -0.5881 -0.0822  0.5658
 8489TIP3    H146958   3.621   2.150   4.915 -0.3007 -0.0524 -1.8308
 8489TIP3    H246959   3.713   2.262   4.871  1.4793 -0.9957 -0.6252
 8490TIP3   OH246960   1.515   4.122  15.805  0.2817 -0.5156  0.3432
 8490TIP3    H146961   1.601   4.082  15.796  0.5588 -0.1284  1.1708
 8490TIP3    H246962   1.475   4.114  15.718 -0.2277 -3.7697  0.7641
 8491TIP3   OH246963   6.185   2.644   5.741  1.0660 -0.2531  0.1079
 8491TIP3    H146964   6.228   2.610   5.663 -0.1973 -2.0317  0.1363
 8491TIP3    H246965   6.223   2.596   5.814 -0.4768 -1.4456  0.1835
 8492TIP3   OH246966   2.414   5.047  17.052  0.0519  0.0325  0.3089
 8492TIP3    H146967   2.387   4.957  17.071 -2.1417  0.7617  0.9284
 8492TIP3    H246968   2.510   5.045  17.060  0.0738 -2.2382  0.2377
 8493TIP3   OH246969   5.991   6.181  14.853 -0.2078  0.0278 -0.1294
 8493TIP3    H146970   5.973   6.273  14.835  0.0141  0.3559  1.2429
 8493TIP3    H246971   6.086   6.177  14.865 -0.0855 -0.5737 -1.1443
 8494TIP3   OH246972   5.183   0.515   1.728  0.0234  0.2232  0.0730
 8494TIP3    H146973   5.257   0.455   1.714  0.5050  0.4688  1.4135
 8494TIP3    H246974   5.133   0.475   1.800 -1.2938 -0.0553 -0.9650
 8495TIP3   OH246975   3.109   2.541  15.269 -0.3880 -0.3487 -0.5721
 8495TIP3    H146976   3.026   2.577  15.235  0.7826  1.6378 -1.5137
 8495TIP3    H246977   3.082   2.478  15.336 -2.6576  1.1046 -0.0030
 8496TIP3   OH246978   1.557   3.319   3.917 -0.0815 -0.9312 -0.2216
 8496TIP3    H146979   1.554   3.229   3.950  3.7929 -1.0522  0.2123
 8496TIP3    H246980   1.626   3.361   3.967  0.5060  1.3104 -2.6920
 8497TIP3   OH246981   5.844   4.127  14.846 -0.7680 -0.1426 -0.6713
 8497TIP3    H146982   5.754   4.159  14.853 -0.3268  1.1354 -0.6254
 8497TIP3    H246983   5.895   4.188  14.900  0.5027  0.7507 -2.7865
 8498TIP3   OH246984   0.564   1.064   0.888 -0.2167  0.6108 -0.6546
 8498TIP3    H146985   0.472   1.042   0.869  0.0248 -0.8131 -0.3170
 8498TIP3    H246986   0.594   1.110   0.810 -0.8046 -0.2279 -1.4027
 8499TIP3   OH246987   0.302   3.466   3.418  0.5763 -0.4628 -0.0301
 8499TIP3    H146988   0.242   3.538   3.397  0.0780 -0.5393  1.0515
 8499TIP3    H246989   0.270   3.392   3.367 -0.4958 -0.5988  0.8012
 8500TIP3   OH246990   3.651   6.703  15.740  0.4175 -0.1896  0.0258
 8500TIP3    H146991   3.567   6.731  15.777  0.4244  1.6968 -1.2306
 8500TIP3    H246992   3.686   6.641  15.804 -0.8953  0.6927  1.6970
 8501TIP3   OH246993   5.311   0.003  13.373  0.4554 -0.0894  0.0794
 8501TIP3    H146994   5.229   0.037  13.410  0.2095  0.4618 -0.9413
 8501TIP3    H246995   5.380   0.041  13.427  0.1099  0.8198 -0.1095
 8502TIP3   OH246996   6.574   6.053   3.609  0.0350 -0.0919 -0.1899
 8502TIP3    H146997   6.625   6.022   3.684  0.0737 -0.5860 -0.4164
 8502TIP3    H246998   6.485   6.062   3.642  0.4116  1.6022  0.4413
 8503TIP3   OH246999   3.969   1.951  14.466  0.1867 -0.0705 -0.0467
 8503TIP3    H147000   3.894   1.915  14.419 -0.5021  0.9704  0.2458
 8503TIP3    H247001   3.956   1.925  14.557 -1.0889  2.1048  0.4401
 8504TIP3   OH247002   6.431   0.620   4.750 -0.5143 -0.5253  0.2348
 8504TIP3    H147003   6.361   0.576   4.799 -0.3495 -2.1088 -0.8718
 8504TIP3    H247004   6.488   0.549   4.720 -0.6288  0.3326 -2.2377
 8505TIP3   OH247005   5.173   6.755  10.929  0.1760  0.1502 -0.1733
 8505TIP3    H147006   5.169   6.811  10.852  1.2216  3.9944  2.2721
 8505TIP3    H247007   5.094   6.778  10.979  0.1986 -1.2368  0.5456
 8506TIP3   OH247008   6.600   5.525  15.822  0.5083 -0.4706  0.6236
 8506TIP3    H147009   6.545   5.489  15.753 -0.3566  0.7879  0.6274
 8506TIP3    H247010   6.628   5.610  15.789  1.8070 -0.7435  0.9700
 8507TIP3   OH247011   4.537   1.680   0.031  0.0367 -0.3724  0.2719
 8507TIP3    H147012   4.551   1.608  -0.031 -0.3789 -2.4035  2.3630
 8507TIP3    H247013   4.612   1.676   0.089  0.6805  1.8295 -0.3315
 8508TIP3   OH247014   6.174   0.892  16.018 -0.0109 -0.1993  0.5958
 8508TIP3    H147015   6.221   0.816  15.983 -1.2861 -0.5609 -0.4402
 8508TIP3    H247016   6.089   0.889  15.974  0.2880  2.4645 -0.3235
 8509TIP3   OH247017   1.400   0.528  12.928  0.0884 -0.0865  0.2607
 8509TIP3    H147018   1.422   0.551  12.837  0.0595  1.4963  0.6150
 8509TIP3    H247019   1.481   0.492  12.964  0.4453  0.3552 -0.0797
 8510TIP3   OH247020   3.147   1.926   2.584 -0.2509 -0.4179  0.0746
 8510TIP3    H147021   3.068   1.944   2.634 -0.0777  1.6049 -0.3044
 8510TIP3    H247022   3.210   1.991   2.615  0.1215  0.3406 -2.1359
 8511TIP3   OH247023   3.274   2.700   5.541  0.2324 -0.3831  0.6344
 8511TIP3    H147024   3.253   2.714   5.449  2.4183  1.2277  0.3016
 8511TIP3    H247025   3.198   2.733   5.589 -0.6791 -0.6876 -0.5720
 8512TIP3   OH247026   5.399   4.489   2.261  0.1761 -0.0283 -0.2576
 8512TIP3    H147027   5.306   4.510   2.267 -0.5698 -3.0326  0.9250
 8512TIP3    H247028   5.404   4.427   2.187  0.7649 -1.6099  1.0392
 8513TIP3   OH247029   6.495   3.331   2.508  0.2763  0.0686 -0.2413
 8513TIP3    H147030   6.477   3.395   2.577  1.0129  0.0677 -0.0416
 8513TIP3    H247031   6.478   3.379   2.427 -0.0118  0.2515 -0.0749
 8514TIP3   OH247032   6.474   0.431  14.786 -0.1878  0.1674  0.3211
 8514TIP3    H147033   6.490   0.501  14.723 -0.3226  0.0271  0.1285
 8514TIP3    H247034   6.415   0.371  14.740  0.2909 -0.3089  0.3105
 8515TIP3   OH247035   4.617   4.000  12.229  0.9036 -0.2807 -0.5603
 8515TIP3    H147036   4.560   4.000  12.152  1.0525  0.3668 -0.6787
 8515TIP3    H247037   4.558   3.985  12.303  0.7748 -1.0305 -0.8072
 8516TIP3   OH247038   5.294   3.629  14.092  0.1301 -0.1175  0.5368
 8516TIP3    H147039   5.293   3.623  14.187 -3.3919  0.4539  0.6704
 8516TIP3    H247040   5.234   3.560  14.063  1.1580 -0.3095 -1.3252
 8517TIP3   OH247041   0.267   1.260  11.829 -0.4702 -0.2570  0.0685
 8517TIP3    H147042   0.293   1.180  11.782 -2.7528  0.3211 -2.4018
 8517TIP3    H247043   0.254   1.231  11.920  2.0875 -1.8741  0.0296
 8518TIP3   OH247044   1.274   5.386  16.256 -0.0729 -0.1727  0.2740
 8518TIP3    H147045   1.219   5.308  16.253  0.7846 -0.7689 -0.4613
 8518TIP3    H247046   1.216   5.455  16.289 -0.9328 -1.0394  0.6190
 8519TIP3   OH247047   0.420   1.892   5.415  0.0224  0.7651  0.8633
 8519TIP3    H147048   0.434   1.843   5.496  1.3957  0.4720  0.4783
 8519TIP3    H247049   0.496   1.950   5.409 -0.6376  1.6023  0.3509
 8520TIP3   OH247050   1.798   4.959   0.731 -0.8384  0.2870  0.3048
 8520TIP3    H147051   1.767   5.017   0.662 -1.8042 -0.6727 -0.1025
 8520TIP3    H247052   1.744   4.982   0.807 -0.8663  0.2669  0.2910
 8521TIP3   OH247053   3.624   0.245  15.707 -0.3439  0.8487  0.0156
 8521TIP3    H147054   3.664   0.163  15.677 -1.6599  0.2156 -0.0776
 8521TIP3    H247055   3.694   0.288  15.756 -0.1633 -1.2861  1.8163
 8522TIP3   OH247056   6.010   2.553   3.800  0.2452  0.7728  0.3316
 8522TIP3    H147057   6.084   2.612   3.817  0.6918  0.3508 -0.1433
 8522TIP3    H247058   5.946   2.608   3.754  0.1307  1.2145  0.9935
 8523TIP3   OH247059   3.006   5.702  10.502 -0.3135  0.2089  0.1048
 8523TIP3    H147060   2.975   5.785  10.467  1.4729  0.3110 -1.3679
 8523TIP3    H247061   2.929   5.664  10.545 -0.7953  3.4046  2.4867
 8524TIP3   OH247062   2.494   2.930  14.207  0.9333 -0.2170  0.0869
 8524TIP3    H147063   2.419   2.968  14.253 -0.2205 -2.6580  0.3734
 8524TIP3    H247064   2.566   2.934  14.269  0.0944 -1.0116  1.1472
 8525TIP3   OH247065   1.559   3.751   5.336 -0.2797  0.3185  0.0812
 8525TIP3    H147066   1.594   3.696   5.266  1.3394 -0.8397  1.7186
 8525TIP3    H247067   1.561   3.840   5.300  2.0012 -0.0428 -0.8301
 8526TIP3   OH247068   5.824   0.611   0.550 -0.2383 -0.1849  0.2572
 8526TIP3    H147069   5.837   0.622   0.645  0.0053 -0.5028  0.2587
 8526TIP3    H247070   5.872   0.684   0.511 -1.2422  0.6006  0.4261
 8527TIP3   OH247071   0.731   4.669  13.027 -0.3501 -0.4096 -0.4060
 8527TIP3    H147072   0.689   4.743  13.071 -1.2887 -1.4967  0.5884
 8527TIP3    H247073   0.787   4.629  13.094  0.2922 -0.5060 -0.9862
 8528TIP3   OH247074   3.260   4.239  14.496  0.4168  0.3287 -0.0889
 8528TIP3    H147075   3.186   4.180  14.479  1.2195 -1.0030  0.8537
 8528TIP3    H247076   3.220   4.316  14.537 -0.3526 -0.8481  1.4786
 8529TIP3   OH247077   0.436   3.785   5.750  0.1762  0.7328  0.2746
 8529TIP3    H147078   0.473   3.848   5.688  0.0013  1.4335  0.8685
 8529TIP3    H247079   0.464   3.817   5.836 -0.6777  0.5104  0.6393
 8530TIP3   OH247080   0.153   3.758  12.676  0.0517  0.2899 -0.4907
 8530TIP3    H147081   0.070   3.802  12.653  0.0720 -0.3217 -1.8307
 8530TIP3    H247082   0.202   3.824  12.725 -1.0891  0.7755  0.0352
 8531TIP3   OH247083   1.931   5.360  11.442 -0.0575  0.1484 -0.4657
 8531TIP3    H147084   1.911   5.302  11.516  0.2321  0.9078  0.2269
 8531TIP3    H247085   1.847   5.374  11.399 -0.0260 -1.3037 -1.0438
 8532TIP3   OH247086   4.294   4.318   4.106 -0.5829  0.0939 -0.4235
 8532TIP3    H147087   4.238   4.377   4.057  1.7489  0.2380 -3.2236
 8532TIP3    H247088   4.296   4.238   4.053  1.5147 -0.0086 -0.2901
 8533TIP3   OH247089   2.342   4.047   2.844 -0.0790  0.3034 -0.3273
 8533TIP3    H147090   2.266   3.989   2.843 -0.3160  0.6098 -1.5864
 8533TIP3    H247091   2.333   4.098   2.924 -0.4554 -0.6270  0.2336
 8534TIP3   OH247092   0.123   3.847  13.045  0.0674 -0.2281  0.6705
 8534TIP3    H147093   0.149   3.934  13.015  0.6999 -0.5293  0.3071
 8534TIP3    H247094   0.195   3.818  13.101  1.5494 -1.8474 -1.8582
 8535TIP3   OH247095   3.539   5.412   4.043  0.0049  0.1345  0.4033
 8535TIP3    H147096   3.443   5.415   4.045 -0.2855 -3.2606 -0.9181
 8535TIP3    H247097   3.564   5.480   3.981 -1.7636 -0.2426 -0.8245
 8536TIP3   OH247098   3.011   4.443   1.827 -0.5294  0.8431  0.1999
 8536TIP3    H147099   3.029   4.484   1.912 -0.8689 -0.0184  0.7034
 8536TIP3    H247100   3.007   4.349   1.847  1.7527  0.3812 -1.1662
 8537TIP3   OH247101   6.808   1.574   5.048  0.0234  0.4798 -0.2426
 8537TIP3    H147102   6.733   1.609   5.096 -0.0690 -1.4210  1.0945
 8537TIP3    H247103   6.871   1.550   5.116  0.9345 -0.0035 -1.2264
 8538TIP3   OH247104   0.769   2.269   1.113 -0.1424 -0.0070 -0.5012
 8538TIP3    H147105   0.855   2.236   1.138  0.4404  1.6230 -0.2521
 8538TIP3    H247106   0.782   2.310   1.028 -0.0976  2.2957  0.5498
 8539TIP3   OH247107   2.492   2.998  12.273 -0.3786  0.1239  0.0642
 8539TIP3    H147108   2.570   3.050  12.253  0.1917 -0.3284  1.0329
 8539TIP3    H247109   2.467   3.026  12.361 -0.9141 -0.2054  0.0195
 8540TIP3   OH247110   2.296   3.800   0.045 -0.2695  0.2066  0.3882
 8540TIP3    H147111   2.245   3.771  -0.031  0.6081 -1.1349  0.2840
 8540TIP3    H247112   2.291   3.727   0.107 -1.0049  1.3007  1.6597
 8541TIP3   OH247113   6.185   1.608  15.863  0.3236 -0.2846 -0.7226
 8541TIP3    H147114   6.132   1.572  15.792 -0.0622  1.6230 -1.4597
 8541TIP3    H247115   6.124   1.662  15.914  1.2453  0.8178 -0.7537
 8542TIP3   OH247116   4.347   0.493  15.395  0.6492  0.1535  0.0425
 8542TIP3    H147117   4.303   0.578  15.403 -1.1306 -0.5993 -1.0475
 8542TIP3    H247118   4.413   0.507  15.327 -1.4314  0.0853 -2.1339
 8543TIP3   OH247119   2.601   0.042   5.873  0.2927  1.3179 -0.1120
 8543TIP3    H147120   2.517   0.020   5.914  0.4677 -0.8591 -0.8002
 8543TIP3    H247121   2.578   0.067   5.783  0.2924  1.7301  0.0025
 8544TIP3   OH247122   3.575   4.480  14.548  0.4184  0.0692  0.3359
 8544TIP3    H147123   3.583   4.560  14.601 -1.7496 -0.2024  1.1433
 8544TIP3    H247124   3.642   4.421  14.583 -0.3991  0.2108  2.2364
 8545TIP3   OH247125   4.166   3.724  12.417 -0.0767  0.9177 -0.4565
 8545TIP3    H147126   4.167   3.652  12.480  1.4995  1.1913 -0.1326
 8545TIP3    H247127   4.074   3.751  12.413 -0.5547 -0.5397  0.0576
 8546TIP3   OH247128   0.795   0.692   2.562  0.3544 -0.2172 -0.3935
 8546TIP3    H147129   0.712   0.725   2.596  0.1942 -0.9272 -0.0743
 8546TIP3    H247130   0.862   0.733   2.615  0.0778 -2.1517  1.5868
 8547TIP3   OH247131   2.142   3.597   0.788  0.0843  0.2011 -0.8739
 8547TIP3    H147132   2.224   3.552   0.771 -0.5977 -1.1682 -0.6147
 8547TIP3    H247133   2.168   3.677   0.835  1.1670 -0.9530  0.5778
 8548TIP3   OH247134   3.309   3.270  15.618 -0.2407  0.0441  0.2921
 8548TIP3    H147135   3.298   3.337  15.550 -0.6866  1.1039  1.3681
 8548TIP3    H247136   3.386   3.300  15.668  0.9860 -1.5051 -0.6083
 8549TIP3   OH247137   4.042   1.348   4.557 -0.0089 -0.1100  0.1358
 8549TIP3    H147138   4.021   1.355   4.464 -0.0542  0.1760  0.1649
 8549TIP3    H247139   3.982   1.282   4.591 -0.1734 -0.0216  0.0169
 8550TIP3   OH247140   4.146   1.905   4.373 -0.3467 -0.1734  0.2465
 8550TIP3    H147141   4.153   1.929   4.465  0.5038 -0.5716  0.2932
 8550TIP3    H247142   4.057   1.872   4.363 -0.4536 -0.0954  0.9173
 8551TIP3   OH247143   2.313   1.583   1.705  0.2351  0.0542 -0.5322
 8551TIP3    H147144   2.287   1.496   1.734  0.6012  0.4089  0.9584
 8551TIP3    H247145   2.233   1.635   1.708  0.0543 -0.1666 -1.2463
 8552TIP3   OH247146   2.242   1.992   3.609 -0.0123  0.3522  0.3733
 8552TIP3    H147147   2.274   2.075   3.641 -0.0936  0.3025  0.5826
 8552TIP3    H247148   2.320   1.948   3.574  0.0198  0.5391  0.2070
 8553TIP3   OH247149   4.126   0.154  11.582  0.0398  0.0226 -0.2211
 8553TIP3    H147150   4.099   0.159  11.673 -0.9306  0.7063 -0.5402
 8553TIP3    H247151   4.179   0.074  11.577 -1.2649 -0.9225  0.5803
 8554TIP3   OH247152   0.588   2.165   4.550 -0.7427 -0.1539  0.3536
 8554TIP3    H147153   0.636   2.119   4.482 -0.6011  1.5304 -0.7190
 8554TIP3    H247154   0.557   2.245   4.509  2.4405  2.8307  3.0947
 8555TIP3   OH247155   1.053   0.709   5.876  0.6364  0.3049  0.4389
 8555TIP3    H147156   0.975   0.704   5.931 -0.2926  2.1970 -0.6131
 8555TIP3    H247157   1.118   0.656   5.922 -1.1242 -1.0233  1.5452
 8556TIP3   OH247158   1.763   1.753   1.937 -0.4378 -0.4419  0.0073
 8556TIP3    H147159   1.765   1.849   1.933 -2.6004 -0.3636 -2.1744
 8556TIP3    H247160   1.851   1.728   1.965 -0.1996  2.1804  1.9431
 8557TIP3   OH247161   1.999   4.210   4.076 -0.1075 -0.4635 -0.4953
 8557TIP3    H147162   2.039   4.130   4.041 -2.9173 -2.2542  0.0180
 8557TIP3    H247163   2.058   4.237   4.146  0.5085 -2.6363 -0.0839
 8558TIP3   OH247164   5.027   4.648  17.208  0.3012 -0.0513  0.6032
 8558TIP3    H147165   4.980   4.577  17.165  0.8870 -0.4868  0.6759
 8558TIP3    H247166   4.968   4.678  17.277 -0.6647  0.6684 -0.4927
 8559TIP3   OH247167   3.682   4.287   3.103 -0.6343 -0.0553 -0.2711
 8559TIP3    H147168   3.588   4.282   3.084 -1.2413 -0.7710  2.4455
 8559TIP3    H247169   3.694   4.373   3.141 -0.0186  0.3008 -1.2471
 8560TIP3   OH247170   3.914   4.735  13.533  0.4015  0.1808  0.2069
 8560TIP3    H147171   3.944   4.652  13.570  0.4571 -0.6575 -1.6106
 8560TIP3    H247172   3.955   4.739  13.447 -0.0069  1.8737  0.0605
 8561TIP3   OH247173   3.084   4.701  11.838 -0.1149 -0.0445  0.1270
 8561TIP3    H147174   3.081   4.781  11.892  0.0394  0.8493 -1.1426
 8561TIP3    H247175   3.071   4.630  11.901 -1.0972  1.0150  1.2035
 8562TIP3   OH247176   1.431   6.408  13.899 -0.1099  0.2366 -0.5752
 8562TIP3    H147177   1.349   6.437  13.860 -0.4862  0.8168  0.5898
 8562TIP3    H247178   1.466   6.485  13.943  1.0448 -0.0187 -0.9999
 8563TIP3   OH247179   5.984   1.617   5.414  0.0455 -0.0505  0.1532
 8563TIP3    H147180   6.069   1.643   5.449 -0.2157  0.3093  0.5240
 8563TIP3    H247181   6.000   1.531   5.374  0.6400  0.1326 -0.0107
 8564TIP3   OH247182   1.825   1.044  14.986  0.2241  0.4053  0.1756
 8564TIP3    H147183   1.873   0.962  14.995  1.4327  1.0817  0.1309
 8564TIP3    H247184   1.805   1.050  14.892  0.4345  0.3190  0.1238
 8565TIP3   OH247185   3.398   3.238  16.572 -0.1816 -0.2661  0.2070
 8565TIP3    H147186   3.397   3.170  16.639 -1.7329 -0.1701  0.3163
 8565TIP3    H247187   3.310   3.236  16.534 -1.3228  3.5112  2.1539
 8566TIP3   OH247188   0.375   3.625   5.544 -0.1563  0.1262 -0.9819
 8566TIP3    H147189   0.461   3.630   5.504 -0.1750 -0.0301 -1.0400
 8566TIP3    H247190   0.385   3.670   5.629 -0.6196  2.3097 -2.0012
 8567TIP3   OH247191   2.134   2.758   3.406  0.1230 -0.1571  0.2814
 8567TIP3    H147192   2.073   2.829   3.426  0.2228  0.2247 -0.7210
 8567TIP3    H247193   2.080   2.680   3.400 -0.2173  0.1187 -0.2553
 8568TIP3   OH247194   6.476   2.989  12.844  0.5040 -0.4335 -0.6015
 8568TIP3    H147195   6.490   2.895  12.855  2.0858 -0.0023  2.0353
 8568TIP3    H247196   6.555   3.029  12.880 -1.3153  1.9591  1.0300
 8569TIP3   OH247197   3.100   4.886  17.099  0.4328 -0.2128 -0.8161
 8569TIP3    H147198   3.057   4.889  17.013 -0.6255  1.0893 -0.2851
 8569TIP3    H247199   3.175   4.946  17.090  0.6075 -0.4496 -0.9617
 8570TIP3   OH247200   4.372   2.128  11.610  0.5261 -0.2357 -0.0332
 8570TIP3    H147201   4.325   2.117  11.527  0.0958 -0.4993  0.2448
 8570TIP3    H247202   4.449   2.181  11.587 -0.3019  0.8558 -0.3548
 8571TIP3   OH247203   4.029   5.989   1.568  0.1256 -0.5360  0.0050
 8571TIP3    H147204   4.110   5.949   1.536  1.1818  1.1879  0.3646
 8571TIP3    H247205   4.049   6.012   1.659 -0.8817 -0.3841  0.1913
 8572TIP3   OH247206   4.935   5.739  13.418  0.0865 -0.4293 -0.0613
 8572TIP3    H147207   4.924   5.779  13.504 -0.6748  1.6236 -1.0373
 8572TIP3    H247208   5.020   5.769  13.388 -0.6518  0.8280 -0.9601
 8573TIP3   OH247209   3.111   5.261   5.278 -0.1593  0.1359 -0.1207
 8573TIP3    H147210   3.101   5.354   5.259  0.0857  1.1985  3.9892
 8573TIP3    H247211   3.039   5.240   5.337  2.0267 -1.0907  2.3528
 8574TIP3   OH247212   0.610   5.465  13.015 -0.3583 -0.0850 -0.3473
 8574TIP3    H147213   0.634   5.500  12.929 -0.1960 -0.6073 -0.5175
 8574TIP3    H247214   0.623   5.371  13.007 -1.6264 -0.2880 -0.1666
 8575TIP3   OH247215   3.598   0.694  15.066  0.4357 -0.1888 -0.0578
 8575TIP3    H147216   3.692   0.709  15.075  0.3778  1.8915 -2.1457
 8575TIP3    H247217   3.583   0.693  14.972 -1.6838 -0.2785  0.2409
 8576TIP3   OH247218   1.016   6.070   1.176  0.0024  0.0179  0.2304
 8576TIP3    H147219   1.094   6.116   1.208  1.0137 -1.9972  0.8349
 8576TIP3    H247220   0.982   6.126   1.106  1.3269  1.4999  0.7127
 8577TIP3   OH247221   3.205   5.848  14.857  0.1057 -0.2135  0.6633
 8577TIP3    H147222   3.129   5.898  14.827 -0.8011 -2.1032 -0.3799
 8577TIP3    H247223   3.281   5.898  14.826 -0.7672 -0.4875 -2.1903
 8578TIP3   OH247224   4.057   0.558  12.462  0.5732  0.2220 -0.0599
 8578TIP3    H147225   4.125   0.552  12.395  0.0045  1.0030 -0.7209
 8578TIP3    H247226   3.978   0.582  12.414 -0.6158 -2.3110  0.4462
 8579TIP3   OH247227   1.076   6.365   2.343 -0.1386 -0.4056  0.0357
 8579TIP3    H147228   1.026   6.304   2.398 -1.2557 -0.1020 -0.6117
 8579TIP3    H247229   1.013   6.432   2.317  1.0833  1.0943  0.7688
 8580TIP3   OH247230   4.633   2.612   0.922 -0.3249 -0.0795 -0.3623
 8580TIP3    H147231   4.701   2.545   0.936 -0.4191  0.2685  2.1891
 8580TIP3    H247232   4.556   2.579   0.968 -1.4059  0.3186 -1.8156
 8581TIP3   OH247233   3.563   6.450  16.456  0.4240  0.6467 -0.4187
 8581TIP3    H147234   3.526   6.463  16.544 -1.1333  1.1553 -1.1176
 8581TIP3    H247235   3.504   6.498  16.398  1.1669 -0.0752 -1.8125
 8582TIP3   OH247236   6.365   5.822   3.745  0.4200 -0.6326  0.2236
 8582TIP3    H147237   6.441   5.770   3.720  0.3939 -0.2479 -0.7120
 8582TIP3    H247238   6.306   5.760   3.786  0.9977 -1.0475  0.4439
 8583TIP3   OH247239   2.476   1.698  11.391 -0.2367 -0.4136 -0.3135
 8583TIP3    H147240   2.549   1.700  11.453  1.3551 -0.6762 -2.1107
 8583TIP3    H247241   2.413   1.761  11.426  1.3952  0.7623  0.6249
 8584TIP3   OH247242   3.954   1.739  11.978  0.1701  0.2120 -0.2176
 8584TIP3    H147243   3.922   1.827  11.957 -1.2251  0.8461  3.8284
 8584TIP3    H247244   4.040   1.753  12.016  1.1630 -0.5591 -2.0286
 8585TIP3   OH247245   2.591   2.847   0.948  0.0469  0.2087 -0.1330
 8585TIP3    H147246   2.500   2.827   0.926  0.0464 -0.0418  0.0946
 8585TIP3    H247247   2.617   2.777   1.008  0.1505  0.7073  0.4045
 8586TIP3   OH247248   1.583   4.712  11.687  0.6991  0.0480 -0.3725
 8586TIP3    H147249   1.528   4.640  11.717  0.1207 -0.4473 -2.4573
 8586TIP3    H247250   1.673   4.683  11.704  0.4264  0.3680  1.9791
 8587TIP3   OH247251   4.581   4.586  14.843  0.0077  0.3116 -0.0021
 8587TIP3    H147252   4.624   4.661  14.801 -0.1740  0.8359  0.7232
 8587TIP3    H247253   4.531   4.625  14.915  0.2351 -0.5510  0.6425
 8588TIP3   OH247254   3.638   0.677  11.876  0.2117  0.8720 -0.0825
 8588TIP3    H147255   3.544   0.665  11.859 -0.3443 -0.7236  3.2292
 8588TIP3    H247256   3.645   0.765  11.912 -0.7452 -0.1042  2.8343
 8589TIP3   OH247257   3.168   0.198   5.479  0.4770  0.0944 -0.1505
 8589TIP3    H147258   3.100   0.188   5.413  0.8077  0.1570 -0.5052
 8589TIP3    H247259   3.212   0.113   5.482  1.1495  0.4119 -0.7803
 8590TIP3   OH247260   1.560   0.278  11.987 -0.0028  0.5484  0.6345
 8590TIP3    H147261   1.534   0.188  11.970 -0.6154  0.9241 -0.5685
 8590TIP3    H247262   1.533   0.326  11.908  2.9527  1.2596 -0.0683
 8591TIP3   OH247263   1.670   6.612  10.877  0.3190  0.2606 -0.0716
 8591TIP3    H147264   1.605   6.680  10.861  1.5978  1.7166  0.6340
 8591TIP3    H247265   1.626   6.530  10.852 -1.5104  1.2490 -0.2650
 8592TIP3   OH247266   1.827   5.718   0.494 -0.3658 -0.0749 -0.9524
 8592TIP3    H147267   1.741   5.739   0.530  0.5912  0.5268  1.1509
 8592TIP3    H247268   1.819   5.628   0.463 -1.1727 -0.8732  1.3425
 8593TIP3   OH247269   4.724   1.196   0.926  0.3401 -0.3548 -0.1268
 8593TIP3    H147270   4.634   1.167   0.941  0.1204  0.2471 -0.2318
 8593TIP3    H247271   4.762   1.130   0.869  0.4924 -1.5008  1.2685
 8594TIP3   OH247272   0.628   4.183  11.341 -0.0803  0.5022 -0.4156
 8594TIP3    H147273   0.616   4.126  11.265  0.2269  1.7139 -1.4056
 8594TIP3    H247274   0.722   4.201  11.343  0.0376 -0.1360  0.7414
 8595TIP3   OH247275   3.977   0.757   6.273 -0.3565 -0.2700  0.0626
 8595TIP3    H147276   3.972   0.696   6.347  0.2727 -2.7667 -1.8138
 8595TIP3    H247277   4.056   0.809   6.289 -0.3965 -0.5563  1.2585
 8596TIP3   OH247278   2.302   4.915  14.838  0.0038 -0.7335 -0.2333
 8596TIP3    H147279   2.252   4.845  14.796 -1.1813 -0.3409  0.4896
 8596TIP3    H247280   2.387   4.875  14.858 -0.3442 -1.6958 -0.6132
 8597TIP3   OH247281   0.689   1.352   6.437 -0.0586  0.4087 -0.0525
 8597TIP3    H147282   0.774   1.341   6.394 -0.0026  2.1780 -0.4577
 8597TIP3    H247283   0.630   1.381   6.367 -0.7869  0.0428  0.4006
 8598TIP3   OH247284   2.646   2.618   6.053 -0.3440 -0.3095 -0.3736
 8598TIP3    H147285   2.606   2.592   6.136 -0.2844 -0.5868 -0.4323
 8598TIP3    H247286   2.711   2.551   6.035 -0.3984 -0.2836 -0.6778
 8599TIP3   OH247287   3.884   3.306   3.381 -0.3079  0.2161  0.0802
 8599TIP3    H147288   3.935   3.313   3.300  0.2840  0.2348  0.4480
 8599TIP3    H247289   3.906   3.220   3.416 -1.8676 -0.4944 -0.6318
 8600TIP3   OH247290   3.923   2.985   3.183  0.2396  0.3613  0.6742
 8600TIP3    H147291   3.924   2.912   3.121 -0.0926  0.1815  0.8761
 8600TIP3    H247292   3.972   3.055   3.139  2.1404 -0.5689  1.2145
 8601TIP3   OH247293   5.858   2.643  13.205  0.4009  0.0763  0.1581
 8601TIP3    H147294   5.946   2.644  13.241 -0.5773  1.2982  2.8257
 8601TIP3    H247295   5.860   2.704  13.131  1.7615  0.0666  0.1769
 8602TIP3   OH247296   4.029   6.597  12.338  0.0833  0.0637 -0.2669
 8602TIP3    H147297   3.977   6.530  12.293  1.7793 -0.4512 -1.5612
 8602TIP3    H247298   4.098   6.619  12.276  0.6438  1.6870  0.8760
 8603TIP3   OH247299   4.205   1.643  16.491 -0.4194  0.0817 -0.8230
 8603TIP3    H147300   4.159   1.631  16.408 -0.3369  1.6684 -1.1158
 8603TIP3    H247301   4.298   1.644  16.466 -0.3901  0.4728 -0.6939
 8604TIP3   OH247302   2.085   4.059   5.043 -0.5684 -0.1981 -0.0350
 8604TIP3    H147303   2.052   4.025   5.126 -0.6744 -1.0651 -0.4163
 8604TIP3    H247304   2.093   4.153   5.056  0.9424 -0.4836  1.4896
 8605TIP3   OH247305   4.822   6.768   2.686 -0.6122  0.3111  0.2652
 8605TIP3    H147306   4.801   6.799   2.598  0.9026 -1.4836 -0.8212
 8605TIP3    H247307   4.791   6.677   2.687  0.3940 -0.0486  1.1618
 8606TIP3   OH247308   1.358   6.694  16.901  0.7911 -0.0122  0.3085
 8606TIP3    H147309   1.305   6.619  16.928 -0.8618  0.8093 -0.4435
 8606TIP3    H247310   1.384   6.674  16.812 -0.5117  0.6818 -0.2683
 8607TIP3   OH247311   3.605   6.545  13.964 -0.9354  0.2166  0.0307
 8607TIP3    H147312   3.555   6.466  13.941 -2.8090  1.1477  0.7441
 8607TIP3    H247313   3.663   6.558  13.888 -2.8984 -0.0226 -1.6049
 8608TIP3   OH247314   4.592   1.755   7.272  0.1390  0.5008 -0.5150
 8608TIP3    H147315   4.567   1.840   7.309 -0.2326  0.4028 -0.5352
 8608TIP3    H247316   4.647   1.777   7.197 -2.1086  0.8284 -2.1666
 8609TIP3   OH247317   5.104   6.569  15.917  0.0475  0.1635  0.5563
 8609TIP3    H147318   5.034   6.591  15.978  0.0906  2.5485 -0.1641
 8609TIP3    H247319   5.093   6.629  15.843  3.3204  1.3125  0.7968
 8610TIP3   OH247320   5.774   6.532  12.695  0.6187  0.6235  0.0932
 8610TIP3    H147321   5.728   6.556  12.775 -1.5321 -1.0739 -0.5383
 8610TIP3    H247322   5.860   6.503  12.725  0.2036  0.9381  1.6713
 8611TIP3   OH247323   1.111   3.668  14.666 -0.1972  0.7626  0.4761
 8611TIP3    H147324   1.084   3.687  14.577  1.7237  2.0794  0.1168
 8611TIP3    H247325   1.078   3.742  14.718  0.8806  1.3308  0.3802
 8612TIP3   OH247326   2.079   6.397   4.839 -0.0784 -0.4171  0.6824
 8612TIP3    H147327   2.117   6.322   4.794 -0.5259 -1.3532  1.7990
 8612TIP3    H247328   2.148   6.427   4.899 -0.6915 -1.5008  1.9963
 8613TIP3   OH247329   6.729   3.674   3.770 -0.1149  0.4962 -0.2126
 8613TIP3    H147330   6.656   3.652   3.828  1.5183 -2.3968  0.9231
 8613TIP3    H247331   6.746   3.594   3.721  0.6067  1.9286 -2.4648
 8614TIP3   OH247332   3.196   2.125  14.191 -0.0309  0.5640 -0.2681
 8614TIP3    H147333   3.255   2.071  14.138  1.0049 -0.0981  1.4796
 8614TIP3    H247334   3.130   2.064  14.223  0.1522  0.6776  0.3266
 8615TIP3   OH247335   6.811   3.589  16.706 -0.3353  0.0409  0.1235
 8615TIP3    H147336   6.837   3.528  16.775  0.4093 -0.8535 -0.9125
 8615TIP3    H247337   6.893   3.612  16.663 -0.9078 -0.4454 -1.2814
 8616TIP3   OH247338   5.046   1.693   1.161 -0.4079  0.7305  0.0175
 8616TIP3    H147339   5.021   1.704   1.253  1.3936  0.5249  0.5701
 8616TIP3    H247340   5.135   1.658   1.165  0.4355  2.4884 -1.8013
 8617TIP3   OH247341   2.772   5.382  11.964  0.0290 -0.0080  0.0856
 8617TIP3    H147342   2.698   5.377  12.025  0.5028  1.4587  0.8080
 8617TIP3    H247343   2.849   5.389  12.020  0.3064  4.6233 -0.4634
 8618TIP3   OH247344   2.016   0.324   1.926 -0.0060 -0.2453  0.2073
 8618TIP3    H147345   2.077   0.384   1.969  0.2484  0.0375 -0.5212
 8618TIP3    H247346   1.930   0.354   1.952  0.1100  0.6011 -0.3424
 8619TIP3   OH247347   0.597   3.687  17.212 -0.0605 -0.2070 -0.0901
 8619TIP3    H147348   0.610   3.598  17.243 -1.7095 -0.0093  1.3552
 8619TIP3    H247349   0.623   3.686  17.120 -1.7336 -2.6260 -0.6216
 8620TIP3   OH247350   4.850   2.609   1.195  0.5680 -0.0299 -1.1385
 8620TIP3    H147351   4.918   2.556   1.238 -2.0409 -2.1736  0.6970
 8620TIP3    H247352   4.823   2.556   1.120 -0.5184 -0.2947 -0.5834
 8621TIP3   OH247353   0.750   6.270  15.017 -0.3300 -0.8349  0.3229
 8621TIP3    H147354   0.831   6.219  15.025  0.1541 -0.0705  0.3526
 8621TIP3    H247355   0.723   6.285  15.107  0.3884  0.3010  0.3655
 8622TIP3   OH247356   3.530   4.945   4.599 -0.2113  0.1855  0.2959
 8622TIP3    H147357   3.597   5.013   4.608  1.3585 -1.2149 -0.4061
 8622TIP3    H247358   3.478   4.972   4.523  0.5753  0.4572 -0.1488
 8623TIP3   OH247359   2.690   1.893   2.587  0.1013  0.4665 -0.8193
 8623TIP3    H147360   2.662   1.891   2.495  0.2048  0.2725 -0.8472
 8623TIP3    H247361   2.766   1.951   2.587 -0.5748  1.3765 -0.6651
 8624TIP3   OH247362   3.628   0.971  13.865 -0.7087 -0.1018 -0.3384
 8624TIP3    H147363   3.627   1.027  13.788 -2.5280  1.1181  0.4815
 8624TIP3    H247364   3.607   0.883  13.832 -0.0730  0.1316 -1.3785
 8625TIP3   OH247365   0.471   0.499  10.824  0.5625 -0.4086 -0.3960
 8625TIP3    H147366   0.560   0.463  10.832  1.3344  1.3082 -0.8258
 8625TIP3    H247367   0.479   0.589  10.854 -0.4999  0.4827 -2.5950
 8626TIP3   OH247368   0.040   2.962  16.732 -0.8036 -0.7144 -0.1413
 8626TIP3    H147369   0.100   2.887  16.726  1.8539  1.1857  1.0436
 8626TIP3    H247370   0.015   2.966  16.824  0.1747  0.5918  0.0984
 8627TIP3   OH247371   4.126   6.611  16.901 -0.1588 -0.1977 -0.2341
 8627TIP3    H147372   4.180   6.539  16.870 -0.7847 -1.2218  0.9581
 8627TIP3    H247373   4.071   6.572  16.969 -1.4356  1.1180 -0.4682
 8628TIP3   OH247374   1.664   4.508  13.021 -0.3082 -0.2073 -0.1443
 8628TIP3    H147375   1.665   4.423  13.065 -0.6716 -0.7802 -1.1903
 8628TIP3    H247376   1.641   4.571  13.089 -0.9477 -1.0694  0.4514
 8629TIP3   OH247377   2.659   6.667   0.887 -0.1225 -0.6709 -0.3578
 8629TIP3    H147378   2.747   6.701   0.899  0.3533 -1.6939 -0.8200
 8629TIP3    H247379   2.616   6.679   0.972  0.3341  0.1705 -0.2384
 8630TIP3   OH247380   0.371   2.871   1.126  0.5313  0.5645  0.0253
 8630TIP3    H147381   0.370   2.778   1.149 -0.6899  0.4430 -0.4278
 8630TIP3    H247382   0.375   2.917   1.209 -1.1368  0.1128  0.3888
 8631TIP3   OH247383   1.640   1.344   2.480  0.2271 -0.1778  0.1556
 8631TIP3    H147384   1.621   1.251   2.479 -2.6896  0.3390 -0.4632
 8631TIP3    H247385   1.711   1.354   2.416 -0.9300 -1.7191 -1.4603
 8632TIP3   OH247386   4.970   4.099  12.581  0.2200  0.5289 -0.7060
 8632TIP3    H147387   4.948   4.050  12.660  0.5285  0.7393 -0.4861
 8632TIP3    H247388   5.061   4.077  12.564  1.1877  2.9640  0.8563
 8633TIP3   OH247389   0.985   1.667   5.184  0.5948  0.0067 -0.1260
 8633TIP3    H147390   0.967   1.608   5.257  1.4344 -1.9318 -1.4139
 8633TIP3    H247391   1.012   1.610   5.113  2.0999  2.0049 -1.2590
 8634TIP3   OH247392   4.666   4.887   3.046 -0.1629 -0.0293  0.7847
 8634TIP3    H147393   4.583   4.841   3.058  1.3335 -2.7681  1.5288
 8634TIP3    H247394   4.679   4.888   2.951 -0.1220 -1.4986  0.7424
 8635TIP3   OH247395   6.687   0.474  11.678 -0.3126  0.6431 -0.0020
 8635TIP3    H147396   6.694   0.568  11.659  1.1469  0.7244  0.8081
 8635TIP3    H247397   6.708   0.432  11.595 -1.6501  1.0079 -0.5568
 8636TIP3   OH247398   4.297   0.621  11.896  0.3300 -0.3403  0.4586
 8636TIP3    H147399   4.376   0.629  11.948  1.6450 -1.0445 -1.3026
 8636TIP3    H247400   4.308   0.684  11.824 -1.3383  0.4965  0.8735
 8637TIP3   OH247401   0.274   5.248   2.909  0.0530  0.3253  1.2176
 8637TIP3    H147402   0.259   5.312   2.840  0.7154 -0.3592  0.4174
 8637TIP3    H247403   0.209   5.180   2.894  1.3510 -0.7278  0.1168
 8638TIP3   OH247404   2.830   4.807   0.235  0.7806 -0.3582  0.6189
 8638TIP3    H147405   2.920   4.836   0.221  1.2963 -2.5057 -1.0466
 8638TIP3    H247406   2.776   4.870   0.187  1.5606 -0.1151  0.0521
 8639TIP3   OH247407   2.833   4.125   3.212 -0.7395 -0.0909  0.5795
 8639TIP3    H147408   2.777   4.192   3.172  0.9950  0.7551 -0.5722
 8639TIP3    H247409   2.875   4.083   3.138 -0.1963 -1.0145  1.3979
 8640TIP3   OH247410   2.253   2.812  14.070 -0.0342 -0.0946  0.2552
 8640TIP3    H147411   2.286   2.883  14.124  1.2547  0.3485 -1.0501
 8640TIP3    H247412   2.272   2.733  14.119  0.8446  0.3161  0.5907
 8641TIP3   OH247413   4.331   0.731  14.907  0.6254 -0.9616 -0.3352
 8641TIP3    H147414   4.339   0.826  14.909  0.2519 -0.8205 -2.8181
 8641TIP3    H247415   4.252   0.714  14.855 -0.8436 -2.6592  2.1758
 8642TIP3   OH247416   6.000   5.235  14.499  0.4419  0.0975 -0.3274
 8642TIP3    H147417   6.055   5.158  14.515  0.3810  0.2616  0.7985
 8642TIP3    H247418   5.932   5.230  14.566  0.3387  1.0433 -0.3455
 8643TIP3   OH247419   4.631   5.141  15.594 -0.3622  0.3194  0.7583
 8643TIP3    H147420   4.674   5.142  15.508 -2.6440  0.9551 -0.4522
 8643TIP3    H247421   4.688   5.194  15.650  2.0093 -1.3781  0.1514
 8644TIP3   OH247422   1.656   5.729  11.026  0.4643 -0.4257  0.0374
 8644TIP3    H147423   1.635   5.823  11.019  3.6191  0.5871  1.9618
 8644TIP3    H247424   1.669   5.701  10.936 -0.1414  1.1005 -0.5638
 8645TIP3   OH247425   0.048   5.200  13.028 -0.0343 -0.2219  0.4252
 8645TIP3    H147426   0.003   5.255  13.092 -0.6625 -2.1512  1.7168
 8645TIP3    H247427   0.141   5.211  13.048  0.0218  1.9735 -0.7490
 8646TIP3   OH247428   1.209   0.438   0.130  0.0471 -0.4767 -0.2629
 8646TIP3    H147429   1.248   0.520   0.160 -0.2239 -0.1828 -0.7128
 8646TIP3    H247430   1.231   0.433   0.037  2.2352 -2.1592  0.2809
 8647TIP3   OH247431   6.330   1.176  13.917  0.2681  0.0759  0.0382
 8647TIP3    H147432   6.425   1.182  13.932  0.2630 -1.4679  0.9464
 8647TIP3    H247433   6.293   1.243  13.975  0.7820  0.5639 -0.1842
 8648TIP3   OH247434   6.346   2.885   5.667  0.1533  0.2061  0.4706
 8648TIP3    H147435   6.269   2.932   5.699 -1.3199 -0.3071 -2.0303
 8648TIP3    H247436   6.339   2.798   5.707 -0.6392  0.1393  0.2026
 8649TIP3   OH247437   2.773   2.820   2.450  0.7316 -0.1167  0.1928
 8649TIP3    H147438   2.808   2.748   2.502  1.7992  1.5899  1.9295
 8649TIP3    H247439   2.681   2.826   2.476  0.7827 -0.4833  0.4600
 8650TIP3   OH247440   4.262   3.424  13.721 -0.0447 -0.2182  0.2405
 8650TIP3    H147441   4.332   3.358  13.719 -0.1268 -0.4184  2.1458
 8650TIP3    H247442   4.306   3.503  13.751 -0.5255 -0.2268  0.9940
 8651TIP3   OH247443   6.364   5.210  12.234 -0.1210 -0.2677  0.1947
 8651TIP3    H147444   6.317   5.191  12.153 -0.7115 -1.9727  0.8832
 8651TIP3    H247445   6.334   5.143  12.295  0.4958  0.8287  1.7596
 8652TIP3   OH247446   1.480   6.505   0.680 -0.6259  0.3114 -0.4637
 8652TIP3    H147447   1.528   6.585   0.664  0.6126 -0.0810  1.0261
 8652TIP3    H247448   1.391   6.534   0.703  0.2308  1.4346  1.7729
 8653TIP3   OH247449   6.518   1.186   2.541 -0.3189 -0.1611 -0.3698
 8653TIP3    H147450   6.505   1.275   2.573 -0.7707 -0.5935  0.7231
 8653TIP3    H247451   6.444   1.171   2.482 -1.2551 -0.3933  0.8183
 8654TIP3   OH247452   1.297   1.042  11.428  0.2828 -0.2748 -0.3235
 8654TIP3    H147453   1.359   1.096  11.476  0.3965 -1.3269  0.7772
 8654TIP3    H247454   1.352   0.992  11.367  0.4161 -0.5433  0.0124
 8655TIP3   OH247455   2.187   0.348   2.196  0.5070  0.0912  0.1558
 8655TIP3    H147456   2.248   0.364   2.268  1.5422 -0.5514 -0.5371
 8655TIP3    H247457   2.119   0.291   2.233 -0.3855  1.8173  1.2638
 8656TIP3   OH247458   5.268   3.009   3.950 -0.9690 -0.2112 -0.2283
 8656TIP3    H147459   5.256   2.919   3.980  1.7029 -0.6021 -0.1220
 8656TIP3    H247460   5.338   3.004   3.886 -0.2290  1.8840  0.3375
 8657TIP3   OH247461   4.811   1.607  15.033  0.0067 -0.0901 -0.2139
 8657TIP3    H147462   4.843   1.626  14.944  0.6180 -0.1323 -0.0110
 8657TIP3    H247463   4.872   1.654  15.090 -1.1989  1.1044  0.1514
 8658TIP3   OH247464   4.140   6.642  14.693  0.3188 -0.5098  0.2103
 8658TIP3    H147465   4.064   6.697  14.711  0.9886  0.2760  0.6883
 8658TIP3    H247466   4.211   6.681  14.743  0.5896 -2.4578  1.4698
 8659TIP3   OH247467   3.007   3.197   1.174  0.1793  0.5661  0.1606
 8659TIP3    H147468   2.993   3.286   1.141 -0.6399 -0.1144 -1.5091
 8659TIP3    H247469   3.092   3.200   1.216  1.0096  1.7427 -1.4617
 8660TIP3   OH247470   1.790   1.896  11.714  0.0576  0.5691 -0.3778
 8660TIP3    H147471   1.807   1.816  11.764 -1.1743  0.1612 -0.5595
 8660TIP3    H247472   1.712   1.934  11.756  2.4041  3.4527  1.7672
 8661TIP3   OH247473   5.632   4.071  12.245  0.2088  0.5288  0.0790
 8661TIP3    H147474   5.669   4.084  12.333  0.3523  0.6120  0.0067
 8661TIP3    H247475   5.569   4.143  12.235  1.3842  1.5179 -0.5270
 8662TIP3   OH247476   2.045   0.811   3.103 -0.2422 -0.7189  0.1497
 8662TIP3    H147477   1.982   0.883   3.108 -0.3188 -0.8840  2.5025
 8662TIP3    H247478   1.995   0.734   3.130 -0.0471 -1.6341 -1.9376
 8663TIP3   OH247479   6.249   2.100  15.459  1.0652  0.3909 -0.1440
 8663TIP3    H147480   6.308   2.118  15.386 -0.3031 -2.1444 -2.0278
 8663TIP3    H247481   6.289   2.025  15.503  0.4853  0.1788  0.0248
 8664TIP3   OH247482   3.002   1.840  11.717 -0.1585 -0.0555  0.1509
 8664TIP3    H147483   2.970   1.914  11.768  0.5721  0.6979 -0.4691
 8664TIP3    H247484   3.008   1.873  11.628  0.6757 -0.7015 -0.0433
 8665TIP3   OH247485   4.401   3.433  15.768  0.0419 -0.4440  0.1565
 8665TIP3    H147486   4.325   3.491  15.757  0.7354  0.6439  0.9176
 8665TIP3    H247487   4.383   3.385  15.849 -0.8473 -1.8455 -0.8171
 8666TIP3   OH247488   5.695   4.812  15.671 -0.0299 -0.2143  0.2695
 8666TIP3    H147489   5.646   4.778  15.746 -1.5743  1.4263  0.0755
 8666TIP3    H247490   5.709   4.904  15.692 -0.4857  0.2737 -1.4533
 8667TIP3   OH247491   3.749   4.595   3.134 -0.0869  0.4307  0.4763
 8667TIP3    H147492   3.828   4.570   3.181  0.1940 -1.3603 -0.8296
 8667TIP3    H247493   3.753   4.690   3.127 -0.0610  0.7644  3.8209
 8668TIP3   OH247494   4.590   3.802   3.786  0.3478  0.0661  0.7887
 8668TIP3    H147495   4.624   3.721   3.748 -1.2134 -0.5551  0.6516
 8668TIP3    H247496   4.668   3.848   3.818  1.4932 -0.4418 -1.1080
 8669TIP3   OH247497   5.351   5.733   3.310 -0.0409  0.7774 -0.2084
 8669TIP3    H147498   5.288   5.663   3.294 -0.6182  1.3844 -0.6143
 8669TIP3    H247499   5.434   5.698   3.278 -0.0196 -0.2871  0.9489
 8670TIP3   OH247500   6.042   3.012   1.395  0.0118  0.4424 -0.0136
 8670TIP3    H147501   6.072   2.999   1.485  0.3304 -1.3760 -0.3508
 8670TIP3    H247502   6.011   3.103   1.393 -1.6198  0.0434  2.3860
 8671TIP3   OH247503   5.105   3.017  16.788 -0.1929  0.0191  0.2086
 8671TIP3    H147504   5.067   3.049  16.869 -2.1072 -0.2844 -0.5167
 8671TIP3    H247505   5.064   3.070  16.720 -2.2425 -2.7111 -0.8997
 8672TIP3   OH247506   2.656   2.629   0.126 -0.4188  0.1827  0.1087
 8672TIP3    H147507   2.740   2.676   0.121 -1.2853  1.6843 -1.2588
 8672TIP3    H247508   2.655   2.592   0.214  0.8577  1.7430  0.8447
 8673TIP3   OH247509   6.230   3.053   4.343 -0.2125  0.2730  0.1358
 8673TIP3    H147510   6.244   3.098   4.259  0.2430 -0.5488 -0.2427
 8673TIP3    H247511   6.190   3.120   4.399 -2.2245  0.3471 -1.2681
 8674TIP3   OH247512   0.752   1.887  14.208 -0.3891 -0.1056 -0.1706
 8674TIP3    H147513   0.837   1.921  14.182 -0.5183  1.1131  0.8950
 8674TIP3    H247514   0.745   1.908  14.301 -2.8191  2.0134 -0.7028
 8675TIP3   OH247515   0.213   6.180  11.999 -0.4034 -0.0196 -0.1907
 8675TIP3    H147516   0.187   6.255  11.946 -0.1351  0.4373  0.3176
 8675TIP3    H247517   0.305   6.196  12.019 -0.5663 -0.0582  0.6214
 8676TIP3   OH247518   2.214   2.448  13.208 -0.3018 -0.5434  0.2503
 8676TIP3    H147519   2.170   2.452  13.123  0.9606  0.2881 -0.3957
 8676TIP3    H247520   2.183   2.526  13.255  0.3471 -0.0442 -0.1419
 8677TIP3   OH247521   5.907   0.088  14.645 -0.3039  0.3421  0.5002
 8677TIP3    H147522   5.825   0.128  14.617 -0.5218 -0.0717  0.5434
 8677TIP3    H247523   5.917   0.011  14.589  0.8734  1.2768 -0.6282
 8678TIP3   OH247524   4.801   5.152  15.382 -0.4139 -0.0930 -0.0521
 8678TIP3    H147525   4.852   5.071  15.386  1.6612  1.1462 -0.1184
 8678TIP3    H247526   4.858   5.214  15.336 -1.7594  1.5525  0.4115
 8679TIP3   OH247527   0.443   4.394   0.545 -0.3973 -0.0396  0.0467
 8679TIP3    H147528   0.539   4.395   0.549 -0.3176  2.9006 -0.4961
 8679TIP3    H247529   0.423   4.331   0.476  1.1473 -0.4808 -0.0358
 8680TIP3   OH247530   0.700   3.593  16.467 -0.1287 -0.0930  0.2167
 8680TIP3    H147531   0.786   3.573  16.503 -0.2191  0.6906  0.8856
 8680TIP3    H247532   0.714   3.595  16.372 -0.0540 -2.9561  0.0788
 8681TIP3   OH247533   0.317   1.805  13.006 -0.1742  0.6369 -0.3930
 8681TIP3    H147534   0.293   1.726  13.055  1.0163  0.3704 -0.2142
 8681TIP3    H247535   0.270   1.796  12.923 -0.3769 -0.0580 -0.2133
 8682TIP3   OH247536   5.191   3.326  16.999 -0.6809  0.3280 -0.9176
 8682TIP3    H147537   5.228   3.326  16.911  0.4659  0.9588 -0.4615
 8682TIP3    H247538   5.246   3.387  17.048 -1.3578  0.0637  0.2138
 8683TIP3   OH247539   5.080   1.095  13.238  0.7009  0.1473  0.0471
 8683TIP3    H147540   5.005   1.154  13.252 -0.8328 -1.4160 -1.0774
 8683TIP3    H247541   5.109   1.073  13.327  1.0619  2.2111  0.4974
 8684TIP3   OH247542   3.466   4.868   1.054  0.2367  0.5709  0.4685
 8684TIP3    H147543   3.557   4.895   1.069  1.5476 -1.3526 -2.7946
 8684TIP3    H247544   3.448   4.804   1.123  2.4251 -1.0249 -0.3091
 8685TIP3   OH247545   2.999   0.263  16.700  0.0307  0.2268  0.0394
 8685TIP3    H147546   2.934   0.299  16.761 -0.3977 -0.8342  0.2281
 8685TIP3    H247547   2.948   0.239  16.622  0.5769  1.6003 -0.7760
 8686TIP3   OH247548   0.394   1.642  15.817  0.1268  0.3212 -0.5838
 8686TIP3    H147549   0.417   1.682  15.901 -0.3749  1.6783 -1.0744
 8686TIP3    H247550   0.455   1.681  15.754  0.5083 -0.6955 -0.8748
 8687TIP3   OH247551   2.668   3.444  12.938 -0.1190  0.5185  0.4277
 8687TIP3    H147552   2.623   3.485  12.864  0.2453 -1.0581 -0.7072
 8687TIP3    H247553   2.755   3.484  12.937  0.1634 -0.0928 -0.5306
 8688TIP3   OH247554   2.849   6.134   1.055 -0.3801  0.1148  0.3934
 8688TIP3    H147555   2.822   6.204   1.114 -2.3253 -0.6035  0.4043
 8688TIP3    H247556   2.892   6.070   1.113  2.1098  1.5378  0.2798
 8689TIP3   OH247557   3.436   2.751   3.062 -0.0313  0.3234 -0.0780
 8689TIP3    H147558   3.454   2.842   3.086  1.2319  0.2671 -0.7255
 8689TIP3    H247559   3.459   2.746   2.969  1.8412 -1.1252  0.4137
 8690TIP3   OH247560   0.014   2.761  12.245 -0.2877  0.3443 -0.4528
 8690TIP3    H147561  -0.053   2.693  12.245 -0.1805  0.2360 -0.1327
 8690TIP3    H247562   0.026   2.783  12.153  0.9633 -1.3235 -0.7288
 8691TIP3   OH247563   1.766   0.832  11.888 -0.8419  0.3110 -0.7451
 8691TIP3    H147564   1.709   0.889  11.941  0.1866  1.1798 -0.5455
 8691TIP3    H247565   1.706   0.792  11.825 -2.0246 -0.3588  0.7222
 8692TIP3   OH247566   5.102   5.396  10.633  0.2341  0.2179  0.0472
 8692TIP3    H147567   5.152   5.317  10.651 -0.5612 -0.5198 -0.8591
 8692TIP3    H247568   5.095   5.440  10.718 -1.1552 -1.7838  1.0614
 8693TIP3   OH247569   6.799   5.754  14.078 -0.3610 -0.5106 -0.4563
 8693TIP3    H147570   6.841   5.839  14.091 -1.4097  0.0292 -0.4692
 8693TIP3    H247571   6.863   5.691  14.110 -0.3276  0.4012  1.4439
 8694TIP3   OH247572   2.732   6.816   5.168 -0.7182  0.8164  0.0817
 8694TIP3    H147573   2.801   6.872   5.204  0.3062  0.0372 -0.6111
 8694TIP3    H247574   2.717   6.750   5.236  0.4843 -0.0443 -0.4532
 8695TIP3   OH247575   5.991   2.958   4.738 -0.3533 -0.6197  0.1703
 8695TIP3    H147576   5.931   3.012   4.789  0.0392 -0.1006  0.0952
 8695TIP3    H247577   6.042   2.910   4.804 -0.9049 -1.1297  0.2321
 8696TIP3   OH247578   5.794   1.683  11.228 -0.4359 -0.1278 -0.8258
 8696TIP3    H147579   5.708   1.693  11.186 -2.6031 -0.3646  3.0313
 8696TIP3    H247580   5.850   1.745  11.182 -3.3953  2.0900 -1.8115
 8697TIP3   OH247581   1.452   6.133   4.175  0.0680 -0.0647  0.2278
 8697TIP3    H147582   1.537   6.152   4.136  0.2052 -0.5397  0.2894
 8697TIP3    H247583   1.420   6.218   4.205  1.1929 -0.0659  1.5528
 8698TIP3   OH247584   6.256   2.712  10.722 -0.4550  0.8978  0.1081
 8698TIP3    H147585   6.284   2.650  10.789 -0.6243  1.0668  0.3361
 8698TIP3    H247586   6.278   2.669  10.639 -0.2083  0.7069  0.2717
 8699TIP3   OH247587   4.657   1.059  12.715 -0.0379 -0.6597 -0.5877
 8699TIP3    H147588   4.688   1.088  12.801  0.9851 -0.0395 -1.1413
 8699TIP3    H247589   4.562   1.064  12.721  0.0361  0.1773  0.2514
 8700TIP3   OH247590   1.296   3.113   1.650  0.5347 -0.1491  0.4532
 8700TIP3    H147591   1.316   3.123   1.557 -0.0784 -0.9314  0.2204
 8700TIP3    H247592   1.275   3.020   1.660 -2.3149  0.4269  0.7582
 8701TIP3   OH247593   3.273   4.225  12.200 -0.0419  0.0064  0.1635
 8701TIP3    H147594   3.259   4.218  12.106 -0.0993 -3.1442  0.3238
 8701TIP3    H247595   3.354   4.276  12.209  0.0411  0.2297 -1.5607
 8702TIP3   OH247596   4.782   6.445  15.433  0.5676 -0.3785  0.6992
 8702TIP3    H147597   4.727   6.486  15.368  0.6055  1.1389  1.5779
 8702TIP3    H247598   4.733   6.453  15.515  1.4843 -0.2442  1.2475
 8703TIP3   OH247599   0.481   6.065   2.395  0.0731 -0.0499  0.4438
 8703TIP3    H147600   0.512   6.022   2.475  0.7388 -0.0479  0.1865
 8703TIP3    H247601   0.545   6.042   2.328 -0.7588 -0.4760 -0.2259
 8704TIP3   OH247602   2.685   1.451   1.109  0.2111  0.2062 -0.6986
 8704TIP3    H147603   2.708   1.393   1.182 -3.1142  1.3935  1.4951
 8704TIP3    H247604   2.674   1.392   1.034  3.7360 -1.0431 -0.4319
 8705TIP3   OH247605   6.375   4.401  15.131  0.0093 -0.0815 -0.0471
 8705TIP3    H147606   6.338   4.442  15.053 -0.4629  0.6026  0.5168
 8705TIP3    H247607   6.377   4.471  15.196 -2.1645 -1.2213  1.3951
 8706TIP3   OH247608   4.706   1.299   1.724  0.1117  0.0349 -0.4096
 8706TIP3    H147609   4.611   1.290   1.719  0.0151  1.1895 -0.9226
 8706TIP3    H247610   4.735   1.292   1.633  0.1667  2.9261 -0.7096
 8707TIP3   OH247611   6.454   5.394   2.776 -0.1001 -0.4138 -0.2006
 8707TIP3    H147612   6.433   5.328   2.841  0.3469 -0.5791 -0.2231
 8707TIP3    H247613   6.395   5.467   2.796 -0.5279 -0.7778 -0.1198
 8708TIP3   OH247614   2.717   6.286   0.585 -0.0884 -0.0932  0.4720
 8708TIP3    H147615   2.669   6.369   0.581 -1.3830 -0.7563  1.3178
 8708TIP3    H247616   2.721   6.266   0.678  0.5991 -0.7767  0.3012
 8709TIP3   OH247617   3.594   4.395   0.146 -0.0338 -0.5786 -0.7995
 8709TIP3    H147618   3.592   4.344   0.065  0.5133 -0.8604 -0.6405
 8709TIP3    H247619   3.578   4.331   0.215 -1.1856 -0.2292 -0.7241
 8710TIP3   OH247620   5.281   1.248   2.590 -0.0495 -0.0990 -0.2622
 8710TIP3    H147621   5.224   1.228   2.515  0.7524 -1.2485 -0.6051
 8710TIP3    H247622   5.235   1.316   2.638 -0.6553  0.5669 -1.7285
 8711TIP3   OH247623   6.477   1.224  14.539  0.3553  0.5371  0.1030
 8711TIP3    H147624   6.506   1.305  14.580  1.9032  0.8365 -1.4640
 8711TIP3    H247625   6.382   1.224  14.548  0.4656  1.6494  1.6457
 8712TIP3   OH247626   0.133   3.312   6.459 -0.1233  0.0607  0.3770
 8712TIP3    H147627   0.147   3.223   6.490 -0.1753 -0.5874 -1.3458
 8712TIP3    H247628   0.168   3.312   6.369 -0.1381  1.7627  0.3378
 8713TIP3   OH247629   0.954   2.950  13.064  0.0114  0.3312  0.3343
 8713TIP3    H147630   0.992   2.863  13.065  0.2599  0.4409  0.8861
 8713TIP3    H247631   0.961   2.979  12.973  0.6680  0.0999  0.3107
 8714TIP3   OH247632   2.361   3.373  11.929 -0.1014  0.0380 -0.0801
 8714TIP3    H147633   2.422   3.300  11.923  1.0295  0.9148  0.4732
 8714TIP3    H247634   2.286   3.345  11.876  0.9797 -0.8500 -1.2033
 8715TIP3   OH247635   3.464   0.097  14.715  0.4303 -0.0665  0.2253
 8715TIP3    H147636   3.482   0.140  14.798  1.4663 -2.2311  1.1783
 8715TIP3    H247637   3.550   0.072  14.681  0.0245  0.6485 -1.4732
 8716TIP3   OH247638   3.574   1.865  12.592 -0.3250 -0.4848 -0.4320
 8716TIP3    H147639   3.597   1.949  12.550  1.5775 -1.0799 -0.6702
 8716TIP3    H247640   3.591   1.880  12.685 -2.4545  0.1473 -0.0879
 8717TIP3   OH247641   2.898   4.758   6.708 -0.1108 -0.2488 -0.1723
 8717TIP3    H147642   2.819   4.731   6.755  0.0642 -0.6729 -0.1176
 8717TIP3    H247643   2.904   4.852   6.724  0.0463 -0.4166  0.8292
 8718TIP3   OH247644   2.619   6.383  15.073  0.2173 -0.3365  0.5625
 8718TIP3    H147645   2.667   6.322  15.129 -0.7851  0.6576  2.6168
 8718TIP3    H247646   2.687   6.442  15.039  0.6558  0.2907  2.4123
 8719TIP3   OH247647   0.553   6.169   5.193 -0.0338  0.2438 -0.1901
 8719TIP3    H147648   0.593   6.097   5.143  1.1604  0.7747 -0.0115
 8719TIP3    H247649   0.465   6.137   5.213  0.6048 -1.3354  0.2257
 8720TIP3   OH247650   5.502   3.348   2.974  0.0840  0.3558  0.0941
 8720TIP3    H147651   5.549   3.412   2.921 -0.1389  1.3222  1.0394
 8720TIP3    H247652   5.570   3.291   3.009  0.6511  1.8749  1.6320
 8721TIP3   OH247653   1.394   0.705  11.603 -0.1666 -0.3304  0.7525
 8721TIP3    H147654   1.414   0.706  11.510  1.4183 -0.0808  1.0623
 8721TIP3    H247655   1.303   0.678  11.608 -1.2277  2.5064 -1.0241
 8722TIP3   OH247656   3.441   0.143   4.172 -0.8520  0.0147 -0.0364
 8722TIP3    H147657   3.480   0.159   4.085  2.5459 -1.7322  0.9879
 8722TIP3    H247658   3.398   0.058   4.164 -1.9331  0.5724 -0.3657
 8723TIP3   OH247659   1.039   6.577   1.689 -1.0898  0.9375 -0.3900
 8723TIP3    H147660   0.960   6.572   1.743 -1.7978  3.0848 -1.0995
 8723TIP3    H247661   1.033   6.502   1.630 -1.0110 -0.6591  1.5348
 8724TIP3   OH247662   2.184   1.431  16.650 -0.0303 -0.2370 -0.2849
 8724TIP3    H147663   2.266   1.401  16.689  1.4447  1.5541 -1.7733
 8724TIP3    H247664   2.116   1.377  16.690  1.7017 -0.7567  2.1607
 8725TIP3   OH247665   6.551   4.817  12.259  0.4264 -0.0843  0.1936
 8725TIP3    H147666   6.596   4.899  12.241  0.1946  0.2316  1.0151
 8725TIP3    H247667   6.494   4.803  12.183  0.4184  0.5450  0.0840
 8726TIP3   OH247668   0.295   4.992   4.804  0.8442 -0.5501  0.0527
 8726TIP3    H147669   0.210   5.002   4.848  0.5721  2.1093 -0.8628
 8726TIP3    H247670   0.354   4.961   4.872 -0.4896 -0.7271  1.1689
 8727TIP3   OH247671   3.902   3.069   2.503  0.3328 -0.1819  0.4655
 8727TIP3    H147672   3.880   2.988   2.550  0.2410 -1.1022 -1.0729
 8727TIP3    H247673   3.863   3.057   2.417  1.5700  0.8767 -0.2755
 8728TIP3   OH247674   4.627   2.710   4.803 -0.2253 -0.1390  0.1643
 8728TIP3    H147675   4.533   2.724   4.791 -0.3811 -0.8732  0.4872
 8728TIP3    H247676   4.644   2.740   4.892 -0.4721 -1.4766  0.6890
 8729TIP3   OH247677   3.426   0.850   2.352 -0.2340 -0.2294  0.7940
 8729TIP3    H147678   3.501   0.824   2.298 -1.1039 -0.8369 -0.1546
 8729TIP3    H247679   3.370   0.772   2.354 -2.2228  1.0767 -0.9210
 8730TIP3   OH247680   2.755   2.689  16.330 -0.5016 -0.1217  0.5151
 8730TIP3    H147681   2.785   2.598  16.334 -1.8243 -0.5476  1.3130
 8730TIP3    H247682   2.731   2.702  16.238 -0.3593 -0.5882  0.4066
 8731TIP3   OH247683   2.728   6.673   2.838 -0.0278  0.0580  0.4683
 8731TIP3    H147684   2.754   6.610   2.770  3.1213 -0.0045  1.5468
 8731TIP3    H247685   2.728   6.621   2.918 -0.2761  0.8348  0.9701
 8732TIP3   OH247686   6.102   4.746  12.511  0.7666 -0.7405  0.5599
 8732TIP3    H147687   6.122   4.702  12.594  1.6463 -2.6106 -0.5893
 8732TIP3    H247688   6.179   4.730  12.456 -0.5649 -1.1306 -1.2523
 8733TIP3   OH247689   5.053   6.610  11.813  0.1206 -0.6741 -0.5758
 8733TIP3    H147690   5.085   6.669  11.745  3.4084  0.3338  1.5889
 8733TIP3    H247691   4.980   6.657  11.852 -0.4832 -0.3422 -2.0393
 8734TIP3   OH247692   1.118   5.316   3.897  0.1867 -0.0720 -0.6577
 8734TIP3    H147693   1.093   5.391   3.843  1.4979  0.0779 -1.0834
 8734TIP3    H247694   1.036   5.288   3.938 -0.1728  2.3087  0.4223
 8735TIP3   OH247695   2.546   1.570   4.303  0.7039  0.8481  0.4708
 8735TIP3    H147696   2.636   1.541   4.292  0.2832 -0.2558 -0.2725
 8735TIP3    H247697   2.498   1.490   4.325 -0.4642  0.9791 -1.3992
 8736TIP3   OH247698   5.160   1.547  15.237  0.4106  0.1750 -0.0526
 8736TIP3    H147699   5.165   1.608  15.163  1.1882  2.2090  1.6062
 8736TIP3    H247700   5.101   1.589  15.299 -0.5048 -1.6762  0.3978
 8737TIP3   OH247701   4.149   3.188   2.514 -0.0584 -0.4030 -0.3797
 8737TIP3    H147702   4.190   3.159   2.432 -0.3317  0.0576 -0.6835
 8737TIP3    H247703   4.058   3.160   2.506 -0.5868  1.3982 -1.1317
 8738TIP3   OH247704   2.272   6.278   3.830  0.4852  0.5581 -0.1369
 8738TIP3    H147705   2.307   6.319   3.751  3.0869  2.0236  1.6247
 8738TIP3    H247706   2.349   6.245   3.876 -1.0134 -0.8634  1.4780
 8739TIP3   OH247707   5.064   6.799   5.610 -0.2099 -0.1818 -0.0584
 8739TIP3    H147708   5.014   6.863   5.661  1.5333 -0.2811  1.8969
 8739TIP3    H247709   5.076   6.725   5.669  3.0166  0.2367 -0.0438
 8740TIP3   OH247710   6.231   2.585  11.925 -0.3056  0.2620 -0.0947
 8740TIP3    H147711   6.276   2.529  11.862  0.3435  1.1649 -0.4616
 8740TIP3    H247712   6.213   2.666  11.878 -0.9815  0.4751  0.5003
 8741TIP3   OH247713   1.744   6.173  16.592  0.4592  0.1197 -0.1569
 8741TIP3    H147714   1.741   6.078  16.596  1.8404  0.1049  1.5302
 8741TIP3    H247715   1.754   6.193  16.499 -4.2049 -1.1284 -1.2310
 8742TIP3   OH247716   0.876   4.634  13.305  0.3650 -0.1643  0.1662
 8742TIP3    H147717   0.883   4.639  13.400  0.8063  1.8031  0.0652
 8742TIP3    H247718   0.964   4.610  13.275 -0.2685 -3.0417  0.3024
 8743TIP3   OH247719   2.176   3.907  12.615 -0.1826 -0.5708  0.1318
 8743TIP3    H147720   2.169   4.000  12.592 -1.4718 -0.5864  0.3755
 8743TIP3    H247721   2.266   3.884  12.592  0.1605  0.7295  0.0472
 8744TIP3   OH247722   4.392   2.723   3.468 -0.0091  0.1453  0.3847
 8744TIP3    H147723   4.349   2.809   3.471  0.5277  0.5186 -1.3500
 8744TIP3    H247724   4.323   2.661   3.491 -0.2057  1.0538  2.5292
 8745TIP3   OH247725   3.654   0.899   5.854  0.2481 -0.1586  0.4550
 8745TIP3    H147726   3.685   0.879   5.942 -0.0756 -1.8889  0.2168
 8745TIP3    H247727   3.724   0.951   5.814  0.5750  0.2883  1.5740
 8746TIP3   OH247728   1.166   6.266   3.777  0.3655  0.1836  0.0820
 8746TIP3    H147729   1.198   6.329   3.713  1.6859 -2.4807 -2.1395
 8746TIP3    H247730   1.217   6.284   3.856  2.5089  0.4250 -1.2681
 8747TIP3   OH247731   2.113   1.883  13.306  0.4864 -0.2722 -0.1164
 8747TIP3    H147732   2.109   1.939  13.228  0.8461  0.0718  0.1072
 8747TIP3    H247733   2.122   1.944  13.379 -0.5311 -0.5620  0.2595
 8748TIP3   OH247734   2.646   4.332  13.648  0.1283 -0.1265  0.4329
 8748TIP3    H147735   2.560   4.326  13.607  0.6204  0.6509 -0.7408
 8748TIP3    H247736   2.660   4.425  13.662 -0.7989 -0.3934  4.1181
 8749TIP3   OH247737   6.034   4.569  11.684 -0.4821 -0.4809  0.6548
 8749TIP3    H147738   6.091   4.502  11.720 -1.0730 -1.8832 -0.9039
 8749TIP3    H247739   5.982   4.599  11.759  2.1425  0.7968  2.1103
 8750TIP3   OH247740   2.545   6.288   1.621 -0.5381  0.4529  0.1302
 8750TIP3    H147741   2.609   6.358   1.634  0.2804 -0.1976 -0.2839
 8750TIP3    H247742   2.581   6.213   1.667 -0.0209 -0.4703 -1.6616
 8751TIP3   OH247743   4.319   0.857   4.365  0.4050 -0.6259  0.6532
 8751TIP3    H147744   4.301   0.856   4.271  1.8831  0.1389  0.3386
 8751TIP3    H247745   4.233   0.848   4.405 -0.2861 -0.7068 -0.7718
 8752TIP3   OH247746   3.624   6.429   1.644  0.1055 -0.4622 -0.5372
 8752TIP3    H147747   3.653   6.352   1.596  1.0713 -0.4059 -0.0776
 8752TIP3    H247748   3.688   6.497   1.621 -0.4515  0.0628 -0.5607
 8753TIP3   OH247749   4.168   4.200  13.628  0.5084  0.0537 -0.8502
 8753TIP3    H147750   4.130   4.284  13.602  1.3469  0.8055  0.2157
 8753TIP3    H247751   4.242   4.224  13.684  0.5368 -1.4087 -0.2050
 8754TIP3   OH247752   3.769   3.116  15.928 -0.4306  0.5006 -0.0020
 8754TIP3    H147753   3.837   3.148  15.987 -0.6423  1.3130 -0.1903
 8754TIP3    H247754   3.804   3.035  15.892 -0.1462  0.1770  0.9685
 8755TIP3   OH247755   6.017   1.141  12.014  0.0676  0.1449  0.2095
 8755TIP3    H147756   5.963   1.066  11.991  0.2501  0.2725 -0.6635
 8755TIP3    H247757   6.053   1.172  11.930  0.1682  1.0669  0.5755
 8756TIP3   OH247758   0.536   6.224  14.152  0.4747  0.8620 -0.6294
 8756TIP3    H147759   0.631   6.214  14.160  0.4633  0.4232 -0.9569
 8756TIP3    H247760   0.504   6.134  14.144  0.0223  1.0044 -0.4162
 8757TIP3   OH247761   1.644   5.083   3.478 -0.0205  0.4956 -0.4438
 8757TIP3    H147762   1.732   5.096   3.514  0.0730 -0.5082 -0.2837
 8757TIP3    H247763   1.625   5.165   3.432  0.7978  0.9115 -0.0700
 8758TIP3   OH247764   4.816   6.796  11.753  0.2526 -0.2175  0.5495
 8758TIP3    H147765   4.767   6.722  11.787  1.1500 -0.8734  0.4562
 8758TIP3    H247766   4.887   6.756  11.701 -0.6751  0.7135 -1.5760
 8759TIP3   OH247767   1.172   6.153  14.605 -0.0747 -0.0573 -0.6369
 8759TIP3    H147768   1.145   6.079  14.551 -2.2821 -0.8552  1.3479
 8759TIP3    H247769   1.090   6.199  14.624  0.5684  0.2144  1.8749
 8760TIP3   OH247770   2.153   6.475   0.690 -0.1889  0.1100 -0.1220
 8760TIP3    H147771   2.184   6.539   0.755  1.3961 -1.6313  0.9170
 8760TIP3    H247772   2.225   6.467   0.628 -0.4875 -0.4754 -0.4037
 8761TIP3   OH247773   5.486   5.100   0.158 -0.2702  0.5742 -0.2758
 8761TIP3    H147774   5.471   5.007   0.141 -1.3272  0.9985 -1.8820
 8761TIP3    H247775   5.398   5.137   0.169  0.0422  1.6598 -1.2967
 8762TIP3   OH247776   2.281   1.232  16.878  0.0857  0.0492  0.0614
 8762TIP3    H147777   2.229   1.154  16.858 -0.2401  0.1271  0.6071
 8762TIP3    H247778   2.249   1.261  16.963  1.6438 -0.4160  0.8359
 8763TIP3   OH247779   2.465   6.198  16.518  0.0991  0.6645  0.4245
 8763TIP3    H147780   2.529   6.182  16.448  0.5160 -1.8580  1.2626
 8763TIP3    H247781   2.514   6.183  16.599 -1.5163 -1.6554  1.0872
 8764TIP3   OH247782   5.021   1.978   3.503  0.1790 -0.3320 -0.1858
 8764TIP3    H147783   4.948   1.920   3.482 -0.5251  0.0100  1.2057
 8764TIP3    H247784   5.046   1.955   3.593  1.6281 -0.2665 -0.5417
 8765TIP3   OH247785   3.538   4.932  11.515  0.3003 -0.1005 -0.0683
 8765TIP3    H147786   3.501   4.924  11.603  0.0751  1.0122 -0.0411
 8765TIP3    H247787   3.542   4.842  11.483  2.1879 -0.7474  1.7773
 8766TIP3   OH247788   0.788   5.461   2.544  0.1559  0.2171  0.1059
 8766TIP3    H147789   0.726   5.534   2.551 -0.9631 -0.8523  2.0670
 8766TIP3    H247790   0.735   5.387   2.516  0.8019 -0.4080  0.4890
 8767TIP3   OH247791   2.412   0.408  15.416  0.0102 -0.0120 -0.0317
 8767TIP3    H147792   2.451   0.434  15.332 -1.2841 -0.2208 -0.7189
 8767TIP3    H247793   2.369   0.325  15.398  1.1130 -0.8937  1.2761
 8768TIP3   OH247794   5.653   4.461   1.306 -0.0513  0.1815  0.2204
 8768TIP3    H147795   5.718   4.434   1.372 -0.9478 -1.4773  0.4938
 8768TIP3    H247796   5.660   4.395   1.237 -1.0184  0.3194 -0.0318
 8769TIP3   OH247797   6.612   0.630   1.493  0.2703  0.0042 -0.2151
 8769TIP3    H147798   6.573   0.661   1.574 -0.3392 -0.0688 -0.4765
 8769TIP3    H247799   6.687   0.687   1.478  0.2703  0.1375  0.2986
 8770TIP3   OH247800   6.461   4.327   3.386  0.8826 -0.2962  0.0571
 8770TIP3    H147801   6.503   4.413   3.376 -0.3314  0.2224 -0.7447
 8770TIP3    H247802   6.374   4.338   3.348  1.0111 -2.1296 -0.8787
 8771TIP3   OH247803   6.514   3.932  11.126 -0.2024 -0.6095 -0.9027
 8771TIP3    H147804   6.425   3.896  11.117  0.2957 -2.0204 -0.4470
 8771TIP3    H247805   6.500   4.021  11.158 -1.4431 -1.4937  1.2865
 8772TIP3   OH247806   3.051   1.591   0.663 -0.7040 -0.4695  0.1690
 8772TIP3    H147807   3.093   1.509   0.686 -1.0125 -0.3986  1.0304
 8772TIP3    H247808   2.997   1.613   0.739 -1.1715  0.1709 -0.3292
 8773TIP3   OH247809   0.871   4.162  13.732  0.1413  0.0128  0.6909
 8773TIP3    H147810   0.957   4.201  13.749  0.1232  0.3069  0.1171
 8773TIP3    H247811   0.871   4.082  13.785  0.3402  0.5703  1.5407
 8774TIP3   OH247812   1.065   1.565  15.306 -0.0434  0.4048 -0.1082
 8774TIP3    H147813   1.095   1.634  15.247  1.0893  0.9744  1.0802
 8774TIP3    H247814   1.144   1.513  15.324 -0.1217  0.8253  1.6349
 8775TIP3   OH247815   6.326   1.745  13.318 -0.2016 -0.1259 -0.6974
 8775TIP3    H147816   6.269   1.775  13.248 -0.7065  0.8773  0.1105
 8775TIP3    H247817   6.321   1.650  13.315 -1.3164 -0.0674 -1.1296
 8776TIP3   OH247818   0.882   0.704  10.567 -0.0534 -1.1167 -0.2856
 8776TIP3    H147819   0.898   0.630  10.626 -1.9013 -1.4960 -0.1803
 8776TIP3    H247820   0.860   0.662  10.483  3.2377 -0.5841 -1.5326
 8777TIP3   OH247821   5.973   1.046  11.726 -0.2849 -0.1407  0.4270
 8777TIP3    H147822   6.039   0.977  11.724 -0.4463 -0.2834 -0.7911
 8777TIP3    H247823   5.890   1.000  11.718 -0.5066  0.0989  1.1851
 8778TIP3   OH247824   4.708   2.966   6.541  0.3861 -0.0101  0.1086
 8778TIP3    H147825   4.763   2.957   6.463  0.6835  0.9621  0.1981
 8778TIP3    H247826   4.768   2.991   6.611 -0.0673  0.4259  0.3545
 8779TIP3   OH247827   1.437   0.259   2.106 -0.4631 -0.0150  0.1536
 8779TIP3    H147828   1.349   0.223   2.114  0.0584 -1.3600  0.2364
 8779TIP3    H247829   1.441   0.294   2.017 -0.1351 -2.8183 -1.0443
 8780TIP3   OH247830   1.483   5.778  12.198  0.0661 -0.2124 -0.1588
 8780TIP3    H147831   1.428   5.802  12.123  0.4602  0.1448 -0.3396
 8780TIP3    H247832   1.508   5.687  12.181 -1.7233 -0.9083  0.7026
 8781TIP3   OH247833   1.546   5.618  13.387  0.1682  0.0269  0.5055
 8781TIP3    H147834   1.624   5.568  13.363  0.9292  1.8411 -1.0612
 8781TIP3    H247835   1.474   5.571  13.346  1.0283  0.8946 -2.2561
 8782TIP3   OH247836   6.262   2.852  12.621 -0.2535 -0.8524  0.4067
 8782TIP3    H147837   6.243   2.941  12.593  2.5051 -0.6903 -1.3120
 8782TIP3    H247838   6.260   2.856  12.717  0.7530  1.3297  0.3989
 8783TIP3   OH247839   4.787   1.513  13.716  0.3124 -0.3076  0.3374
 8783TIP3    H147840   4.807   1.592  13.766  0.4678 -1.6638  2.5787
 8783TIP3    H247841   4.706   1.534  13.670  0.5913  1.2934  0.5021
 8784TIP3   OH247842   0.717   3.549  14.290 -0.0418 -0.4538 -0.4576
 8784TIP3    H147843   0.745   3.576  14.377  0.0787  1.3065 -0.9971
 8784TIP3    H247844   0.793   3.566  14.234 -0.4351 -0.6286 -1.0584
 8785TIP3   OH247845   4.566   6.069   3.960  0.6772 -0.5651 -0.1885
 8785TIP3    H147846   4.529   6.116   4.035  0.1778 -0.9624 -0.1774
 8785TIP3    H247847   4.575   5.979   3.991  2.1586 -0.3788 -0.0256
 8786TIP3   OH247848   6.498   6.260  17.007  0.6506  0.8797 -0.1588
 8786TIP3    H147849   6.593   6.270  17.006  0.9311 -1.2154 -0.4228
 8786TIP3    H247850   6.480   6.196  16.938 -0.8190  0.4099  0.6182
 8787TIP3   OH247851   2.141   5.957   2.553 -0.1573  0.4480 -0.0530
 8787TIP3    H147852   2.161   5.867   2.526 -1.9050  0.0484 -0.1262
 8787TIP3    H247853   2.168   6.011   2.480 -0.0817 -0.1220 -0.4526
 8788TIP3   OH247854   0.796   4.988  12.082 -0.1219  0.2161 -0.0778
 8788TIP3    H147855   0.860   4.997  12.011 -1.0972 -1.8956 -1.2928
 8788TIP3    H247856   0.848   4.957  12.156  0.5536  0.2914 -0.5101
 8789TIP3   OH247857   0.542   1.310  16.731  0.0957 -0.1542  0.5695
 8789TIP3    H147858   0.498   1.339  16.811 -1.9403 -1.1464 -0.1111
 8789TIP3    H247859   0.577   1.224  16.753 -2.6456 -1.5862 -0.2075
 8790TIP3   OH247860   4.536   6.415   4.741 -0.7930 -0.0352 -0.3126
 8790TIP3    H147861   4.462   6.371   4.699 -0.1724  1.1342 -2.8682
 8790TIP3    H247862   4.500   6.499   4.771 -0.4927  0.7360 -1.9721
 8791TIP3   OH247863   4.129   0.612   5.546 -0.3631  0.4754 -0.1539
 8791TIP3    H147864   4.039   0.620   5.577 -0.2492  0.1822  0.2533
 8791TIP3    H247865   4.176   0.683   5.590 -0.1098 -0.2052  0.6960
 8792TIP3   OH247866   6.800   3.865  14.456  0.2062 -0.1781 -0.7152
 8792TIP3    H147867   6.797   3.857  14.361 -2.0386 -0.4190 -0.6768
 8792TIP3    H247868   6.800   3.775  14.488  0.6125 -0.0974 -0.4790
 8793TIP3   OH247869   5.616   4.930  12.642 -0.4121  0.0971 -0.1861
 8793TIP3    H147870   5.571   5.005  12.680 -0.7834  0.5065 -1.3902
 8793TIP3    H247871   5.709   4.950  12.652 -0.2266 -1.7527  4.3605
 8794TIP3   OH247872   6.604   1.550  12.123  0.2703 -0.2892  0.2390
 8794TIP3    H147873   6.663   1.622  12.145  0.1640 -0.2070  0.2555
 8794TIP3    H247874   6.650   1.502  12.054  0.9409 -0.9874  1.1534
 8795TIP3   OH247875   0.610   5.146   1.302 -0.1982  0.1350  0.1115
 8795TIP3    H147876   0.677   5.112   1.362 -0.0232  0.7443  0.2711
 8795TIP3    H247877   0.623   5.095   1.222 -0.2933 -0.5388  0.5124
 8796TIP3   OH247878   6.423   2.245   4.070  0.2701 -0.2759 -0.0877
 8796TIP3    H147879   6.358   2.315   4.075 -3.1002 -2.9537 -1.9380
 8796TIP3    H247880   6.494   2.282   4.017 -1.4686  1.6540 -1.2108
 8797TIP3   OH247881   2.531   4.301   2.574 -0.1466  0.3415 -0.2932
 8797TIP3    H147882   2.530   4.302   2.478  0.4271  2.1320 -0.3119
 8797TIP3    H247883   2.597   4.365   2.598 -0.5507  0.1899  1.3167
 8798TIP3   OH247884   1.297   0.939  17.033 -0.1332  0.1460  0.1651
 8798TIP3    H147885   1.362   1.003  17.005  2.2144 -1.5780  1.3033
 8798TIP3    H247886   1.339   0.854  17.020 -3.2156 -1.2875 -1.5663
 8799TIP3   OH247887   1.431   5.780  15.865  0.5848  0.1596  0.5378
 8799TIP3    H147888   1.378   5.726  15.923  1.3145 -1.8134 -0.5296
 8799TIP3    H247889   1.457   5.721  15.794  0.5160  2.2116 -1.3143
 8800TIP3   OH247890   2.785   1.940   0.011  0.5511  0.0713 -0.2870
 8800TIP3    H147891   2.741   1.889   0.079 -0.1267 -0.1406 -0.8695
 8800TIP3    H247892   2.757   2.030   0.025 -0.9099 -0.1940 -1.2552
 8801TIP3   OH247893   4.852   0.684  15.477 -0.0058 -0.0087 -0.7721
 8801TIP3    H147894   4.806   0.670  15.395  0.5285 -1.8056 -0.8280
 8801TIP3    H247895   4.945   0.674  15.454  0.2875  1.4166 -0.2836
 8802TIP3   OH247896   0.344   6.774   4.253  0.3699  0.0504 -0.6239
 8802TIP3    H147897   0.347   6.683   4.283 -0.1783 -0.3493 -1.6960
 8802TIP3    H247898   0.432   6.793   4.222  0.4789 -0.1172 -0.4177
 8803TIP3   OH247899   2.954   2.169  14.788 -0.6203 -0.2675  0.1030
 8803TIP3    H147900   2.962   2.258  14.757  0.9669 -0.7273 -0.9237
 8803TIP3    H247901   2.868   2.140  14.757 -1.1526  0.8710  0.4512
 8804TIP3   OH247902   1.116   0.009   1.157 -0.0340  0.9576  0.3719
 8804TIP3    H147903   1.186   0.016   1.222  1.2011  2.0612 -1.0032
 8804TIP3    H247904   1.109   0.097   1.120  1.1421 -0.1521 -2.8153
 8805TIP3   OH247905   5.797   3.571   2.436 -0.0118  0.4982  0.1037
 8805TIP3    H147906   5.721   3.576   2.379 -1.5325 -0.7563  1.9099
 8805TIP3    H247907   5.868   3.613   2.386 -1.7447  1.2925 -1.8015
 8806TIP3   OH247908   0.400   2.318   2.065  0.2208  0.5816  0.3216
 8806TIP3    H147909   0.350   2.373   2.005  1.0648 -1.7365 -2.7971
 8806TIP3    H247910   0.492   2.333   2.041  0.6443  0.2020  1.6290
 8807TIP3   OH247911   5.410   2.689  16.280  0.5857 -0.4762  0.0839
 8807TIP3    H147912   5.433   2.781  16.268  2.5063 -1.0314 -0.8402
 8807TIP3    H247913   5.470   2.641  16.223 -0.3303 -2.3187  0.5869
 8808TIP3   OH247914   4.612   6.771   5.482 -0.0429 -0.1705  0.5106
 8808TIP3    H147915   4.707   6.758   5.472 -0.1393 -0.2525 -0.3349
 8808TIP3    H247916   4.576   6.758   5.395 -0.8613 -0.2893  0.8552
 8809TIP3   OH247917   6.762   1.143   2.703 -0.1777 -0.6136 -0.4897
 8809TIP3    H147918   6.845   1.094   2.699  0.1170 -0.2996  1.1779
 8809TIP3    H247919   6.712   1.110   2.628  0.9370 -1.7576 -0.7806
 8810TIP3   OH247920   4.304   1.006   1.509  0.5869 -0.0494 -0.2016
 8810TIP3    H147921   4.355   0.996   1.429  0.1097  0.9582 -0.6407
 8810TIP3    H247922   4.262   1.091   1.501  0.5484  0.0754  1.1344
 8811TIP3   OH247923   6.190   0.335   0.717  0.3307 -0.3191  0.4406
 8811TIP3    H147924   6.249   0.283   0.772 -0.0869 -0.3281  0.8873
 8811TIP3    H247925   6.209   0.426   0.740  0.3175 -0.3149  0.4351
 8812TIP3   OH247926   5.793   5.242  12.365  0.1101 -0.0540  0.5905
 8812TIP3    H147927   5.807   5.256  12.458  0.0268 -0.9442  0.7481
 8812TIP3    H247928   5.774   5.148  12.357  0.2533 -0.0178 -0.3361
 8813TIP3   OH247929   4.882   1.675   2.675  0.2521 -0.1605 -0.0172
 8813TIP3    H147930   4.841   1.675   2.761 -2.2591 -1.3931 -1.1206
 8813TIP3    H247931   4.950   1.608   2.680 -0.7082 -1.0928  0.6425
 8814TIP3   OH247932   5.072   5.264  13.226 -0.0495 -0.2284 -0.2426
 8814TIP3    H147933   5.150   5.220  13.259  1.1312  2.4963  0.8929
 8814TIP3    H247934   5.100   5.304  13.143  0.1961  1.6968  0.7076
 8815TIP3   OH247935   2.897   3.940   2.058 -0.2883 -0.2767 -0.4383
 8815TIP3    H147936   2.961   3.970   1.993  1.2111 -2.1788  0.0773
 8815TIP3    H247937   2.837   3.885   2.008  0.6546 -1.4490 -0.3089
 8816TIP3   OH247938   2.679   4.851   4.026  0.0238  0.5148  0.2929
 8816TIP3    H147939   2.736   4.799   3.970  0.6007  2.0280 -0.5836
 8816TIP3    H247940   2.698   4.819   4.115  1.3282  0.1446 -0.0895
 8817TIP3   OH247941   2.328   5.736  14.590 -0.3969  0.2610  0.6231
 8817TIP3    H147942   2.332   5.643  14.571  2.6878  0.3316  0.3742
 8817TIP3    H247943   2.235   5.757  14.589 -1.0916 -2.3842 -1.3683
 8818TIP3   OH247944   5.462   3.518   4.086 -0.5207  0.6864 -0.0831
 8818TIP3    H147945   5.426   3.434   4.057  0.7441 -0.8039  2.3641
 8818TIP3    H247946   5.547   3.524   4.041  0.0106 -0.0589  0.7916
 8819TIP3   OH247947   2.039   3.182   1.012  0.4487  0.6099  0.7026
 8819TIP3    H147948   2.005   3.271   1.017  2.1645  1.3973 -0.4659
 8819TIP3    H247949   2.117   3.190   0.957 -0.5991 -2.0098 -1.3717
 8820TIP3   OH247950   5.323   5.436   0.567 -0.2306  0.2501  0.1569
 8820TIP3    H147951   5.301   5.443   0.660 -0.0050 -2.5291  0.4977
 8820TIP3    H247952   5.237   5.437   0.523 -0.4285  0.0166  0.5314
 8821TIP3   OH247953   1.356   2.234  11.797 -0.0179  0.1470  0.0603
 8821TIP3    H147954   1.367   2.320  11.756  1.7946  0.2821  0.7104
 8821TIP3    H247955   1.366   2.171  11.726 -1.9853  0.4403 -0.5361
 8822TIP3   OH247956   5.558   4.459   5.046 -0.2759 -0.4081 -0.5397
 8822TIP3    H147957   5.537   4.419   4.961  0.3639 -0.9200 -0.4648
 8822TIP3    H247958   5.632   4.409   5.078 -1.2199 -0.9657  0.8575
 8823TIP3   OH247959   1.851   5.774   5.997  0.0968  0.1234  0.2518
 8823TIP3    H147960   1.882   5.704   5.939  1.0007  0.8997 -0.2267
 8823TIP3    H247961   1.761   5.792   5.967 -0.3256 -1.1311  0.6874
 8824TIP3   OH247962   1.871   4.892   2.458 -0.0641 -0.0016  0.2248
 8824TIP3    H147963   1.839   4.843   2.533 -0.0065 -1.3581 -0.6001
 8824TIP3    H247964   1.937   4.951   2.494  0.6352 -1.2836  1.1172
 8825TIP3   OH247965   1.645   5.338  14.460 -0.2186 -0.0237  0.2534
 8825TIP3    H147966   1.648   5.243  14.447  0.0827 -0.0053  0.1905
 8825TIP3    H247967   1.597   5.349  14.541  0.7568 -0.2855  0.8860
 8826TIP3   OH247968   5.474   5.565   5.174  0.4451  0.1169  0.0118
 8826TIP3    H147969   5.441   5.610   5.097 -0.9857  0.3738  0.7516
 8826TIP3    H247970   5.441   5.475   5.166  0.6462  0.0310  0.1230
 8827TIP3   OH247971   1.926   0.026   4.123  0.0250  0.1047  0.3968
 8827TIP3    H147972   1.968   0.086   4.061  1.4867 -0.3553  0.8950
 8827TIP3    H247973   1.882  -0.038   4.067 -2.2542  2.0221 -0.1460
 8828TIP3   OH247974   6.286   2.306  11.035  0.3413  0.5285 -0.3546
 8828TIP3    H147975   6.290   2.211  11.023  0.2881  0.6317 -1.2665
 8828TIP3    H247976   6.211   2.319  11.093 -0.1056  0.0564 -0.8080
 8829TIP3   OH247977   5.950   3.260  16.171  0.5455 -0.7819  0.0362
 8829TIP3    H147978   5.989   3.286  16.255  1.4550 -0.8025 -0.3688
 8829TIP3    H247979   5.906   3.339  16.140  0.0408 -0.8280  0.6179
 8830TIP3   OH247980   6.717   1.310  16.349 -0.4563 -0.1052 -0.1103
 8830TIP3    H147981   6.643   1.253  16.372 -2.0039  1.6162 -0.6086
 8830TIP3    H247982   6.764   1.261  16.281 -2.0674 -0.5853 -0.9442
 8831TIP3   OH247983   1.037   4.964   3.006 -0.3931 -0.1327  0.2471
 8831TIP3    H147984   1.018   5.004   3.091 -0.5109 -0.1437  0.2257
 8831TIP3    H247985   1.109   4.903   3.024 -0.4766 -0.1990  0.3568
 8832TIP3   OH247986   4.690   6.455  12.781 -0.5596 -0.5973  0.4363
 8832TIP3    H147987   4.781   6.481  12.768 -0.7557  0.6955  1.4497
 8832TIP3    H247988   4.651   6.458  12.694 -0.1629  0.9865  0.2905
 8833TIP3   OH247989   4.303   5.817  12.574  0.1118  0.0018  0.8161
 8833TIP3    H147990   4.268   5.854  12.655  0.0572  2.8819 -0.4102
 8833TIP3    H247991   4.226   5.798  12.521  0.1986 -0.6052  0.8988
 8834TIP3   OH247992   4.916   6.697   0.461 -0.1209  0.6359  0.3621
 8834TIP3    H147993   4.843   6.636   0.470 -0.1028  0.6688  0.7232
 8834TIP3    H247994   4.916   6.748   0.542 -0.6500  1.6873 -0.2697
 8835TIP3   OH247995   2.909   5.396   1.890 -0.4797  0.3762 -0.0767
 8835TIP3    H147996   2.899   5.411   1.796 -1.1653 -1.4021 -0.3258
 8835TIP3    H247997   2.820   5.404   1.925 -0.2867  0.6353  0.3629
 8836TIP3   OH247998   4.152   4.352  14.867 -0.3560 -0.2632  0.2120
 8836TIP3    H147999   4.110   4.292  14.806  0.8860 -1.3433  0.3854
 8836TIP3    H248000   4.233   4.379  14.823 -0.2334  0.2136  0.7081
 8837TIP3   OH248001   4.186   0.814  11.176 -0.6181 -0.3009 -0.1827
 8837TIP3    H148002   4.096   0.792  11.200 -0.4825  0.7795  1.5181
 8837TIP3    H248003   4.186   0.910  11.171  0.2992 -0.3231 -0.7598
 8838TIP3   OH248004   3.441   4.967   2.219  0.4556 -0.3217  0.0711
 8838TIP3    H148005   3.537   4.972   2.226  0.3466  1.0646  0.9745
 8838TIP3    H248006   3.411   4.968   2.309 -0.4685  1.0568 -0.2271
 8839TIP3   OH248007   5.035   0.726  16.511  0.3757  0.0930  0.0287
 8839TIP3    H148008   4.961   0.678  16.548  0.8808 -1.3598 -0.7375
 8839TIP3    H248009   5.020   0.724  16.416  1.2181  0.0761 -0.1113
 8840TIP3   OH248010   2.759   1.387   0.610  0.5272 -0.3107 -0.1364
 8840TIP3    H148011   2.800   1.417   0.691  1.0017 -1.3718  0.0433
 8840TIP3    H248012   2.792   1.298   0.599  0.3674 -0.2290 -1.4312
 8841TIP3   OH248013   4.207   0.044   1.510 -0.0762 -0.8426 -0.5318
 8841TIP3    H148014   4.201   0.139   1.516  1.5722 -0.8288  1.7292
 8841TIP3    H248015   4.210   0.027   1.415  0.5591  1.3982 -0.9771
 8842TIP3   OH248016   6.817   2.420  11.773  0.1611 -0.4327 -0.6360
 8842TIP3    H148017   6.820   2.365  11.695 -0.6687 -1.4151 -0.0066
 8842TIP3    H248018   6.894   2.476  11.767  2.1894 -3.0142 -0.3408
 8843TIP3   OH248019   3.067   3.309  15.429  0.5842 -0.1741 -0.0712
 8843TIP3    H148020   3.118   3.293  15.349  0.7960 -0.3297  0.0939
 8843TIP3    H248021   3.096   3.241  15.490  0.2311 -0.2167  0.0507
 8844TIP3   OH248022   3.012   6.042  12.820  0.2673 -0.1146 -0.4643
 8844TIP3    H148023   3.049   5.955  12.837 -0.0889 -0.0363  0.8120
 8844TIP3    H248024   3.085   6.092  12.784  0.8031 -0.5988 -0.0710
 8845TIP3   OH248025   3.562   4.377   2.293 -0.3022  0.1179 -0.2234
 8845TIP3    H148026   3.553   4.437   2.220  0.4713 -0.3690 -0.7278
 8845TIP3    H248027   3.641   4.406   2.339 -1.7962  1.6381  1.6021
 8846TIP3   OH248028   0.324   1.383  15.738 -0.2878 -0.1245 -0.1726
 8846TIP3    H148029   0.382   1.458  15.747  0.2555 -0.4679 -0.7149
 8846TIP3    H248030   0.352   1.341  15.656  0.2849 -1.6263  0.7385
 8847TIP3   OH248031   2.143   5.583   5.234  0.0477 -0.3168  0.0648
 8847TIP3    H148032   2.189   5.631   5.165  0.1573 -0.7388 -0.1593
 8847TIP3    H248033   2.212   5.558   5.296 -0.2733  1.6719  1.3338
 8848TIP3   OH248034   1.349   2.557   4.282 -0.4276 -0.1789 -0.1601
 8848TIP3    H148035   1.433   2.561   4.328 -0.5934  2.2892  0.0734
 8848TIP3    H248036   1.328   2.464   4.277  1.6579 -0.7590  0.9870
 8849TIP3   OH248037   1.150   2.251  15.470 -0.5446 -0.2137  0.7918
 8849TIP3    H148038   1.151   2.226  15.378 -0.2152 -0.2953  0.8129
 8849TIP3    H248039   1.237   2.226  15.502 -1.3959 -2.1982  1.6706
 8850TIP3   OH248040   2.443   0.865   1.530  0.8106  0.5085 -0.2876
 8850TIP3    H148041   2.390   0.942   1.510  0.5622  0.3457 -0.2639
 8850TIP3    H248042   2.423   0.845   1.621 -2.6747 -2.2777 -1.4419
 8851TIP3   OH248043   6.535   3.719  13.715  0.3543 -0.8037  0.5710
 8851TIP3    H148044   6.534   3.678  13.628  0.9418  0.0044  0.1717
 8851TIP3    H248045   6.484   3.799  13.705  0.7943 -0.4816  0.8448
 8852TIP3   OH248046   3.638   4.863  16.239 -0.2380 -0.2740  0.2364
 8852TIP3    H148047   3.697   4.814  16.182 -0.8419 -0.9090  0.1396
 8852TIP3    H248048   3.685   4.944  16.259  0.3614 -0.4535 -0.4134
 8853TIP3   OH248049   0.350   1.975  13.298 -0.1031  0.6365 -0.0899
 8853TIP3    H148050   0.435   2.012  13.277  0.0092 -0.5479 -1.9312
 8853TIP3    H248051   0.349   1.890  13.254 -1.3091 -0.4540  1.9217
 8854TIP3   OH248052   5.783   4.450   0.637 -0.1561  0.0166 -0.1193
 8854TIP3    H148053   5.713   4.394   0.604 -0.5264  0.2246  0.3058
 8854TIP3    H248054   5.828   4.397   0.702  1.0401 -0.6614 -1.4587
 8855TIP3   OH248055   3.916   4.070  11.565 -0.3377  0.6957 -0.4159
 8855TIP3    H148056   3.973   4.078  11.642  0.9003  1.5272 -1.3741
 8855TIP3    H248057   3.866   4.152  11.565 -0.1696  0.7973 -0.6281
 8856TIP3   OH248058   0.641   3.091   1.743  0.0437 -0.3883 -0.5640
 8856TIP3    H148059   0.648   3.045   1.827  0.2714  0.8674  0.1266
 8856TIP3    H248060   0.725   3.075   1.700  2.1064  3.1819  1.7134
 8857TIP3   OH248061   1.710   1.136  15.459  0.3751  0.2048 -0.0780
 8857TIP3    H148062   1.744   1.048  15.443 -2.1692 -0.6856 -1.1579
 8857TIP3    H248063   1.747   1.189  15.388  1.8712  0.0463  0.5384
 8858TIP3   OH248064   4.721   3.531  17.169 -0.0678 -0.3584 -0.0128
 8858TIP3    H148065   4.683   3.486  17.093 -1.2868 -0.8325  0.8581
 8858TIP3    H248066   4.815   3.533  17.150 -0.3544 -0.3633 -1.5892
 8859TIP3   OH248067   5.080   4.050  15.622  0.1269  0.0937  0.6268
 8859TIP3    H148068   5.094   4.047  15.527 -1.2192 -0.3930  0.4208
 8859TIP3    H248069   5.167   4.035  15.659  0.7253  0.5566 -0.5184
 8860TIP3   OH248070   6.710   0.718   0.149 -0.0164 -0.7570 -0.3790
 8860TIP3    H148071   6.660   0.730   0.068  0.2773 -0.8622 -0.5810
 8860TIP3    H248072   6.699   0.800   0.197  1.4564  0.1109 -1.4550
 8861TIP3   OH248073   2.068   2.066   1.256  0.1756  0.1258 -0.4910
 8861TIP3    H148074   2.126   1.990   1.261 -0.2740 -0.6086 -3.9286
 8861TIP3    H248075   1.986   2.037   1.295 -0.2255 -1.5287 -2.3894
 8862TIP3   OH248076   2.548   3.125  15.609  0.0031 -0.0067  0.3832
 8862TIP3    H148077   2.511   3.181  15.541 -0.4598 -0.9976 -0.2077
 8862TIP3    H248078   2.576   3.046  15.562  0.9318 -0.1490  1.1474
 8863TIP3   OH248079   0.892   3.368   5.791  0.0968 -0.6924  0.3144
 8863TIP3    H148080   0.918   3.456   5.763  2.1356 -1.4208 -0.2358
 8863TIP3    H248081   0.893   3.316   5.710 -1.3206 -1.2088  0.5919
 8864TIP3   OH248082   3.057   4.962   0.175 -0.3312  0.7826  0.3164
 8864TIP3    H148083   3.079   4.967   0.082  1.1097 -0.2300  0.5554
 8864TIP3    H248084   3.112   5.028   0.217  1.7757 -1.1543  0.8165
 8865TIP3   OH248085   1.217   2.709  14.166  0.3745 -0.2391 -0.6607
 8865TIP3    H148086   1.160   2.642  14.129  0.4084 -0.5857 -0.0949
 8865TIP3    H248087   1.302   2.693  14.125 -0.3154  1.5099 -3.0514
 8866TIP3   OH248088   4.222   0.334   5.561 -0.4486 -0.5461 -0.0967
 8866TIP3    H148089   4.137   0.295   5.541 -0.0287 -2.1101  0.9916
 8866TIP3    H248090   4.203   0.401   5.626 -1.1191  0.8656 -1.6584
 8867TIP3   OH248091   1.779   5.938  15.095  0.1378  0.2818  0.1545
 8867TIP3    H148092   1.836   5.898  15.029  1.9434  0.0553  1.7548
 8867TIP3    H248093   1.827   5.928  15.177 -2.6607 -0.8470  1.8159
 8868TIP3   OH248094   4.601   1.222   2.102  0.3895 -0.3817 -0.2998
 8868TIP3    H148095   4.594   1.261   2.189  1.7317 -0.0992 -0.2912
 8868TIP3    H248096   4.643   1.289   2.048 -1.9839  0.1117 -1.6604
 8869TIP3   OH248097   3.973   1.250  15.521  0.1389 -0.0476  0.1520
 8869TIP3    H148098   3.987   1.162  15.557 -0.4937  0.7020  2.4014
 8869TIP3    H248099   3.891   1.243  15.471  1.2920 -1.2355 -1.6778
 8870TIP3   OH248100   2.755   6.217  15.236  0.2449 -0.0581 -0.2711
 8870TIP3    H148101   2.826   6.159  15.262 -0.0220  0.0835  0.8217
 8870TIP3    H248102   2.676   6.178  15.274 -0.4718 -0.8818 -2.4759
 8871TIP3   OH248103   1.724   3.064   5.999  0.4937 -0.2646  0.3968
 8871TIP3    H148104   1.671   3.117   5.939  0.9971 -0.1700  0.0244
 8871TIP3    H248105   1.675   2.983   6.009 -0.6470  0.5173  1.5289
 8872TIP3   OH248106   0.458   3.907  15.477  1.2860  0.4185  0.0862
 8872TIP3    H148107   0.406   3.965  15.533 -2.0333 -0.3220 -1.9509
 8872TIP3    H248108   0.534   3.960  15.452  0.6161  2.2921  1.7091
 8873TIP3   OH248109   6.534   4.258  17.244 -0.2587  0.0665 -0.3232
 8873TIP3    H148110   6.605   4.322  17.247 -0.9076  0.7556  1.5329
 8873TIP3    H248111   6.575   4.175  17.265 -0.1199  0.6141  1.6849
 8874TIP3   OH248112   1.809   6.750  12.891 -0.2559  0.0902 -0.1490
 8874TIP3    H148113   1.816   6.713  12.803 -1.4639 -1.5238  0.4003
 8874TIP3    H248114   1.850   6.685  12.948 -0.0449  0.8313  0.5655
 8875TIP3   OH248115   3.112   2.920   4.146 -0.2738 -0.2853 -0.3754
 8875TIP3    H148116   3.101   2.865   4.069  0.6149  0.6394 -1.1893
 8875TIP3    H248117   3.175   2.987   4.119 -0.7449  0.6790  0.8213
 8876TIP3   OH248118   4.443   2.280   4.399  0.0198 -0.0551 -0.2388
 8876TIP3    H148119   4.513   2.280   4.334 -0.5506  0.4373 -0.8741
 8876TIP3    H248120   4.379   2.216   4.365  1.2937 -2.4950  1.6396
 8877TIP3   OH248121   3.039   0.280   0.891  0.6056  0.0148  0.0166
 8877TIP3    H148122   2.964   0.277   0.951 -0.3920 -0.1819 -1.2112
 8877TIP3    H248123   3.113   0.304   0.947 -0.0728 -1.2309  1.5417
 8878TIP3   OH248124   1.706   5.373  16.664 -0.1070  0.6585 -0.4759
 8878TIP3    H148125   1.699   5.397  16.572  1.3808 -1.8237 -1.3159
 8878TIP3    H248126   1.617   5.348  16.690 -0.1188 -1.0464 -2.0130
 8879TIP3   OH248127   4.267   4.225  14.151 -0.1749  0.0528  0.7977
 8879TIP3    H148128   4.318   4.165  14.096 -0.4242 -0.7747  1.4448
 8879TIP3    H248129   4.177   4.194  14.142 -0.2419  0.0141  1.5264
 8880TIP3   OH248130   6.069   5.036   2.798  0.1737 -0.1157  0.0202
 8880TIP3    H148131   6.069   5.087   2.717  1.4405  0.3953  0.3230
 8880TIP3    H248132   6.031   4.951   2.773 -1.7899  0.8633 -0.5286
 8881TIP3   OH248133   5.348   5.498  12.314  0.2852  0.8845 -0.1730
 8881TIP3    H148134   5.321   5.491  12.405 -0.2262 -2.6313 -0.4690
 8881TIP3    H248135   5.442   5.483  12.315  0.2430  0.6190 -0.2565
 8882TIP3   OH248136   2.516   0.255   2.243  0.5024 -0.0473 -0.4774
 8882TIP3    H148137   2.433   0.246   2.290  0.5690  1.7256  0.0534
 8882TIP3    H248138   2.583   0.238   2.309  0.5694  1.0071 -0.2462
 8883TIP3   OH248139   4.581   0.181  13.228 -0.1055 -0.6729  0.5127
 8883TIP3    H148140   4.612   0.099  13.189  1.4640 -0.2477  0.7710
 8883TIP3    H248141   4.602   0.247  13.162 -1.0799 -0.4379  0.4340
 8884TIP3   OH248142   0.740   2.013   4.407 -0.1875 -0.1105  0.3694
 8884TIP3    H148143   0.800   1.966   4.349 -1.0915  0.3830 -1.0421
 8884TIP3    H248144   0.735   1.960   4.486  0.7905 -1.0301 -0.1690
 8885TIP3   OH248145   1.843   2.562   3.064  0.2638  0.2451 -0.1151
 8885TIP3    H148146   1.892   2.642   3.049 -0.7283  0.9187  0.1409
 8885TIP3    H248147   1.764   2.590   3.110 -1.6345 -0.4121 -2.7508
 8886TIP3   OH248148   3.442   2.824   6.632 -0.7291 -0.1266 -0.2982
 8886TIP3    H148149   3.496   2.745   6.628 -1.1582 -0.4275 -0.2829
 8886TIP3    H248150   3.478   2.874   6.705 -1.6074 -1.1863  0.9200
 8887TIP3   OH248151   2.298   1.965  12.113  0.4964  0.3620  0.1832
 8887TIP3    H148152   2.271   2.050  12.079  0.7790  0.7200  0.8263
 8887TIP3    H248153   2.221   1.910  12.104  0.4013  0.6028 -0.5151
 8888TIP3   OH248154   3.255   5.417   4.124  0.4319  0.7157  0.3528
 8888TIP3    H148155   3.165   5.444   4.105  0.7031  1.3383 -0.1076
 8888TIP3    H248156   3.272   5.448   4.213 -0.3181 -0.7805  1.0316
 8889TIP3   OH248157   6.335   6.161  15.945 -0.1156  0.2076  0.4854
 8889TIP3    H148158   6.273   6.227  15.914  1.0649  1.9716  1.7052
 8889TIP3    H248159   6.310   6.144  16.035  0.3233 -0.1039  0.5537
 8890TIP3   OH248160   5.447   2.689  13.581  0.0038 -0.3584 -0.2460
 8890TIP3    H148161   5.430   2.755  13.513 -1.3111 -0.0044  0.3967
 8890TIP3    H248162   5.447   2.606  13.535  1.4072  0.0312 -1.0276
 8891TIP3   OH248163   0.766   0.227  13.893  0.2683 -0.1782  0.3335
 8891TIP3    H148164   0.684   0.215  13.846  0.0423 -1.2022  0.9697
 8891TIP3    H248165   0.817   0.286  13.837 -0.7545  0.2003 -0.2334
 8892TIP3   OH248166   4.504   0.765  15.698  0.0710  0.1019  0.2357
 8892TIP3    H148167   4.555   0.748  15.777  0.2477 -3.0045 -0.3933
 8892TIP3    H248168   4.414   0.777  15.728  0.1153 -1.1787  0.9624
 8893TIP3   OH248169   2.759   0.853   1.701  0.0294  0.0638 -0.3200
 8893TIP3    H148170   2.689   0.917   1.687  0.1017  0.4721  0.9801
 8893TIP3    H248171   2.714   0.772   1.722 -0.1036  0.4512  1.0384
 8894TIP3   OH248172   4.418   4.710  13.793 -0.2509 -0.0107  0.5763
 8894TIP3    H148173   4.416   4.773  13.866 -1.1023  0.3825  0.2240
 8894TIP3    H248174   4.495   4.655  13.811  0.9149  1.5303  0.5691
 8895TIP3   OH248175   4.931   4.907  15.836  0.5156 -0.1117 -0.0622
 8895TIP3    H148176   4.911   4.813  15.834  0.8776 -0.1933  0.0872
 8895TIP3    H248177   5.002   4.917  15.772  0.4889  0.0593 -0.0636
 8896TIP3   OH248178   4.803   2.479   0.246  0.1309 -0.0291 -0.3295
 8896TIP3    H148179   4.722   2.463   0.197 -0.2899 -0.1298  0.3813
 8896TIP3    H248180   4.851   2.397   0.240  0.7711  0.4013 -1.7851
 8897TIP3   OH248181   2.254   1.399   5.818 -0.4878  0.6817 -0.2939
 8897TIP3    H148182   2.348   1.400   5.838 -1.1748  0.8438  3.5834
 8897TIP3    H248183   2.230   1.306   5.821 -0.6734  0.7370 -0.0717
 8898TIP3   OH248184   4.735   0.729   0.233  0.2713 -0.1602  0.4317
 8898TIP3    H148185   4.782   0.652   0.202 -0.1193 -0.3053  0.1886
 8898TIP3    H248186   4.661   0.693   0.282 -0.2678  0.0473 -0.2105
 8899TIP3   OH248187   5.053   2.108   2.993  0.0250 -0.1866  0.2512
 8899TIP3    H148188   5.143   2.132   2.969 -0.8133  0.0333 -3.1926
 8899TIP3    H248189   5.054   2.013   2.996  0.8569 -0.1763  2.8332
 8900TIP3   OH248190   1.737   1.736  15.084 -0.2708  0.7150  0.1575
 8900TIP3    H148191   1.798   1.666  15.107 -0.4537  0.1617 -0.9872
 8900TIP3    H248192   1.793   1.809  15.058 -0.0875  0.4769 -0.1225
 8901TIP3   OH248193   1.501   0.349   0.311 -0.3247  1.1802 -0.1815
 8901TIP3    H148194   1.536   0.370   0.224 -0.2088 -0.8126 -0.6665
 8901TIP3    H248195   1.437   0.280   0.295  0.7446 -0.2520  1.4360
 8902TIP3   OH248196   5.235   2.890  11.715  0.2860 -0.1148  0.3255
 8902TIP3    H148197   5.330   2.880  11.711  0.1602 -2.6903  1.2004
 8902TIP3    H248198   5.204   2.856  11.632  0.1007 -0.5732  0.5757
 8903TIP3   OH248199   5.539   1.951   5.314  0.4446 -0.4512 -0.3968
 8903TIP3    H148200   5.555   2.045   5.325  0.6984 -0.5919  0.4675
 8903TIP3    H248201   5.480   1.928   5.385  0.4905 -0.9735 -0.5278
 8904TIP3   OH248202   3.534   3.618  14.093 -0.2716  0.1144  0.8448
 8904TIP3    H148203   3.615   3.638  14.046  0.3604 -1.9612  0.9508
 8904TIP3    H248204   3.498   3.542  14.046 -2.0721  0.8704  0.9229
 8905TIP3   OH248205   5.766   1.560   1.968  0.1534  0.4099 -0.7231
 8905TIP3    H148206   5.728   1.486   2.015 -0.3874  1.6182  0.8137
 8905TIP3    H248207   5.849   1.578   2.013 -0.2909  1.4770 -0.2987
 8906TIP3   OH248208   1.580   0.301  13.989  0.4075  0.2663 -0.0134
 8906TIP3    H148209   1.569   0.207  13.976  0.9231  0.1769  0.1964
 8906TIP3    H248210   1.499   0.339  13.954 -0.0594 -0.2917  0.4318
 8907TIP3   OH248211   2.527   5.693  11.359 -0.3514 -0.6991  0.1134
 8907TIP3    H148212   2.512   5.659  11.447 -1.3147 -0.8246 -0.0983
 8907TIP3    H248213   2.440   5.704  11.322  0.0120  0.2318 -0.4972
 8908TIP3   OH248214   2.475   3.834   0.410 -0.2104 -0.1988 -0.1470
 8908TIP3    H148215   2.450   3.743   0.393  1.6243 -0.9471  0.9169
 8908TIP3    H248216   2.473   3.842   0.505  2.1204  0.0626 -0.0587
 8909TIP3   OH248217   4.446   3.205   0.209  0.3759  0.2846 -0.2771
 8909TIP3    H148218   4.468   3.184   0.118  0.6057 -0.0064 -0.1574
 8909TIP3    H248219   4.456   3.122   0.255  2.7705  0.9092  0.4928
 8910TIP3   OH248220   2.863   4.232  17.091 -0.5123  0.0180  0.0686
 8910TIP3    H148221   2.913   4.305  17.055 -0.5558 -0.4479 -0.9558
 8910TIP3    H248222   2.838   4.261  17.179 -0.5748  1.2458 -0.3409
 8911TIP3   OH248223   2.476   6.072   2.550  0.2846  0.0274  0.4572
 8911TIP3    H148224   2.472   5.979   2.575  0.6199  0.1648  1.0468
 8911TIP3    H248225   2.397   6.086   2.498 -0.2751 -0.3602  1.1830
 8912TIP3   OH248226   5.247   2.035   1.403 -0.6386  0.2622 -0.0908
 8912TIP3    H148227   5.216   1.992   1.323 -1.3330 -0.4703  0.5587
 8912TIP3    H248228   5.284   2.118   1.372 -0.5568 -0.1732 -1.2098
 8913TIP3   OH248229   5.616   3.531  15.614 -0.4348  0.0366  0.5346
 8913TIP3    H148230   5.600   3.500  15.525 -0.2706  0.6032  0.3057
 8913TIP3    H248231   5.566   3.471  15.670 -0.6409 -0.2420  0.0541
 8914TIP3   OH248232   0.785   2.662   6.386  0.0187  0.6063 -0.7152
 8914TIP3    H148233   0.838   2.719   6.442  0.0361 -0.2732  0.1979
 8914TIP3    H248234   0.795   2.575   6.425 -1.8491  0.3727 -0.6881
 8915TIP3   OH248235   5.518   5.500   3.424 -0.0862  0.0099  0.6914
 8915TIP3    H148236   5.603   5.531   3.454  0.1815  0.1712 -0.2028
 8915TIP3    H248237   5.489   5.439   3.492  2.1599 -2.4823 -0.4303
 8916TIP3   OH248238   5.505   3.160   3.557 -0.4748 -0.2869 -0.3272
 8916TIP3    H148239   5.508   3.167   3.462  1.0742  1.9859 -0.2187
 8916TIP3    H248240   5.591   3.192   3.585 -0.6010 -1.6449  1.8294
 8917TIP3   OH248241   3.076   4.871   4.298 -0.3836 -0.1673  0.3981
 8917TIP3    H148242   3.048   4.950   4.344 -0.9016 -0.4131  0.5110
 8917TIP3    H248243   3.157   4.845   4.341 -0.0579  0.4682  0.1704
 8918TIP3   OH248244   5.108   1.094  14.713  0.0319  0.1346 -0.0768
 8918TIP3    H148245   5.092   1.044  14.632  0.6349 -0.1002 -0.0569
 8918TIP3    H248246   5.192   1.137  14.698  0.8289 -0.9937  0.9490
 8919TIP3   OH248247   6.683   0.520   6.338  0.0200 -0.1596  0.5411
 8919TIP3    H148248   6.721   0.606   6.315  1.8962 -1.0356  0.1402
 8919TIP3    H248249   6.606   0.513   6.282 -0.3386  1.3683  0.7814
 8920TIP3   OH248250   0.451   3.793   1.622 -0.3404 -0.2212 -0.6027
 8920TIP3    H148251   0.435   3.859   1.689  1.3595 -0.9519  0.5904
 8920TIP3    H248252   0.441   3.840   1.539  0.4963  1.4642  0.1985
 8921TIP3   OH248253   1.172   0.207   4.382 -0.0124 -0.0292 -0.3604
 8921TIP3    H148254   1.114   0.228   4.455 -0.2149 -2.3217  0.2148
 8921TIP3    H248255   1.115   0.204   4.305 -0.8716 -2.8228  0.2889
 8922TIP3   OH248256   2.831   2.151  16.745 -0.4861  0.0440 -0.0224
 8922TIP3    H148257   2.743   2.155  16.705 -0.4828 -0.7831 -0.1337
 8922TIP3    H248258   2.845   2.057  16.761 -0.2434  0.3030  1.4076
 8923TIP3   OH248259   1.808   1.804  16.656  0.4953  0.0741 -0.1486
 8923TIP3    H148260   1.713   1.795  16.671  0.6451  0.1446  0.9022
 8923TIP3    H248261   1.818   1.894  16.624  0.0874 -0.2998 -1.3800
 8924TIP3   OH248262   2.719   0.485   1.745  0.6932  0.5433 -0.4771
 8924TIP3    H148263   2.656   0.551   1.774  0.1722  0.3694 -1.2053
 8924TIP3    H248264   2.715   0.417   1.813  0.4709  0.7637 -0.2674
 8925TIP3   OH248265   4.667   1.539   4.090 -0.3387 -0.1341  0.3799
 8925TIP3    H148266   4.617   1.599   4.036  0.1101  2.0471  2.2267
 8925TIP3    H248267   4.626   1.453   4.076 -0.7263  0.4613 -2.6735
 8926TIP3   OH248268   3.153   6.380   6.428  0.4267 -0.4043 -0.2537
 8926TIP3    H148269   3.232   6.426   6.457  0.1145 -0.5348  0.8332
 8926TIP3    H248270   3.085   6.407   6.489 -0.6674  0.5745 -1.8526
 8927TIP3   OH248271   2.245   5.567  11.438 -0.0377 -0.2192 -0.0458
 8927TIP3    H148272   2.162   5.541  11.398 -0.2838 -1.5234  1.2053
 8927TIP3    H248273   2.242   5.662  11.440 -0.6940 -0.1841 -1.6692
 8928TIP3   OH248274   3.905   1.322  13.863 -0.5795  0.4935 -0.2195
 8928TIP3    H148275   3.891   1.284  13.950 -0.2545 -1.4505 -0.9538
 8928TIP3    H248276   3.927   1.247  13.807 -1.0784  1.6381 -2.0594
 8929TIP3   OH248277   2.391   1.020  12.394  0.2504 -0.0770 -0.2603
 8929TIP3    H148278   2.344   0.980  12.467  1.3425  1.5006  1.3986
 8929TIP3    H248279   2.475   0.974  12.392  0.5523  0.4445  0.0655
 8930TIP3   OH248280   1.319   4.437  14.864 -0.0389  0.4286  0.9250
 8930TIP3    H148281   1.237   4.483  14.847  0.4089  0.5900 -1.0462
 8930TIP3    H248282   1.364   4.492  14.928  0.3158  2.6421 -1.0712
 8931TIP3   OH248283   4.399   3.184  14.266 -0.1044 -0.3009 -0.3424
 8931TIP3    H148284   4.313   3.143  14.255  0.8412 -2.1279 -1.3112
 8931TIP3    H248285   4.425   3.208  14.177  0.5322 -0.0483 -0.0913
 8932TIP3   OH248286   3.365   0.085  16.954  0.6173 -0.0997 -0.2432
 8932TIP3    H148287   3.278   0.109  16.986  1.1196  0.0665  1.0263
 8932TIP3    H248288   3.369   0.124  16.866 -0.1319  0.9258  0.1560
 8933TIP3   OH248289   2.392   4.428  16.578  0.4189 -0.4392 -0.3954
 8933TIP3    H148290   2.332   4.424  16.503  0.5921  0.8527 -0.6254
 8933TIP3    H248291   2.453   4.498  16.556 -1.0248  1.7415  2.0051
 8934TIP3   OH248292   1.810   1.929   3.150 -0.0956 -0.0759  0.9046
 8934TIP3    H148293   1.820   1.885   3.234 -0.0203  0.0820  0.9799
 8934TIP3    H248294   1.884   1.897   3.098 -0.6248 -0.8281  0.6045
 8935TIP3   OH248295   1.319   1.677  11.708  0.0417 -0.2400 -0.2081
 8935TIP3    H148296   1.320   1.615  11.636  0.4841 -0.2507 -0.1963
 8935TIP3    H248297   1.362   1.755  11.673  0.2070 -0.2262  0.0216
 8936TIP3   OH248298   6.335   5.315   1.273  0.0985 -0.0308 -0.2244
 8936TIP3    H148299   6.426   5.307   1.302  0.3306  2.6907 -0.0235
 8936TIP3    H248300   6.338   5.289   1.181  1.4445  1.5930 -0.6928
 8937TIP3   OH248301   5.280   3.644   2.222 -0.0601  0.6231 -0.1121
 8937TIP3    H148302   5.194   3.652   2.262 -0.2046  2.2096 -0.6250
 8937TIP3    H248303   5.267   3.585   2.148 -0.3813 -0.2337  0.6182
 8938TIP3   OH248304   2.406   6.282   6.198  0.3001 -0.2511 -0.5180
 8938TIP3    H148305   2.481   6.225   6.213  0.4205 -0.1492 -0.7273
 8938TIP3    H248306   2.378   6.309   6.286  1.7749  1.3514 -0.4971
 8939TIP3   OH248307   0.111   1.113   3.994 -0.0051  0.2893 -0.4061
 8939TIP3    H148308   0.169   1.108   4.070 -1.3855  1.4083  0.7909
 8939TIP3    H248309   0.157   1.171   3.933  1.2160 -0.7876 -0.5611
 8940TIP3   OH248310   4.973   3.327   5.881 -0.6984 -0.0244 -0.4448
 8940TIP3    H148311   4.901   3.317   5.944  0.6538 -0.2607  1.1149
 8940TIP3    H248312   5.003   3.238   5.865 -0.9403  0.0491 -1.3468
 8941TIP3   OH248313   6.600   4.014  12.463  0.1048  0.3368 -0.1291
 8941TIP3    H148314   6.659   4.058  12.402 -0.1032  0.3048 -0.3561
 8941TIP3    H248315   6.651   4.005  12.543  1.2157 -1.6804 -0.9891
 8942TIP3   OH248316   0.183   0.209  12.084 -0.2047 -0.4075 -0.2332
 8942TIP3    H148317   0.150   0.284  12.035  0.0740  0.7182  1.2172
 8942TIP3    H248318   0.104   0.164  12.115 -0.4273  0.6724  0.8640
 8943TIP3   OH248319   2.324   3.515  12.994 -1.1284  0.3663 -0.5156
 8943TIP3    H148320   2.358   3.452  12.930  1.7710  1.2260  0.0207
 8943TIP3    H248321   2.284   3.584  12.941 -2.7907 -1.0138 -1.1632
 8944TIP3   OH248322   4.513   6.760  14.367  0.3422 -0.1395  0.1709
 8944TIP3    H148323   4.445   6.825  14.351  1.3771  0.7204 -0.9321
 8944TIP3    H248324   4.469   6.676  14.353  0.1052  0.4321 -3.4715
 8945TIP3   OH248325   0.650   1.419  15.721  0.6201 -0.2597  0.6492
 8945TIP3    H148326   0.696   1.482  15.776  0.9044 -0.2987  0.4614
 8945TIP3    H248327   0.648   1.339  15.773 -0.4495  0.1107  1.2212
 8946TIP3   OH248328   5.446   4.366   6.154 -0.1662  0.0271  0.0801
 8946TIP3    H148329   5.361   4.339   6.189  0.7225 -1.1003  1.5094
 8946TIP3    H248330   5.449   4.460   6.167 -0.8221 -0.0581  0.9108
 8947TIP3   OH248331   4.255   0.746  13.719 -0.3885 -0.1508  0.5366
 8947TIP3    H148332   4.241   0.807  13.646  0.8366  1.9745  1.9944
 8947TIP3    H248333   4.176   0.753  13.772 -0.6558 -0.5940  0.2066
 8948TIP3   OH248334   5.544   4.282  16.962  0.5521 -0.1384  0.5954
 8948TIP3    H148335   5.629   4.254  16.927  0.2714  1.2455 -1.3481
 8948TIP3    H248336   5.543   4.248  17.051  3.2323 -0.0494  0.7510
 8949TIP3   OH248337   1.226   5.247  14.941 -0.0637 -0.1616  0.1006
 8949TIP3    H148338   1.149   5.283  14.897 -0.5090 -1.1672  0.0366
 8949TIP3    H248339   1.196   5.164  14.978  0.8543 -0.3117  0.5304
 8950TIP3   OH248340   0.718   2.693   2.108 -0.2118 -0.0125 -0.0746
 8950TIP3    H148341   0.663   2.718   2.182 -0.7486 -1.8438  0.1901
 8950TIP3    H248342   0.798   2.660   2.148 -0.2245 -0.3546 -0.3303
 8951TIP3   OH248343   1.680   3.338  17.140  0.1325 -0.2121 -0.3544
 8951TIP3    H148344   1.701   3.345  17.047 -0.9093  0.3818 -0.5718
 8951TIP3    H248345   1.763   3.319  17.182  0.9841  1.3587 -1.2084
 8952TIP3   OH248346   3.242   5.836  13.156 -0.2980  0.8424  0.1918
 8952TIP3    H148347   3.203   5.910  13.109  0.3770  1.7423  1.0183
 8952TIP3    H248348   3.322   5.870  13.194  0.7192 -0.6759 -0.4809
 8953TIP3   OH248349   2.867   6.250  13.035  0.2118 -0.1716 -0.1070
 8953TIP3    H148350   2.802   6.181  13.030 -0.4345  0.3242  1.0353
 8953TIP3    H248351   2.830   6.314  13.096  0.9393  1.0199 -0.8645
 8954TIP3   OH248352   0.047   3.096  11.923 -0.3059 -0.7940 -0.2100
 8954TIP3    H148353   0.119   3.081  11.984  1.4216  0.8041 -1.7222
 8954TIP3    H248354   0.015   3.009  11.901 -0.1581 -1.4472  1.9698
 8955TIP3   OH248355   5.418   3.822  11.443 -0.2333  0.5026  0.0118
 8955TIP3    H148356   5.480   3.782  11.382 -1.2632 -0.5416 -0.3618
 8955TIP3    H248357   5.403   3.756  11.510 -1.7781  0.3158 -0.4832
 8956TIP3   OH248358   1.877   0.216  10.492 -0.2843  0.1601 -0.3323
 8956TIP3    H148359   1.908   0.154  10.558 -0.8632  0.6049  0.3660
 8956TIP3    H248360   1.928   0.295  10.506 -0.4497  0.2763 -0.3847
 8957TIP3   OH248361   3.274   2.348  12.500 -0.0980 -0.8848 -0.2218
 8957TIP3    H148362   3.257   2.258  12.527 -2.2971  0.0209  1.7415
 8957TIP3    H248363   3.195   2.396  12.525  0.7744  1.5080 -1.7207
 8958TIP3   OH248364   6.160   2.782  16.871  0.4210  0.6693 -0.3831
 8958TIP3    H148365   6.245   2.738  16.877 -0.0915 -0.3085 -0.0369
 8958TIP3    H248366   6.110   2.729  16.809 -0.2629  0.6785  0.1492
 8959TIP3   OH248367   4.270   3.178  12.875 -0.0989  0.4514  0.1820
 8959TIP3    H148368   4.270   3.153  12.783 -1.1356 -0.6230  0.4535
 8959TIP3    H248369   4.329   3.115  12.917 -0.5979  0.1586  0.4445
 8960TIP3   OH248370   0.438   4.707   5.804 -0.5933  0.4621  0.3883
 8960TIP3    H148371   0.482   4.777   5.852 -0.3011 -0.3064  1.2723
 8960TIP3    H248372   0.366   4.751   5.758 -0.5999  1.2962  1.1736
 8961TIP3   OH248373   3.603   2.774  17.119 -0.4974  0.1694  0.2054
 8961TIP3    H148374   3.661   2.734  17.184  0.9967 -2.5931 -2.5606
 8961TIP3    H248375   3.528   2.714  17.113 -0.2428 -0.0447 -1.1173
 8962TIP3   OH248376   3.004   3.585  15.297 -0.4178 -0.1066  0.1395
 8962TIP3    H148377   2.963   3.666  15.326 -0.6064 -0.6092  1.3201
 8962TIP3    H248378   2.994   3.525  15.371  2.3071 -0.3023  0.4320
 8963TIP3   OH248379   2.306   1.792   5.734 -0.6011 -0.0829 -0.1480
 8963TIP3    H148380   2.295   1.745   5.651 -0.2403 -0.1525 -0.1572
 8963TIP3    H248381   2.365   1.737   5.785 -1.1349 -0.2342  0.3130
 8964TIP3   OH248382   5.829   4.330   5.853  0.1821 -0.2554  0.0380
 8964TIP3    H148383   5.745   4.297   5.886 -0.8723  0.7179 -1.5446
 8964TIP3    H248384   5.820   4.426   5.856  0.8467 -0.1395 -1.0879
 8965TIP3   OH248385   5.725   5.776  15.875 -0.3207 -0.1314  0.4365
 8965TIP3    H148386   5.632   5.766  15.856  0.0967 -2.1675 -0.8435
 8965TIP3    H248387   5.763   5.810  15.793  0.1476  0.1766  0.7747
 8966TIP3   OH248388   5.185   0.996  16.342 -0.6446  0.5453  0.0542
 8966TIP3    H148389   5.154   1.084  16.322 -0.8760  0.4806  0.1292
 8966TIP3    H248390   5.171   0.946  16.261 -1.2560  0.3739  0.2571
 8967TIP3   OH248391   3.537   6.098  17.040  0.0049 -0.3426  0.0328
 8967TIP3    H148392   3.629   6.118  17.051 -0.1530  0.9733 -0.7536
 8967TIP3    H248393   3.503   6.170  16.987 -1.8065  0.0440  1.5817
 8968TIP3   OH248394   3.341   5.615  14.398  0.0400  0.4002 -0.0719
 8968TIP3    H148395   3.330   5.574  14.312 -1.6531 -0.5395  0.5582
 8968TIP3    H248396   3.392   5.552  14.449 -0.3250  0.2371  0.0947
 8969TIP3   OH248397   0.336   5.632  15.338 -0.2376  0.3417 -0.6024
 8969TIP3    H148398   0.390   5.689  15.282  1.9955  1.7190  2.6702
 8969TIP3    H248399   0.297   5.692  15.401 -0.5921 -1.3942  0.8799
 8970TIP3   OH248400   0.058   3.716   3.455  0.0601  0.1896  0.7341
 8970TIP3    H148401  -0.001   3.777   3.500  0.7759 -0.2827  2.3787
 8970TIP3    H248402   0.042   3.632   3.497  0.3455 -0.3981 -0.3102
 8971TIP3   OH248403   6.561   1.006   4.818 -0.1322  0.3987 -0.4077
 8971TIP3    H148404   6.648   1.033   4.849  0.1599 -1.2721  0.3587
 8971TIP3    H248405   6.523   0.960   4.892 -1.9016  1.5057 -0.5829
 8972TIP3   OH248406   5.196   1.026   3.031  0.3897 -1.0025 -0.7566
 8972TIP3    H148407   5.141   0.949   3.015  0.7188 -1.0695 -1.6303
 8972TIP3    H248408   5.191   1.076   2.949 -1.3171  0.8797  0.3948
 8973TIP3   OH248409   1.672   5.521  16.435 -0.0272  0.5909  0.1905
 8973TIP3    H148410   1.609   5.593  16.449 -0.9521 -0.5093  1.9735
 8973TIP3    H248411   1.690   5.524  16.341 -0.8494  2.4835  0.0421
 8974TIP3   OH248412   0.851   1.626   1.006 -0.4186 -0.0040  0.7911
 8974TIP3    H148413   0.771   1.587   1.041  0.7201 -1.3252  2.0286
 8974TIP3    H248414   0.901   1.652   1.083  0.7416 -0.0219  0.0686
 8975TIP3   OH248415   0.335   4.824  14.465  0.2064 -0.5219 -0.1042
 8975TIP3    H148416   0.347   4.807  14.372  1.2351  0.0486 -0.0949
 8975TIP3    H248417   0.277   4.901  14.468 -0.9053 -1.3358 -0.2303
 8976TIP3   OH248418   2.146   4.702  14.678 -0.0743  0.1878 -0.0203
 8976TIP3    H148419   2.067   4.742  14.714 -1.6287 -3.0540  0.5883
 8976TIP3    H248420   2.147   4.731  14.587  0.2862  3.3420  0.8771
 8977TIP3   OH248421   1.236   2.755  13.237  0.0152  0.0844  0.7662
 8977TIP3    H148422   1.299   2.688  13.265  1.1783  0.8478  0.0610
 8977TIP3    H248423   1.290   2.826  13.202 -1.2593  0.3393 -0.8240
 8978TIP3   OH248424   0.107   6.818   6.470  0.0253 -0.5963 -0.2525
 8978TIP3    H148425   0.079   6.841   6.558 -0.5510 -0.0877 -0.5567
 8978TIP3    H248426   0.078   6.727   6.458 -0.6478 -0.3893 -0.2139
 8979TIP3   OH248427   3.460   3.045  12.972 -0.4852  0.2738  0.0452
 8979TIP3    H148428   3.493   3.048  13.061 -0.6005  0.4974  0.0800
 8979TIP3    H248429   3.504   2.969  12.933  1.2924  1.4590 -0.3938
 8980TIP3   OH248430   1.558   0.041  13.913  0.0292 -0.4231 -0.5048
 8980TIP3    H148431   1.521  -0.033  13.962  0.7744 -0.4954 -0.0446
 8980TIP3    H248432   1.649   0.017  13.898  0.1389  0.1741 -0.8081
 8981TIP3   OH248433   1.473   1.401  16.870  0.3944 -0.3799  0.3008
 8981TIP3    H148434   1.463   1.493  16.846 -0.9643 -0.8226 -0.9420
 8981TIP3    H248435   1.416   1.389  16.946 -0.2194 -0.4244 -0.1634
 8982TIP3   OH248436   6.705   1.985  16.654 -0.1329  0.3257  0.0309
 8982TIP3    H148437   6.759   1.921  16.607 -0.2533  0.8431 -0.8368
 8982TIP3    H248438   6.739   2.070  16.625  1.8885  0.7688  3.2401
 8983TIP3   OH248439   4.076   2.679   0.777  0.1595  0.4333  0.3384
 8983TIP3    H148440   3.993   2.633   0.763  0.4735 -0.1388  0.3312
 8983TIP3    H248441   4.092   2.672   0.871  1.0457 -0.9762  0.1293
 8984TIP3   OH248442   3.634   0.045  12.259  0.0703  0.3046 -0.0379
 8984TIP3    H148443   3.696  -0.027  12.254  0.7473  0.9254 -1.0084
 8984TIP3    H248444   3.591   0.035  12.344  0.6749 -0.8018  0.1477
 8985TIP3   OH248445   2.549   1.540  14.794 -0.1900 -0.1257  0.5114
 8985TIP3    H148446   2.471   1.525  14.740 -0.8077  0.1746  1.3119
 8985TIP3    H248447   2.515   1.550  14.883  0.7121  0.5949  0.7835
 8986TIP3   OH248448   6.698   1.260  12.324  0.1372 -0.4128 -0.3114
 8986TIP3    H148449   6.680   1.328  12.388  1.9103  0.0734 -0.2785
 8986TIP3    H248450   6.632   1.193  12.341  1.4424 -1.0294  3.0885
 8987TIP3   OH248451   2.354   3.048   4.915 -0.3580 -0.3315 -0.2659
 8987TIP3    H148452   2.417   3.076   4.981 -0.1285  2.1491 -1.4386
 8987TIP3    H248453   2.280   3.108   4.926 -0.9136 -0.8073 -1.3415
 8988TIP3   OH248454   4.953   0.811  13.718  0.3556 -0.0613 -0.0787
 8988TIP3    H148455   5.043   0.839  13.736  0.4856 -0.4296 -0.1474
 8988TIP3    H248456   4.962   0.726  13.676 -0.0756 -0.7441  1.1559
 8989TIP3   OH248457   4.078   3.038  13.473 -0.4076  0.5661  0.3254
 8989TIP3    H148458   4.100   3.076  13.388  0.3448 -0.6461 -0.0435
 8989TIP3    H248459   3.986   3.062  13.486 -1.1964 -0.9391 -1.8193
 8990TIP3   OH248460   2.706   2.992   0.643 -0.0098 -0.1918  0.2425
 8990TIP3    H148461   2.685   2.916   0.698  0.8481 -0.0604  0.7790
 8990TIP3    H248462   2.797   2.978   0.618 -0.1835  0.1126 -0.5777
 8991TIP3   OH248463   1.503   5.283  13.781 -0.9172  0.2098  0.8745
 8991TIP3    H148464   1.561   5.311  13.852  0.8723  2.1253 -1.1745
 8991TIP3    H248465   1.432   5.348  13.782 -0.2333  0.9877  0.1841
 8992TIP3   OH248466   3.979   6.196  13.237  0.4135 -0.0199 -0.1994
 8992TIP3    H148467   3.926   6.157  13.168  0.9378  0.3886 -0.8563
 8992TIP3    H248468   3.948   6.286  13.244  1.1201  0.2771 -0.7171
 8993TIP3   OH248469   2.261   2.545  14.164 -0.3635  0.7840  0.0783
 8993TIP3    H148470   2.308   2.504  14.092  0.4874  0.4052  0.8263
 8993TIP3    H248471   2.219   2.471  14.209 -2.6268  1.2075 -1.2007
 8994TIP3   OH248472   6.235   5.405   5.705 -0.4273  0.1121 -0.1245
 8994TIP3    H148473   6.164   5.387   5.644 -1.7310  1.8045  0.8125
 8994TIP3    H248474   6.260   5.496   5.687  1.3684 -0.3561 -0.2547
 8995TIP3   OH248475   3.237   2.067  11.636 -0.0821 -0.0442 -0.4012
 8995TIP3    H148476   3.239   2.161  11.655 -1.4374 -0.1290  0.2630
 8995TIP3    H248477   3.193   2.061  11.551 -0.0660 -0.0826 -0.4068
 8996TIP3   OH248478   4.104   2.062  16.767  0.5214  0.8216  0.2107
 8996TIP3    H148479   4.159   1.994  16.727 -1.5214  0.2924 -1.9144
 8996TIP3    H248480   4.086   2.030  16.855  2.1117  0.1648  0.3338
 8997TIP3   OH248481   1.333   0.019   4.588 -0.3247 -0.1800 -0.7001
 8997TIP3    H148482   1.279   0.040   4.512  0.0594 -0.8898 -1.1795
 8997TIP3    H248483   1.286  -0.053   4.630 -0.6403  0.3407 -0.1395
 8998TIP3   OH248484   0.179   0.767   0.522 -0.0838  0.2309 -0.3938
 8998TIP3    H148485   0.104   0.796   0.575 -1.3678  0.3097 -2.1462
 8998TIP3    H248486   0.190   0.675   0.544 -3.3666 -0.9625 -2.9108
 8999TIP3   OH248487   1.914   4.111  14.262  0.2893 -0.3485 -0.3810
 8999TIP3    H148488   1.944   4.155  14.342  0.6065  0.2613 -0.8297
 8999TIP3    H248489   1.994   4.082  14.218  0.2292  0.7385 -1.2677
 9000TIP3   OH248490   4.570   6.209  12.652  0.4097 -0.3945 -0.2349
 9000TIP3    H148491   4.510   6.258  12.708  1.8398  0.3374  0.6973
 9000TIP3    H248492   4.617   6.275  12.602  1.3590 -0.8611  0.0084
 9001TIP3   OH248493   1.831   4.857   5.657  0.0807 -0.3261  0.5340
 9001TIP3    H148494   1.759   4.898   5.706  0.0586 -1.1191  1.1744
 9001TIP3    H248495   1.790   4.782   5.614 -0.2320  1.1129 -1.8710
 9002TIP3   OH248496   1.642   4.737   6.641  0.4462  0.2275 -0.0715
 9002TIP3    H148497   1.569   4.714   6.584  0.9000 -0.8097 -0.2588
 9002TIP3    H248498   1.693   4.656   6.649  1.4650  0.8778  0.2185
 9003TIP3   OH248499   3.452   5.427   4.786 -0.4036 -0.1586 -0.3326
 9003TIP3    H148500   3.513   5.379   4.842 -1.3119 -1.4457 -0.4244
 9003TIP3    H248501   3.502   5.504   4.756  0.4198  0.0146  1.4051
 9004TIP3   OH248502   1.986   6.248   3.251 -0.1460 -0.6094 -0.4132
 9004TIP3    H148503   2.013   6.157   3.239  1.9496 -0.0332 -0.3689
 9004TIP3    H248504   2.038   6.279   3.325  1.2027  1.3815 -2.0931
 9005TIP3   OH248505   6.048   6.152  13.687 -0.5447 -0.2360 -0.0144
 9005TIP3    H148506   6.120   6.189  13.636 -1.3076  1.3077 -0.0186
 9005TIP3    H248507   6.054   6.196  13.772 -0.8964 -0.8223  0.3241
 9006TIP3   OH248508   0.920   0.032  11.431 -0.1735  0.6571  0.0095
 9006TIP3    H148509   0.993   0.004  11.376  0.3363  2.8997 -0.5698
 9006TIP3    H248510   0.843  -0.009  11.391  0.4524  0.4383 -1.0222
 9007TIP3   OH248511   2.894   3.457  16.475  0.1224  0.0140  0.0650
 9007TIP3    H148512   2.892   3.552  16.488  2.0073 -0.1334  1.8382
 9007TIP3    H248513   2.933   3.446  16.388 -3.7306  0.8336 -2.0033
 9008TIP3   OH248514   4.770   5.108   6.237 -0.6921 -0.5505  0.3569
 9008TIP3    H148515   4.724   5.189   6.261 -0.7907 -0.8491  1.2451
 9008TIP3    H248516   4.852   5.112   6.286 -0.3892 -0.6628 -0.1441
 9009TIP3   OH248517   6.486   0.777   4.971  0.2576 -0.4824 -0.1471
 9009TIP3    H148518   6.571   0.755   5.009 -0.1845  0.4287  1.4769
 9009TIP3    H248519   6.488   0.738   4.884  2.6506  0.1816 -0.4691
 9010TIP3   OH248520   2.320   5.823   6.409  0.1304  0.1427 -0.0574
 9010TIP3    H148521   2.414   5.843   6.404  0.5588 -1.6710  0.1040
 9010TIP3    H248522   2.317   5.729   6.423 -1.7282  0.2859  0.6259
 9011TIP3   OH248523   2.854   2.038  11.837  0.0527  0.0614 -0.4138
 9011TIP3    H148524   2.763   2.066  11.845  0.2900  0.6250  0.5356
 9011TIP3    H248525   2.903   2.119  11.822  0.4221 -0.2046 -0.6703
 9012TIP3   OH248526   2.475   6.621   1.992  0.1714 -0.0554 -0.2529
 9012TIP3    H148527   2.467   6.684   1.921 -0.2079 -1.5861 -1.6329
 9012TIP3    H248528   2.546   6.562   1.963  1.8170  0.7626  1.8443
 9013TIP3   OH248529   2.625   3.929  11.176 -0.6486  0.0626  0.3738
 9013TIP3    H148530   2.601   3.843  11.210 -1.4326 -0.3022 -1.0318
 9013TIP3    H248531   2.705   3.952  11.223 -1.6675 -0.3917  2.4364
 9014TIP3   OH248532   4.635   2.473  14.782 -0.5879  0.0362  0.0991
 9014TIP3    H148533   4.625   2.518  14.865  1.5506  0.5000  0.1821
 9014TIP3    H248534   4.690   2.397  14.802  1.2555  0.9673 -1.0529
 9015TIP3   OH248535   5.098   5.825   1.105 -0.4446  0.3393 -0.3329
 9015TIP3    H148536   5.185   5.864   1.110  0.0910 -0.8730  0.3355
 9015TIP3    H248537   5.092   5.793   1.014  0.4064 -0.8262 -0.0111
 9016TIP3   OH248538   4.427   3.117   3.001 -0.1920 -0.1637  0.2793
 9016TIP3    H148539   4.445   3.023   3.004  1.8397  0.1890  0.7461
 9016TIP3    H248540   4.491   3.152   2.940 -1.3169  0.8664 -0.3554
 9017TIP3   OH248541   2.634   2.248   2.164 -0.4548 -0.3532 -0.1144
 9017TIP3    H148542   2.722   2.224   2.134 -0.3477  0.2742 -0.3174
 9017TIP3    H248543   2.644   2.267   2.257 -0.5688 -1.2070  0.0844
 9018TIP3   OH248544   6.294   2.888   2.056  0.3755 -0.0986 -0.3866
 9018TIP3    H148545   6.385   2.887   2.028  0.6394 -0.7330  0.4452
 9018TIP3    H248546   6.297   2.861   2.148 -0.8426 -2.5123 -0.9719
 9019TIP3   OH248547   1.142   5.444   1.505 -0.3408 -0.0851 -0.2665
 9019TIP3    H148548   1.103   5.380   1.445 -0.9329 -0.5637  0.6076
 9019TIP3    H248549   1.235   5.447   1.479 -0.4025 -0.9404 -0.6246
 9020TIP3   OH248550   0.077   1.232   5.562  0.5200  0.1349 -0.9634
 9020TIP3    H148551   0.128   1.312   5.571  0.3040  0.4309 -2.1158
 9020TIP3    H248552  -0.014   1.263   5.556  0.1222 -0.3963  1.3117
 9021TIP3   OH248553   4.297   3.701  15.926  0.1879  0.4943 -0.4519
 9021TIP3    H148554   4.390   3.679  15.922  0.2045  0.5258 -0.2605
 9021TIP3    H248555   4.280   3.715  16.019 -0.8100 -3.0347  0.0671
 9022TIP3   OH248556   0.245   0.038   0.351 -0.2659  0.0866  0.1232
 9022TIP3    H148557   0.288   0.119   0.323 -0.9268  0.9480  1.4806
 9022TIP3    H248558   0.153   0.051   0.327  0.0840 -1.7830 -2.8707
 9023TIP3   OH248559   2.269   4.979   4.600  0.0411  1.1782 -0.8837
 9023TIP3    H148560   2.192   4.955   4.549 -0.3991 -0.1693  0.3576
 9023TIP3    H248561   2.316   4.897   4.614 -0.2186  1.3633  1.4357
 9024TIP3   OH248562   5.861   3.726   5.814  0.6081 -0.3960  0.9396
 9024TIP3    H148563   5.877   3.818   5.834  1.2535 -0.5197  0.9970
 9024TIP3    H248564   5.807   3.695   5.886 -1.0869  0.3685  0.0636
 9025TIP3   OH248565   2.650   5.332   6.070 -0.2484 -0.5778 -0.2585
 9025TIP3    H148566   2.731   5.348   6.119 -1.1312 -0.4973  1.2327
 9025TIP3    H248567   2.580   5.344   6.135 -1.5017  0.0006 -1.6634
 9026TIP3   OH248568   5.083   0.894  14.502  0.0528  0.7357 -0.0660
 9026TIP3    H148569   4.992   0.874  14.480  0.1899  0.3182 -0.2713
 9026TIP3    H248570   5.120   0.927  14.420  0.7336 -1.4102 -0.6943
 9027TIP3   OH248571   2.484   5.997   3.717  0.3783  0.3061  0.0731
 9027TIP3    H148572   2.467   6.090   3.734  1.7083  0.2129  2.2726
 9027TIP3    H248573   2.431   5.951   3.781 -0.2698 -0.4724 -1.0067
 9028TIP3   OH248574   1.520   5.837  13.853  0.6231 -0.2465  0.4090
 9028TIP3    H148575   1.520   5.921  13.807  1.5765  0.6626  2.0218
 9028TIP3    H248576   1.520   5.772  13.782  1.9002  1.0935 -0.8880
 9029TIP3   OH248577   0.250   1.989   4.370  0.4243  0.3533 -0.5114
 9029TIP3    H148578   0.271   2.026   4.285 -0.8658  0.5043 -0.7921
 9029TIP3    H248579   0.166   1.945   4.357  1.0550 -1.1750  0.2478
 9030TIP3   OH248580   5.819   2.989   1.689 -0.8505  0.2380 -0.2033
 9030TIP3    H148581   5.858   3.074   1.669  0.8244 -0.6787 -1.1324
 9030TIP3    H248582   5.738   2.986   1.639  0.0670  0.5419 -1.7786
 9031TIP3   OH248583   1.891   1.111   0.524  0.0058 -0.2200  0.3786
 9031TIP3    H148584   1.809   1.152   0.496  0.0353 -1.4176 -1.6472
 9031TIP3    H248585   1.945   1.184   0.553 -0.3347  1.1239 -2.0733
 9032TIP3   OH248586   0.678   4.946  12.405  0.4564  0.0719  0.5830
 9032TIP3    H148587   0.716   4.859  12.414  0.6057 -0.0088 -0.5754
 9032TIP3    H248588   0.586   4.934  12.427  0.1528 -0.7166 -0.9497
 9033TIP3   OH248589   0.802   5.073   1.471  0.0152 -0.5441 -0.0365
 9033TIP3    H148590   0.850   4.994   1.445 -0.0884 -0.6607  0.1263
 9033TIP3    H248591   0.826   5.086   1.563  1.5455  0.7040 -0.5753
 9034TIP3   OH248592   4.112   1.310   0.118  0.4691 -0.0147  0.5908
 9034TIP3    H148593   4.041   1.356   0.074 -0.7297 -2.1639  0.1729
 9034TIP3    H248594   4.190   1.331   0.067 -0.2996  0.3302 -0.4640
 9035TIP3   OH248595   1.013   0.665  12.958  0.0160  0.3183 -0.3269
 9035TIP3    H148596   1.028   0.589  13.015  0.8417  1.0950  0.5246
 9035TIP3    H248597   0.935   0.641  12.907  1.0927 -1.7127 -1.1456
 9036TIP3   OH248598   5.029   2.006  14.115 -0.0587  0.3821 -0.3382
 9036TIP3    H148599   4.973   2.013  14.192 -1.3444 -0.0276 -1.2100
 9036TIP3    H248600   5.072   2.092  14.109  0.0492  0.4266  0.7956
 9037TIP3   OH248601   6.768   3.439  11.654 -0.1456 -0.3440 -0.1274
 9037TIP3    H148602   6.813   3.515  11.691 -1.5743  1.0961 -1.2139
 9037TIP3    H248603   6.710   3.410  11.724  0.4525 -0.4776  0.3193
 9038TIP3   OH248604   1.864   3.430   2.100  0.0049  0.6395  0.1667
 9038TIP3    H148605   1.909   3.423   2.184 -0.0301  0.1945  0.1506
 9038TIP3    H248606   1.884   3.519   2.070  2.3878 -0.1221 -0.6941
 9039TIP3   OH248607   4.756   5.123   1.837 -0.0927 -0.2895  0.0987
 9039TIP3    H148608   4.694   5.076   1.781 -0.9388  1.4517 -0.5170
 9039TIP3    H248609   4.742   5.216   1.815  2.4153  0.2114  0.2643
 9040TIP3   OH248610   0.763   6.715   1.736  0.5317 -0.2850 -0.1074
 9040TIP3    H148611   0.689   6.662   1.705  0.1443 -0.0965  0.4703
 9040TIP3    H248612   0.792   6.764   1.659 -1.6133  1.6084  0.1833
 9041TIP3   OH248613   1.042   1.867  11.774 -0.1603 -0.4898  0.2245
 9041TIP3    H148614   1.056   1.830  11.687 -0.3073  1.3840 -0.6281
 9041TIP3    H248615   1.054   1.961  11.763 -0.2710 -0.1960  2.2232
 9042TIP3   OH248616   6.449   0.935  16.710 -0.2717 -0.5969 -0.4613
 9042TIP3    H148617   6.361   0.945  16.746  0.0506  0.0296  0.1585
 9042TIP3    H248618   6.480   0.852  16.746  0.1851  0.1955  1.0136
 9043TIP3   OH248619   5.692   0.308  11.805  0.2613  0.2352 -0.1034
 9043TIP3    H148620   5.781   0.290  11.833  0.0089 -2.7495 -0.9010
 9043TIP3    H248621   5.687   0.404  11.801  2.7970  0.5398  1.7645
 9044TIP3   OH248622   3.371   1.647   4.025 -0.3168  0.3079 -0.0469
 9044TIP3    H148623   3.465   1.668   4.022 -0.0044 -0.9229  0.5322
 9044TIP3    H248624   3.367   1.554   4.003 -1.2287 -0.0590  1.5512
 9045TIP3   OH248625   4.637   3.439   0.779 -0.4859 -0.4870 -0.2010
 9045TIP3    H148626   4.629   3.531   0.801  2.3157  0.1604 -1.3740
 9045TIP3    H248627   4.597   3.430   0.693  2.4210  0.6112 -1.8292
 9046TIP3   OH248628   4.877   3.784  12.769  0.7473  0.3940  0.0038
 9046TIP3    H148629   4.926   3.783  12.688  1.9444 -0.6438  0.7079
 9046TIP3    H248630   4.914   3.856  12.820  2.0844 -0.8212  0.8192
 9047TIP3   OH248631   2.153   5.443   4.452  0.2996 -0.2418 -0.2824
 9047TIP3    H148632   2.086   5.431   4.384  1.3551  0.4803 -1.4908
 9047TIP3    H248633   2.209   5.366   4.444  0.4015 -0.1792 -0.1698
 9048TIP3   OH248634   3.708   6.168  15.221 -0.0749 -0.1246 -0.9270
 9048TIP3    H148635   3.767   6.243  15.211  2.0882 -1.6641 -0.5692
 9048TIP3    H248636   3.621   6.205  15.221  0.9477  2.4722 -0.0441
 9049TIP3   OH248637   0.143   4.918   4.541 -0.1142 -0.0805 -0.1306
 9049TIP3    H148638   0.065   4.931   4.596  0.2059  0.5902  0.1772
 9049TIP3    H248639   0.112   4.862   4.469 -0.9425  0.3546 -0.1329
 9050TIP3   OH248640   4.757   4.610   0.346 -0.0654  0.4217  0.0852
 9050TIP3    H148641   4.829   4.547   0.345 -0.6828 -0.3055 -0.1509
 9050TIP3    H248642   4.694   4.575   0.283  0.1700  2.0102 -1.1017
 9051TIP3   OH248643   6.808   2.823  13.147  0.4328 -0.0006 -0.0553
 9051TIP3    H148644   6.820   2.788  13.235  0.4438 -0.8111 -0.3663
 9051TIP3    H248645   6.846   2.911  13.150  0.0667  0.1393  0.8491
 9052TIP3   OH248646   4.142   4.480  13.562 -0.4767 -0.3964 -0.0549
 9052TIP3    H148647   4.051   4.469  13.532 -0.3931  2.8182 -1.9878
 9052TIP3    H248648   4.141   4.563  13.610  1.8018  1.0805 -2.3253
 9053TIP3   OH248649   1.123   4.153  13.831 -0.5992  0.0345  0.4452
 9053TIP3    H148650   1.141   4.060  13.814  0.1146  0.0332  1.1644
 9053TIP3    H248651   1.157   4.168  13.919 -0.5206  1.0331  0.2489
 9054TIP3   OH248652   0.393   2.961  12.641 -0.1059  0.5722  0.0075
 9054TIP3    H148653   0.341   3.036  12.615 -0.3112  0.0371 -1.1751
 9054TIP3    H248654   0.407   2.973  12.735  0.6133  2.5315 -0.3036
 9055TIP3   OH248655   1.649   5.840  13.255  0.0889  0.2986  0.4159
 9055TIP3    H148656   1.634   5.763  13.310  2.7218 -0.0918  0.7400
 9055TIP3    H248657   1.725   5.883  13.295 -0.9345  2.7525 -0.1277
 9056TIP3   OH248658   0.299   2.007  17.098  0.3792  0.0574 -0.7003
 9056TIP3    H148659   0.258   2.089  17.124  2.1457  0.6967  0.2351
 9056TIP3    H248660   0.265   1.942  17.160  1.3281  0.7321  0.5738
 9057TIP3   OH248661   3.970   1.051   5.282  0.1289 -0.4204 -0.0591
 9057TIP3    H148662   3.933   0.987   5.220 -0.7186 -0.7995  0.8093
 9057TIP3    H248663   4.037   1.002   5.329 -0.9328 -0.8906  1.0276
 9058TIP3   OH248664   6.722   1.689  13.368  0.8724 -0.5278  0.1408
 9058TIP3    H148665   6.694   1.703  13.277  2.3657  0.7389 -0.1720
 9058TIP3    H248666   6.651   1.726  13.421 -0.2412 -1.7052 -0.4475
 9059TIP3   OH248667   6.602   2.391  12.326  0.1217 -0.3542  0.2844
 9059TIP3    H148668   6.511   2.381  12.353  0.0936 -0.2600  0.2245
 9059TIP3    H248669   6.643   2.440  12.397 -0.2427  0.9996 -0.3997
 9060TIP3   OH248670   4.145   1.219   2.527  0.0131  0.5147 -0.0100
 9060TIP3    H148671   4.139   1.311   2.550  0.1501  0.8514 -1.2699
 9060TIP3    H248672   4.060   1.198   2.487  0.4576  0.4550 -0.9441
 9061TIP3   OH248673   4.645   0.656  15.272 -0.0727 -0.3324 -0.3908
 9061TIP3    H148674   4.600   0.717  15.330  0.3153 -0.2298 -0.1960
 9061TIP3    H248675   4.578   0.627  15.211 -1.1102 -2.2665  1.5274
 9062TIP3   OH248676   6.204   3.366  15.875  0.4608  0.1633 -0.5478
 9062TIP3    H148677   6.269   3.337  15.812  0.1527  2.2016 -1.9018
 9062TIP3    H248678   6.178   3.453  15.844 -1.2202  0.3628  1.2459
 9063TIP3   OH248679   3.292   1.023  11.705  0.0776  0.1247 -0.1917
 9063TIP3    H148680   3.217   0.998  11.651  0.1905  0.8944 -0.7204
 9063TIP3    H248681   3.256   1.085  11.768  0.2942  0.6280 -0.5562
 9064TIP3   OH248682   1.818   2.308   1.806  0.1749  0.1776  0.0335
 9064TIP3    H148683   1.895   2.359   1.778  1.6032 -2.5567 -1.4974
 9064TIP3    H248684   1.788   2.352   1.885  2.9732  1.7502  0.3805
 9065TIP3   OH248685   2.766   3.231  14.278 -0.1102  0.5336  0.0805
 9065TIP3    H148686   2.676   3.198  14.275  0.2574 -0.6557  1.3298
 9065TIP3    H248687   2.799   3.204  14.363  1.5040  0.7850 -0.4277
 9066TIP3   OH248688   2.108   3.680   1.605 -0.3006  0.5220  0.2291
 9066TIP3    H148689   2.168   3.745   1.641 -0.6299 -0.0182  1.8267
 9066TIP3    H248690   2.082   3.716   1.520  4.5948 -0.6354 -2.0818
 9067TIP3   OH248691   5.713   5.443  10.895  0.4236 -0.2107 -0.1739
 9067TIP3    H148692   5.801   5.476  10.915 -0.0277 -0.2146  2.1665
 9067TIP3    H248693   5.663   5.520  10.869  0.5964  0.1522  0.5507
 9068TIP3   OH248694   4.432   3.819   3.459 -0.0973  0.8234 -0.8175
 9068TIP3    H148695   4.520   3.856   3.461 -0.7003  2.3649 -1.4731
 9068TIP3    H248696   4.384   3.867   3.526 -0.2796 -0.5146  0.0558
 9069TIP3   OH248697   1.461   2.596  13.712 -0.1344 -0.1569  0.5798
 9069TIP3    H148698   1.385   2.551  13.749  1.2032 -2.1730  1.0192
 9069TIP3    H248699   1.496   2.648  13.784  0.5503 -1.4982  1.2442
 9070TIP3   OH248700   2.421   0.053  13.415 -0.2164 -0.2174  0.2468
 9070TIP3    H148701   2.413   0.033  13.509 -0.6125 -1.3233 -0.0066
 9070TIP3    H248702   2.341   0.100  13.394  0.3037  0.8892  0.6540
 9071TIP3   OH248703   2.565   0.488  11.815 -0.3064  0.1526 -0.2177
 9071TIP3    H148704   2.483   0.531  11.839 -0.2899  0.8753 -1.4071
 9071TIP3    H248705   2.562   0.405  11.863 -1.7367  0.1509 -0.2419
 9072TIP3   OH248706   0.848   1.171   2.177  0.1327  0.2518  0.4622
 9072TIP3    H148707   0.882   1.254   2.209 -0.1990  0.1641  1.0648
 9072TIP3    H248708   0.771   1.154   2.231  0.6411 -0.8312  0.8859
 9073TIP3   OH248709   5.774   6.596  12.196 -0.1030  0.0866 -0.1798
 9073TIP3    H148710   5.707   6.665  12.196  1.0835  1.3480 -2.4875
 9073TIP3    H248711   5.847   6.635  12.244 -0.0258 -0.2574 -0.0159
 9074TIP3   OH248712   6.006   3.464  11.427 -0.6259 -0.2163  0.2787
 9074TIP3    H148713   6.007   3.371  11.406 -1.4914 -0.3172  0.6535
 9074TIP3    H248714   6.010   3.507  11.342 -1.9353 -0.6160 -0.0111
 9075TIP3   OH248715   5.922   1.607   1.024 -0.0926 -0.4904 -0.3513
 9075TIP3    H148716   5.907   1.514   1.006  2.5214 -0.8807 -0.9217
 9075TIP3    H248717   5.996   1.608   1.084  0.3283  1.2353 -0.8353
 9076TIP3   OH248718   4.137   2.377  16.098  0.3032 -0.1657  0.9542
 9076TIP3    H148719   4.149   2.285  16.075  0.7346  0.2025 -0.4563
 9076TIP3    H248720   4.218   2.402  16.141  0.0543 -0.5197  1.6375
 9077TIP3   OH248721   1.295   6.762  14.808 -0.2552  0.5045 -0.2159
 9077TIP3    H148722   1.364   6.788  14.748 -1.6186  0.7261 -1.7685
 9077TIP3    H248723   1.267   6.843  14.851 -0.1511  0.5558 -0.2474
 9078TIP3   OH248724   1.324   1.130   2.444  0.0482  1.1257 -0.3899
 9078TIP3    H148725   1.363   1.061   2.392  0.2023  0.7223  0.2556
 9078TIP3    H248726   1.230   1.118   2.434  0.0148 -0.5651  1.4774
 9079TIP3   OH248727   3.856   3.770  16.067 -0.1517 -0.4539  0.3625
 9079TIP3    H148728   3.820   3.681  16.071 -2.4503  0.4260  2.1236
 9079TIP3    H248729   3.910   3.778  16.146  0.1652 -0.3335  0.1347
 9080TIP3   OH248730   5.901   6.355   3.121 -0.2032  0.0255 -0.1161
 9080TIP3    H148731   5.868   6.354   3.031 -0.9563 -1.0661  0.1461
 9080TIP3    H248732   5.825   6.382   3.173  0.3722  1.1673  0.1624
 9081TIP3   OH248733   5.688   4.659  13.515 -0.0537 -0.3824  0.3955
 9081TIP3    H148734   5.607   4.666  13.566  0.2751 -0.7822  0.9875
 9081TIP3    H248735   5.758   4.669  13.580  0.3782 -0.5020 -0.0427
 9082TIP3   OH248736   3.701   4.572  15.818  0.3183 -0.3218  0.1968
 9082TIP3    H148737   3.650   4.495  15.793  0.5901  0.1065 -1.8119
 9082TIP3    H248738   3.635   4.640  15.835  0.1319 -0.6023  0.6121
 9083TIP3   OH248739   6.382   3.127  16.336 -0.0657 -0.1900 -0.1706
 9083TIP3    H148740   6.357   3.189  16.267 -1.1574 -0.3489  0.0715
 9083TIP3    H248741   6.476   3.113  16.322  0.0813  1.0643 -0.5891
 9084TIP3   OH248742   2.975   1.976  12.991  0.4777  0.5257  0.1486
 9084TIP3    H148743   3.025   2.011  13.065  1.2670  0.9751 -0.5813
 9084TIP3    H248744   2.970   2.049  12.929 -1.2254  0.5475  0.2396
 9085TIP3   OH248745   1.289   1.458  13.192 -0.0057  0.1587 -0.0343
 9085TIP3    H148746   1.309   1.551  13.180  1.8280 -0.2724 -0.6643
 9085TIP3    H248747   1.294   1.421  13.104 -1.2550 -0.4629  0.1384
 9086TIP3   OH248748   4.351   1.916  13.411  0.1294 -0.0543 -0.2549
 9086TIP3    H148749   4.303   1.963  13.343 -1.3462 -1.7678 -0.4755
 9086TIP3    H248750   4.353   1.825  13.380 -0.0332 -0.7716  1.6884
 9087TIP3   OH248751   0.678   1.741  13.583 -0.2321  0.2118 -0.2189
 9087TIP3    H148752   0.746   1.707  13.525 -0.3553  0.2276 -0.3703
 9087TIP3    H248753   0.598   1.695  13.557 -0.0774 -0.5967  0.6576
 9088TIP3   OH248754   4.838   6.766   4.851  0.1223 -0.0519  0.2916
 9088TIP3    H148755   4.770   6.818   4.895  0.7611  0.1605  1.0490
 9088TIP3    H248756   4.815   6.769   4.758 -1.7073 -1.1549  0.6512
 9089TIP3   OH248757   0.781   2.233  16.856  0.1045 -0.4198  0.1212
 9089TIP3    H148758   0.732   2.212  16.777  0.6594  1.1176 -0.6764
 9089TIP3    H248759   0.865   2.188  16.844  0.0409 -0.5170  0.0353
 9090TIP3   OH248760   2.823   6.181  13.523 -0.2974 -0.2541 -0.0265
 9090TIP3    H148761   2.770   6.110  13.487  1.7260 -0.7010 -2.3614
 9090TIP3    H248762   2.761   6.253  13.535 -1.7685 -1.3375 -0.8252
 9091TIP3   OH248763   2.601   5.183   2.035  0.7160  0.2143 -0.5393
 9091TIP3    H148764   2.557   5.098   2.046  0.4798  0.3222 -0.6517
 9091TIP3    H248765   2.694   5.163   2.048  0.4311  0.5013  2.7951
 9092TIP3   OH248766   6.426   1.989  12.770  0.2837  0.1011  0.1832
 9092TIP3    H148767   6.497   1.957  12.826 -2.1219 -4.5620  1.0274
 9092TIP3    H248768   6.376   2.048  12.827  2.3166  2.0053  0.1343
 9093TIP3   OH248769   0.546   0.152  14.357 -0.4711  0.2447  0.2795
 9093TIP3    H148770   0.588   0.214  14.297 -1.6215  2.1920  1.3859
 9093TIP3    H248771   0.504   0.088  14.299  1.0612  0.2337 -0.8906
 9094TIP3   OH248772   2.391   1.503  13.894  0.0119 -0.3006 -0.1237
 9094TIP3    H148773   2.319   1.565  13.909  1.1071  1.0843 -0.4531
 9094TIP3    H248774   2.470   1.555  13.907  0.9682 -1.3611 -1.5225
 9095TIP3   OH248775   3.324   4.372  14.838  0.3172 -0.2750  0.0918
 9095TIP3    H148776   3.256   4.305  14.848 -0.0899  0.3925  2.1413
 9095TIP3    H248777   3.375   4.368  14.919  2.7995 -0.7509 -1.3717
 9096TIP3   OH248778   4.648   0.854  11.719 -0.3348 -0.3742 -0.3443
 9096TIP3    H148779   4.594   0.836  11.796 -3.1176  0.1237 -2.0399
 9096TIP3    H248780   4.674   0.946  11.729 -0.2641 -0.4544  0.2340
 9097TIP3   OH248781   4.553   5.340  13.769 -0.3270  0.1349  0.1499
 9097TIP3    H148782   4.520   5.299  13.689  0.1166  2.1111 -1.1134
 9097TIP3    H248783   4.588   5.424  13.741 -0.7376  1.2001  2.5243
 9098TIP3   OH248784   1.197   4.178   4.269 -0.2212 -0.5906 -0.7232
 9098TIP3    H148785   1.117   4.182   4.217  0.1342 -1.2120 -1.3316
 9098TIP3    H248786   1.267   4.196   4.207  0.1157 -0.0347 -0.1896
 9099TIP3   OH248787   5.140   2.965  12.921 -0.0067  0.4405  0.0358
 9099TIP3    H148788   5.168   2.878  12.895 -1.1031 -0.1722  0.7932
 9099TIP3    H248789   5.135   3.015  12.840 -0.9737 -0.6929 -0.6267
 9100TIP3   OH248790   1.629   2.971  13.054  0.4343 -0.3116 -0.2140
 9100TIP3    H148791   1.687   3.008  12.987 -1.1164 -1.0692 -2.0549
 9100TIP3    H248792   1.541   2.982  13.019 -0.5155 -0.0809  2.0608
 9101TIP3   OH248793   0.072   1.133   2.961 -0.0380  0.5105  0.0694
 9101TIP3    H148794   0.072   1.222   2.926 -0.5222 -0.0066 -1.3597
 9101TIP3    H248795   0.164   1.106   2.959 -0.1109  0.2168 -1.7084
 9102TIP3   OH248796   4.456   4.949   5.577  0.2688  0.1250 -0.1668
 9102TIP3    H148797   4.386   4.926   5.516 -0.9294 -0.2541  1.2706
 9102TIP3    H248798   4.528   4.891   5.553  0.5668  1.3165 -2.4246
 9103TIP3   OH248799   4.551   5.365   0.184 -0.2444 -0.1789 -0.3047
 9103TIP3    H148800   4.579   5.299   0.120 -0.4057 -0.3859 -0.1643
 9103TIP3    H248801   4.474   5.326   0.225 -0.4604  0.1889 -0.3636
 9104TIP3   OH248802   4.980   6.670   6.129  0.1065 -0.1155  0.0658
 9104TIP3    H148803   5.072   6.654   6.152  0.5925  1.1696 -0.8695
 9104TIP3    H248804   4.944   6.716   6.205  0.1137 -0.9271  0.5815
 9105TIP3   OH248805   4.114   3.106   1.188 -0.3250  0.2779  0.2721
 9105TIP3    H148806   4.142   3.034   1.245  3.0563 -0.0044 -1.4504
 9105TIP3    H248807   4.160   3.183   1.223 -1.9817  1.1309  0.6555
 9106TIP3   OH248808   3.587   0.104   6.019  0.1586  0.8697  0.0823
 9106TIP3    H148809   3.633   0.188   6.015 -1.0226  1.5358  0.0620
 9106TIP3    H248810   3.553   0.091   5.930  0.8404  0.0680 -0.0687
 9107TIP3   OH248811   0.642   0.636  13.766  0.5196 -0.5847 -0.5332
 9107TIP3    H148812   0.550   0.655  13.788  0.9772 -0.5902  1.6589
 9107TIP3    H248813   0.641   0.544  13.738 -0.0607 -0.8219  0.2170
 9108TIP3   OH248814   1.532   1.681  14.595  0.0776 -0.0995 -0.1444
 9108TIP3    H148815   1.494   1.684  14.507  0.2521  1.8984 -0.1893
 9108TIP3    H248816   1.459   1.658  14.652 -0.0123 -1.5511 -0.7945
 9109TIP3   OH248817   3.466   4.531   2.065  0.7247 -0.2760 -0.4687
 9109TIP3    H148818   3.484   4.622   2.042 -1.5649 -0.0507 -1.7021
 9109TIP3    H248819   3.475   4.483   1.982 -0.8785 -0.6434 -0.4664
 9110TIP3   OH248820   2.543   0.724  11.198  0.1790  0.0843  0.2721
 9110TIP3    H148821   2.611   0.701  11.134  1.1617 -1.8356  1.9002
 9110TIP3    H248822   2.492   0.644  11.209  0.5328  0.0936  2.4287
 9111TIP3   OH248823   2.813   4.286   5.374  0.2343  0.2547 -0.0559
 9111TIP3    H148824   2.855   4.213   5.420 -0.8963 -0.7195 -0.4834
 9111TIP3    H248825   2.767   4.334   5.443  0.0281 -0.1416  0.0923
 9112TIP3   OH248826   4.926   2.622   2.908 -0.5283 -0.4876  0.5361
 9112TIP3    H148827   4.900   2.566   2.835 -0.6505  0.3607 -0.0799
 9112TIP3    H248828   5.010   2.587   2.936  0.5721  0.4691 -1.3994
 9113TIP3   OH248829   0.343   3.307   0.728 -0.0897 -0.4243 -0.1363
 9113TIP3    H148830   0.360   3.311   0.822 -0.4698 -1.2762 -0.0177
 9113TIP3    H248831   0.371   3.219   0.702  1.1981  0.2275 -1.0784
 9114TIP3   OH248832   3.061   3.578   6.412  0.5158 -0.9953  0.6692
 9114TIP3    H148833   2.986   3.571   6.472  0.0217 -1.4421  0.0172
 9114TIP3    H248834   3.039   3.518   6.340  0.4351  0.5684 -0.6561
 9115TIP3   OH248835   5.339   6.157  12.692 -0.2712  0.6974  0.2459
 9115TIP3    H148836   5.420   6.171  12.642 -0.8717  1.3925 -0.5646
 9115TIP3    H248837   5.286   6.235  12.672 -0.8559  0.5785  1.3195
 9116TIP3   OH248838   2.596   4.383  16.265  0.7521  0.3223 -0.1673
 9116TIP3    H148839   2.573   4.312  16.325 -0.0346  0.8358  0.1413
 9116TIP3    H248840   2.609   4.339  16.180  2.8697 -0.5642  0.5328
 9117TIP3   OH248841   4.344   4.771  13.543  0.5073  0.2757 -0.6812
 9117TIP3    H148842   4.338   4.867  13.543  1.6130  0.3768 -1.8865
 9117TIP3    H248843   4.359   4.748  13.635  0.2505  1.2644 -0.3822
 9118TIP3   OH248844   1.810   3.810  17.076 -0.0670  0.1547 -0.3092
 9118TIP3    H148845   1.827   3.905  17.076 -1.2320  0.4308 -2.5555
 9118TIP3    H248846   1.766   3.794  16.993 -2.2670 -1.9855  1.1559
 9119TIP3   OH248847   3.210   4.775  14.734 -0.0204 -0.6227 -0.0877
 9119TIP3    H148848   3.247   4.746  14.651  0.5317 -2.1732  0.6495
 9119TIP3    H248849   3.285   4.808  14.783 -0.3482  0.3143 -0.2023
 9120TIP3   OH248850   3.303   2.729  14.200  0.3660 -0.0368  0.2390
 9120TIP3    H148851   3.254   2.769  14.128 -1.1312  2.2923  2.3654
 9120TIP3    H248852   3.395   2.739  14.175 -0.1040 -0.1070 -1.6990
 9121TIP3   OH248853   1.065   4.494  14.167 -0.1275 -0.5751  0.8794
 9121TIP3    H148854   1.073   4.523  14.258 -0.5358 -0.1170  0.7751
 9121TIP3    H248855   1.087   4.572  14.116 -1.1523 -0.4589  0.5891
 9122TIP3   OH248856   2.969   0.822   5.925 -0.5015 -0.5117 -0.7140
 9122TIP3    H148857   3.033   0.892   5.912 -0.9806  0.1857  0.5429
 9122TIP3    H248858   3.010   0.745   5.885  0.8856  0.0405 -0.4294
 9123TIP3   OH248859   0.836   2.913  12.627 -0.2751  1.0893  0.2034
 9123TIP3    H148860   0.892   2.988  12.609 -1.2419  1.4130 -1.7215
 9123TIP3    H248861   0.887   2.837  12.600  0.1092  1.1596  0.7036
 9124TIP3   OH248862   0.227   2.516  14.915  0.3000 -0.2842 -0.1625
 9124TIP3    H148863   0.311   2.542  14.952  0.7336  1.1473 -2.0385
 9124TIP3    H248864   0.163   2.545  14.980  1.1193  0.7547  0.2217
 9125TIP3   OH248865   5.350   3.637  10.857 -0.1485  0.1136  0.4393
 9125TIP3    H148866   5.410   3.585  10.910  2.5817  2.0674 -0.5120
 9125TIP3    H248867   5.278   3.659  10.917  0.5086 -1.5334  1.9203
 9126TIP3   OH248868   2.389   3.242  14.134  0.3437  0.1618  0.2191
 9126TIP3    H148869   2.456   3.279  14.076  0.0450 -0.4865 -0.5684
 9126TIP3    H248870   2.306   3.256  14.087 -0.2259  1.8102  1.6087
 9127TIP3   OH248871   1.357   2.596  11.371 -0.7366  0.4925  0.0920
 9127TIP3    H148872   1.396   2.530  11.428  0.2273  0.5162 -0.5056
 9127TIP3    H248873   1.266   2.602  11.400 -1.0476 -1.5735 -0.2575
 9128TIP3   OH248874   5.166   6.361   2.052  0.1347  0.4455 -0.0018
 9128TIP3    H148875   5.187   6.437   1.998 -0.5801 -0.3223 -1.4225
 9128TIP3    H248876   5.124   6.398   2.130 -1.7420  1.4801 -1.3929
 9129TIP3   OH248877   3.254   2.763   0.739  0.5066  0.4828  0.9414
 9129TIP3    H148878   3.214   2.706   0.805  1.2967 -1.0796  0.1291
 9129TIP3    H248879   3.214   2.737   0.656  1.5931  0.4064  0.4220
 9130TIP3   OH248880   0.197   2.024   2.183 -0.5951 -0.6882  0.1359
 9130TIP3    H148881   0.261   1.986   2.123 -1.1716 -1.6372  0.1168
 9130TIP3    H248882   0.141   2.078   2.128  1.0963  1.4565  0.3525
 9131TIP3   OH248883   2.452   2.654  16.920  0.0200 -0.2851  0.5671
 9131TIP3    H148884   2.423   2.638  16.830 -1.3545  2.1262  0.5016
 9131TIP3    H248885   2.530   2.708  16.912 -0.2049  0.0818  0.8100
 9132TIP3   OH248886   1.689   3.434  16.177  0.1844 -0.7031  0.0323
 9132TIP3    H148887   1.769   3.384  16.160  1.6169  1.0424  1.2991
 9132TIP3    H248888   1.717   3.504  16.235 -2.5439 -0.7518  1.5343
 9133TIP3   OH248889   0.585   6.304   1.870 -0.3479 -0.0730  0.1984
 9133TIP3    H148890   0.576   6.282   1.962 -0.7969  0.9351  0.4094
 9133TIP3    H248891   0.660   6.253   1.840 -0.3128 -0.5485  1.0715
 9134TIP3   OH248892   2.937   0.099   3.281 -0.0799  0.2949 -0.1492
 9134TIP3    H148893   2.901   0.174   3.234  0.7667  0.8075 -0.0205
 9134TIP3    H248894   2.862   0.045   3.302 -0.6736  0.9554 -0.5215
 9135TIP3   OH248895   0.796   0.144   6.256 -0.0568 -0.6220  0.1807
 9135TIP3    H148896   0.798   0.218   6.317 -1.9142  0.7846 -1.3390
 9135TIP3    H248897   0.884   0.139   6.220  0.9056 -1.0887  2.4344
 9136TIP3   OH248898   1.844   6.769  11.973  0.6067 -0.1698 -0.1004
 9136TIP3    H148899   1.876   6.699  11.917  2.1663  0.5309 -0.1365
 9136TIP3    H248900   1.841   6.731  12.060  0.8620 -0.4660 -0.2211
 9137TIP3   OH248901   2.561   4.082   4.944 -0.3834  0.0330 -0.1763
 9137TIP3    H148902   2.584   4.103   5.034  1.3288  0.7362 -0.7213
 9137TIP3    H248903   2.630   4.021   4.915 -0.6215  0.1983 -1.1460
 9138TIP3   OH248904   1.081   6.692  11.270 -0.0385 -0.1562  0.1945
 9138TIP3    H148905   1.159   6.706  11.218  1.1907 -0.1907  1.9438
 9138TIP3    H248906   1.019   6.650  11.210  1.1917  0.0658 -1.2813
 9139TIP3   OH248907   4.375   0.367  13.707 -0.3347 -0.1246  0.1981
 9139TIP3    H148908   4.420   0.286  13.732  2.5518  0.6742 -1.8877
 9139TIP3    H248909   4.403   0.431  13.771  3.4916  0.8572 -2.1347
 9140TIP3   OH248910   3.675   5.891   2.467  0.0077 -0.4633  0.0780
 9140TIP3    H148911   3.668   5.812   2.521  1.5376 -0.6357  0.0591
 9140TIP3    H248912   3.631   5.867   2.385 -1.0364 -0.7009  0.6881
 9141TIP3   OH248913   6.599   1.244  11.649  0.2684  0.1318 -0.0592
 9141TIP3    H148914   6.588   1.314  11.714  2.0114  0.6706 -0.2788
 9141TIP3    H248915   6.545   1.272  11.575 -0.0909  0.5740  0.3565
 9142TIP3   OH248916   4.632   4.037  12.934  0.5754 -0.4318  0.3295
 9142TIP3    H148917   4.578   4.076  12.865 -0.9502 -3.3745 -0.3200
 9142TIP3    H248918   4.600   4.077  13.015  0.3232  0.8930 -0.4063
 9143TIP3   OH248919   4.009   0.882  13.461  0.1459 -0.2233  0.1702
 9143TIP3    H148920   3.976   0.832  13.387  1.3168 -1.1986  0.2835
 9143TIP3    H248921   4.104   0.873  13.457  0.3389  1.1806  0.7825
 9144TIP3   OH248922   3.832   3.951   5.054 -0.4741  0.2464  0.3646
 9144TIP3    H148923   3.879   4.034   5.054  0.6803 -0.3884  0.1720
 9144TIP3    H248924   3.870   3.902   4.981 -1.4395 -0.2885  0.2035
 9145TIP3   OH248925   2.097   6.088  12.266  0.6350 -0.3857  0.5159
 9145TIP3    H148926   2.147   6.020  12.221  1.8407 -1.2031  2.9412
 9145TIP3    H248927   2.162   6.139  12.314 -0.5857  0.3675  1.4336
 9146TIP3   OH248928   0.076   2.485   0.609  0.0739  0.3745 -0.1893
 9146TIP3    H148929   0.008   2.548   0.586  1.2363  1.9931  0.6859
 9146TIP3    H248930   0.045   2.445   0.690 -0.5890 -0.1054 -0.6619
 9147TIP3   OH248931   3.081   1.751  12.854  0.1302 -0.4562 -0.0668
 9147TIP3    H148932   3.174   1.760  12.836 -0.1580  0.4614 -1.2167
 9147TIP3    H248933   3.059   1.828  12.907  0.4494 -1.8266  2.1633
 9148TIP3   OH248934   3.292   6.733   4.152  0.6865 -0.3694 -0.3816
 9148TIP3    H148935   3.229   6.727   4.080  1.2642  2.1641 -1.1911
 9148TIP3    H248936   3.247   6.695   4.227 -0.7742 -1.0449 -1.5621
 9149TIP3   OH248937   3.939   0.756  13.201  0.1845  0.1568  0.3460
 9149TIP3    H148938   3.852   0.770  13.239  1.1154  2.1122  1.9725
 9149TIP3    H248939   3.956   0.663  13.213 -1.2737 -0.0551  0.9754
 9150TIP3   OH248940   6.731   5.548  11.431  0.4877 -0.0730 -0.0254
 9150TIP3    H148941   6.666   5.556  11.501  0.5945 -1.3551  0.2427
 9150TIP3    H248942   6.680   5.521  11.354  0.6437 -0.8028  0.1162
 9151TIP3   OH248943   2.608   4.034   2.608 -0.5788  0.6620 -0.0393
 9151TIP3    H148944   2.671   4.027   2.536 -0.0192  0.2754  0.4755
 9151TIP3    H248945   2.582   4.126   2.609 -1.7382  0.3909 -1.6820
 9152TIP3   OH248946   5.922   3.761   2.265 -0.1235  0.2702  0.0116
 9152TIP3    H148947   5.835   3.792   2.240  0.1335  0.8101 -0.2498
 9152TIP3    H248948   5.978   3.784   2.191  0.4653  1.0029  0.6622
 9153TIP3   OH248949   3.138   5.078   1.500 -0.0735  0.3292  0.5208
 9153TIP3    H148950   3.169   5.164   1.473  0.0217  0.4422  0.9870
 9153TIP3    H248951   3.130   5.084   1.595  0.2260 -0.2688  0.5872
 9154TIP3   OH248952   0.982   0.479   3.891 -0.5455  0.4367 -0.5823
 9154TIP3    H148953   0.951   0.550   3.834  0.6368  1.9874  0.6128
 9154TIP3    H248954   0.909   0.464   3.951 -0.1491  2.0288  0.3666
 9155TIP3   OH248955   6.759   5.125   1.760  0.6604 -0.3031 -0.4508
 9155TIP3    H148956   6.806   5.048   1.728 -0.5714 -1.1413 -0.3219
 9155TIP3    H248957   6.769   5.190   1.690 -0.9153 -1.6730 -2.0448
 9156TIP3   OH248958   6.400   6.305   4.433 -0.2816  0.0002  0.3000
 9156TIP3    H148959   6.315   6.308   4.476  0.8507 -3.0717  3.0857
 9156TIP3    H248960   6.385   6.253   4.354 -1.1897  0.5289  0.1102
 9157TIP3   OH248961   6.074   4.120   1.498  0.3782 -0.3113 -0.1410
 9157TIP3    H148962   5.997   4.072   1.468 -0.3171  0.3071  0.6067
 9157TIP3    H248963   6.102   4.171   1.422  0.2304 -0.7628 -0.5019
 9158TIP3   OH248964   4.856   3.297   4.967  0.1386 -0.0834  0.7175
 9158TIP3    H148965   4.945   3.331   4.973  0.5744 -1.2792  1.3767
 9158TIP3    H248966   4.865   3.204   4.987 -1.2106 -0.2982  0.3901
 9159TIP3   OH248967   6.473   3.155   5.578  0.2311  0.0068 -0.1462
 9159TIP3    H148968   6.393   3.207   5.571  0.5520  0.5272 -0.0229
 9159TIP3    H248969   6.458   3.099   5.655 -1.0349 -1.7446 -1.6004
 9160TIP3   OH248970   5.300   4.030   0.505  0.1806 -0.3559  0.2595
 9160TIP3    H148971   5.232   4.092   0.530 -0.4230 -0.4831 -1.0076
 9160TIP3    H248972   5.344   4.008   0.588  0.4741  1.7940  0.7341
 9161TIP3   OH248973   0.404   6.786  11.194 -0.4725 -0.1636  0.3076
 9161TIP3    H148974   0.388   6.698  11.160 -0.2737  0.8264 -2.6275
 9161TIP3    H248975   0.466   6.773  11.265  0.8778 -2.2954 -1.1409
 9162TIP3   OH248976   2.968   3.395  11.429 -0.3259 -0.2434  0.4427
 9162TIP3    H148977   2.925   3.353  11.354 -1.5348  1.6831 -0.0160
 9162TIP3    H248978   2.950   3.338  11.503 -0.4903 -1.3578 -0.4357
 9163TIP3   OH248979   1.500   1.577   6.116  0.3444  0.5959 -0.0873
 9163TIP3    H148980   1.484   1.489   6.082 -1.5177  0.0813  1.8734
 9163TIP3    H248981   1.554   1.619   6.049 -0.8240 -1.1909 -2.3127
 9164TIP3   OH248982   4.582   4.318   5.818  0.6592 -0.4813  0.5301
 9164TIP3    H148983   4.497   4.297   5.778  1.3520 -1.0954 -0.6619
 9164TIP3    H248984   4.578   4.278   5.905 -0.2522 -0.5365  0.4737
 9165TIP3   OH248985   4.609   0.845   2.960  0.1702  0.0921 -0.0436
 9165TIP3    H148986   4.585   0.780   2.894 -0.8705 -0.1905  0.5957
 9165TIP3    H248987   4.548   0.917   2.946  0.8364  0.6209 -0.2646
 9166TIP3   OH248988   1.628   4.698  13.205  0.0438  0.2074  0.2976
 9166TIP3    H148989   1.559   4.720  13.267  0.4769 -1.0237  1.2679
 9166TIP3    H248990   1.701   4.670  13.260  0.6733 -0.2662 -0.7515
 9167TIP3   OH248991   1.559   0.032   3.562 -0.2973 -0.4219 -0.3368
 9167TIP3    H148992   1.634  -0.013   3.522 -0.8671 -2.0420  0.3364
 9167TIP3    H248993   1.500   0.050   3.489 -0.1355 -0.9262 -0.5928
 9168TIP3   OH248994   2.735   2.658   3.860 -0.2673 -0.1313  0.0830
 9168TIP3    H148995   2.678   2.705   3.920  0.0982  1.4850 -0.7530
 9168TIP3    H248996   2.689   2.577   3.841 -1.2867  0.1947  1.0344
 9169TIP3   OH248997   4.921   2.484  16.263 -0.1868 -0.1293 -0.2783
 9169TIP3    H148998   4.991   2.429  16.299  0.5942  2.0091  1.6940
 9169TIP3    H248999   4.872   2.513  16.339 -1.4297  0.8011 -1.3982
 9170TIP3   OH249000   1.992   3.988  16.916 -0.1204 -0.1408  0.0972
 9170TIP3    H149001   1.934   4.064  16.927  1.6110  1.3006 -0.2749
 9170TIP3    H249002   2.056   3.996  16.986  2.2810  0.9115 -2.0438
 9171TIP3   OH249003   3.255   0.842   3.346 -0.1692 -0.1118  0.5416
 9171TIP3    H149004   3.248   0.758   3.391  0.7952 -1.0092 -0.8639
 9171TIP3    H249005   3.165   0.867   3.326 -0.4600 -0.9485  0.7659
 9172TIP3   OH249006   5.992   6.609  12.389  0.0498  0.2222 -0.0090
 9172TIP3    H149007   6.020   6.662  12.464  1.0728 -0.3862  0.0594
 9172TIP3    H249008   6.070   6.601  12.334  0.4268 -2.4732  0.7546
 9173TIP3   OH249009   0.300   0.939   5.967  0.1740  0.0770  0.2558
 9173TIP3    H149010   0.389   0.976   5.964  1.4136 -2.6541 -1.8931
 9173TIP3    H249011   0.255   0.982   5.895  0.9352 -0.9136 -0.8681
 9174TIP3   OH249012   3.124   0.518   4.132 -1.0158  0.0956 -0.4319
 9174TIP3    H149013   3.029   0.518   4.123 -1.2701 -1.6876  1.5073
 9174TIP3    H249014   3.144   0.598   4.182 -1.8015 -0.6788  1.1964
 9175TIP3   OH249015   2.203   1.658   1.147 -0.0904  0.9273  0.4029
 9175TIP3    H149016   2.261   1.585   1.166  0.5064  1.5416  0.9685
 9175TIP3    H249017   2.123   1.639   1.196 -0.9358 -0.5868 -1.4097
 9176TIP3   OH249018   1.108   0.921   1.266 -0.3184 -0.4060 -0.0870
 9176TIP3    H149019   1.161   0.924   1.187  0.5813  2.2846  0.5281
 9176TIP3    H249020   1.041   0.989   1.253  1.0656  1.5433  2.1678
 9177TIP3   OH249021   1.085   2.306  12.548 -0.0085 -0.0597  0.2994
 9177TIP3    H149022   1.128   2.253  12.614  0.1727 -0.4630 -0.1395
 9177TIP3    H249023   1.144   2.303  12.472 -2.1146 -3.1603 -1.4635
 9178TIP3   OH249024   5.171   6.249  16.467 -0.0541  0.2219  0.5614
 9178TIP3    H149025   5.127   6.210  16.391 -1.0351 -0.7582  1.5898
 9178TIP3    H249026   5.248   6.195  16.481  0.9628  1.3020 -0.5986
 9179TIP3   OH249027   2.555   3.366  15.164  0.1399 -0.3990  0.6625
 9179TIP3    H149028   2.506   3.439  15.204  1.1112  0.8608 -0.3514
 9179TIP3    H249029   2.616   3.409  15.104 -1.0513 -2.1464 -2.0010
 9180TIP3   OH249030   2.361   5.820  11.123  0.5882  0.5596 -0.7439
 9180TIP3    H149031   2.291   5.784  11.177  0.3050 -3.5099 -3.3936
 9180TIP3    H249032   2.316   5.865  11.052  0.5924 -0.9480 -1.7500
 9181TIP3   OH249033   5.162   1.505   3.796 -0.0887  0.7597  0.0750
 9181TIP3    H149034   5.088   1.448   3.774 -0.4331  1.2058  0.0653
 9181TIP3    H249035   5.135   1.549   3.877  0.1184  1.0078  0.0102
 9182TIP3   OH249036   2.315   0.259   4.940  0.9196 -0.2243  0.5566
 9182TIP3    H149037   2.286   0.336   4.990  0.4947  0.2138 -0.3425
 9182TIP3    H249038   2.404   0.281   4.912  0.7068  0.0515  0.0888
 9183TIP3   OH249039   1.788   3.426   4.095  0.1945 -0.0578  0.6036
 9183TIP3    H149040   1.837   3.502   4.124  2.9782 -2.3037  2.3796
 9183TIP3    H249041   1.841   3.390   4.024 -0.9685 -0.4621 -0.0783
 9184TIP3   OH249042   0.331   6.514  16.527  0.1371 -0.2739  0.0672
 9184TIP3    H149043   0.347   6.577  16.597  0.3619 -1.9818  1.6303
 9184TIP3    H249044   0.408   6.519  16.472  0.2326  0.6728  0.2728
 9185TIP3   OH249045   1.844   6.721   3.523 -0.0809  0.1457  0.3744
 9185TIP3    H149046   1.839   6.655   3.455  0.0156  0.8217 -0.2962
 9185TIP3    H249047   1.887   6.796   3.481  0.9569  0.1968  1.4596
 9186TIP3   OH249048   5.711   4.557   4.280  0.1061 -0.2497 -0.1267
 9186TIP3    H149049   5.738   4.569   4.189 -1.9518 -0.1099 -0.7655
 9186TIP3    H249050   5.687   4.645   4.309  2.7003  0.1040  1.2996
 9187TIP3   OH249051   1.271   0.312   1.670 -0.2219  0.1034  0.2712
 9187TIP3    H149052   1.186   0.268   1.672  0.0496 -0.4115  0.6768
 9187TIP3    H249053   1.294   0.314   1.577 -0.6431  0.1814  0.1669
 9188TIP3   OH249054   5.942   6.416  12.956 -0.5850  0.0504  0.6147
 9188TIP3    H149055   6.024   6.372  12.932 -1.0832 -1.0891  0.9263
 9188TIP3    H249056   5.969   6.481  13.021  0.2123  0.4339 -0.0691
 9189TIP3   OH249057   3.018   2.200   0.555  0.4425 -0.2488  0.5674
 9189TIP3    H149058   3.032   2.111   0.587  0.3148 -1.0600 -1.4766
 9189TIP3    H249059   3.097   2.221   0.506  0.0155  0.3383  0.1051
 9190TIP3   OH249060   4.587   0.562   1.982  0.5374 -0.1802  0.3615
 9190TIP3    H149061   4.594   0.468   1.964  2.1791  0.1070 -0.7706
 9190TIP3    H249062   4.656   0.580   2.045  1.2028  0.4861 -0.5286
 9191TIP3   OH249063   0.921   6.257  14.760 -0.4978  0.1886  0.1145
 9191TIP3    H149064   0.837   6.285  14.798 -0.5912  2.1372 -1.3423
 9191TIP3    H249065   0.907   6.166  14.736 -2.1193  0.3932  0.1489
 9192TIP3   OH249066   5.598   1.353  16.865 -0.4221 -0.5012 -0.2741
 9192TIP3    H149067   5.575   1.415  16.796  0.7763 -0.1382 -0.3727
 9192TIP3    H249068   5.688   1.376  16.889 -1.0460 -0.1028  1.9535
 9193TIP3   OH249069   4.838   4.862  12.726 -0.4539  0.0602  0.2838
 9193TIP3    H149070   4.861   4.833  12.637 -1.0031 -1.7202  0.6735
 9193TIP3    H249071   4.815   4.781  12.772 -1.0101  1.0431  1.8098
 9194TIP3   OH249072   6.702   6.265  11.825 -0.5521 -0.4015  0.2145
 9194TIP3    H149073   6.780   6.317  11.805 -0.9974  0.0183 -0.4507
 9194TIP3    H249074   6.693   6.273  11.920  0.8365 -1.3541  0.4499
 9195TIP3   OH249075   2.449   2.322  12.226  0.1215  0.2701  0.0495
 9195TIP3    H149076   2.500   2.386  12.275 -0.4385  0.4023  0.4673
 9195TIP3    H249077   2.366   2.366  12.209 -0.1079 -0.1929 -0.0281
 9196TIP3   OH249078   2.836   3.305  17.149 -0.2696 -0.3550  0.3775
 9196TIP3    H149079   2.902   3.269  17.091 -1.8323 -0.7249 -1.2650
 9196TIP3    H249080   2.752   3.278  17.110 -1.4118 -0.4600  2.6913
 9197TIP3   OH249081   5.584   0.144   1.958  0.1349  0.4001 -0.2777
 9197TIP3    H149082   5.560   0.071   2.015 -1.1961  0.3551 -0.8515
 9197TIP3    H249083   5.674   0.166   1.983  0.2501 -0.8613  0.4987
 9198TIP3   OH249084   6.731   4.287   2.748 -0.0315  0.3871 -0.0794
 9198TIP3    H149085   6.826   4.296   2.744 -0.2157  2.8770 -0.5894
 9198TIP3    H249086   6.712   4.277   2.842  0.6897  0.6973  0.1115
 9199TIP3   OH249087   2.582   3.332  10.563 -0.2374  0.0812  0.0710
 9199TIP3    H149088   2.504   3.276  10.572 -1.2805  1.5443  0.4273
 9199TIP3    H249089   2.655   3.270  10.556 -1.3344 -1.3225  0.5850
 9200TIP3   OH249090   5.166   0.039   1.970 -0.0552 -0.2319  0.2440
 9200TIP3    H149091   5.179   0.027   1.876  0.7408  0.0424  0.3077
 9200TIP3    H249092   5.202  -0.040   2.010 -1.6568 -0.9881  0.2590
 9201TIP3   OH249093   3.670   0.843  12.451  0.0604 -0.1156  0.0941
 9201TIP3    H149094   3.707   0.773  12.505 -2.4586 -2.0841 -0.5409
 9201TIP3    H249095   3.705   0.923  12.489  0.8273 -1.5466  2.6793
 9202TIP3   OH249096   0.342   4.445  13.950 -0.0870 -0.3289  0.2399
 9202TIP3    H149097   0.327   4.413  13.861 -1.2359 -0.8612  0.6106
 9202TIP3    H249098   0.331   4.540  13.943  1.1442 -0.2146 -0.4291
 9203TIP3   OH249099   6.614   1.296  14.302 -0.3490 -0.0714  0.2147
 9203TIP3    H149100   6.554   1.266  14.371  0.7393 -0.5721  0.9703
 9203TIP3    H249101   6.675   1.223  14.289 -0.6285 -0.0539 -1.4175
 9204TIP3   OH249102   5.431   5.115  13.116  0.0750  0.0755 -0.5300
 9204TIP3    H149103   5.501   5.050  13.112  1.2014  1.0683  1.6539
 9204TIP3    H249104   5.470   5.195  13.081 -0.1550  0.4579  0.0675
 9205TIP3   OH249105   2.195   4.828  11.251  0.0365 -0.0504  0.0627
 9205TIP3    H149106   2.204   4.922  11.232 -1.6393  0.2449  0.5710
 9205TIP3    H249107   2.139   4.824  11.328 -1.5841 -1.5093 -1.1017
 9206TIP3   OH249108   5.343   1.550  13.112 -0.2263 -0.2286  0.0732
 9206TIP3    H149109   5.278   1.614  13.141 -1.3731 -1.1437 -0.4183
 9206TIP3    H249110   5.419   1.566  13.168 -0.4872  1.5382 -0.0137
 9207TIP3   OH249111   6.771   6.750  17.031  0.5766  0.3951 -0.0782
 9207TIP3    H149112   6.679   6.746  17.002  0.7567 -1.3117 -0.5516
 9207TIP3    H249113   6.773   6.819  17.097 -0.8025  1.2720 -0.9031
 9208TIP3   OH249114   1.917   3.238  16.113  0.3260  0.1702 -0.0481
 9208TIP3    H149115   1.933   3.145  16.123 -1.3944 -0.2591 -0.9162
 9208TIP3    H249116   1.978   3.280  16.175  0.0792 -1.5791  1.4649
 9209TIP3   OH249117   0.321   1.850  13.553  0.3773  0.6995 -0.2160
 9209TIP3    H149118   0.314   1.897  13.470 -1.0773  0.5841 -0.1968
 9209TIP3    H249119   0.342   1.760  13.528  0.7334  0.8338 -0.4058
 9210TIP3   OH249120   6.107   4.685  11.448  0.2849 -0.0901  0.2604
 9210TIP3    H149121   6.191   4.641  11.436  0.5461  0.5588 -0.3423
 9210TIP3    H249122   6.072   4.647  11.528  0.6562 -1.1451 -0.0592
 9211TIP3   OH249123   4.096   3.914  15.991 -0.1626  0.5543 -0.4764
 9211TIP3    H149124   4.076   3.899  16.084  1.5191  0.5511 -0.0805
 9211TIP3    H249125   4.134   3.831  15.962 -0.9666  0.4515 -1.2757
 9212TIP3   OH249126   3.309   3.548   5.221 -0.0567  0.9101  0.2793
 9212TIP3    H149127   3.306   3.534   5.126 -1.7629  0.4218  0.3754
 9212TIP3    H249128   3.263   3.631   5.234 -0.3905  0.6607  0.7176
 9213TIP3   OH249129   4.955   6.012  15.782 -0.3360  0.5148  0.4592
 9213TIP3    H149130   4.951   6.092  15.730  0.7946 -0.1967 -0.7823
 9213TIP3    H249131   4.967   6.043  15.872  0.0155  1.7342  0.0118
 9214TIP3   OH249132   0.425   6.788  14.575  0.4777 -0.3785  0.0335
 9214TIP3    H149133   0.368   6.727  14.621  0.7479 -0.7443 -0.1161
 9214TIP3    H249134   0.398   6.782  14.483  0.6310 -0.4107 -0.0091
 9215TIP3   OH249135   5.098   1.842  10.853 -0.0365 -0.5629 -0.0442
 9215TIP3    H149136   5.125   1.856  10.762 -0.0075  0.6231  0.1322
 9215TIP3    H249137   5.004   1.830  10.849  0.1351 -2.0318 -0.3738
 9216TIP3   OH249138   3.933   0.018   0.300  0.8722  0.4269 -0.4522
 9216TIP3    H149139   3.860  -0.043   0.291 -0.0604  1.4143  0.1814
 9216TIP3    H249140   3.993  -0.026   0.361  0.5679 -0.1767 -0.5792
 9217TIP3   OH249141   6.351   1.744   0.999 -0.3842  0.9312  0.1063
 9217TIP3    H149142   6.315   1.682   1.063 -0.2143  0.5599 -0.1502
 9217TIP3    H249143   6.297   1.731   0.921 -0.2260  0.9678 -0.0107
 9218TIP3   OH249144   2.217   1.392   3.557 -0.1215  0.0569  0.0736
 9218TIP3    H149145   2.128   1.411   3.529  0.1139 -0.9677 -1.5219
 9218TIP3    H249146   2.215   1.299   3.581  0.6655 -0.1699 -0.6980
 9219TIP3   OH249147   2.896   0.443   4.650  0.1235  0.6737 -0.4085
 9219TIP3    H149148   2.981   0.471   4.682  0.2117  0.1345 -0.1575
 9219TIP3    H249149   2.846   0.524   4.640 -0.2179  0.8398  1.9817
 9220TIP3   OH249150   4.302   2.231   3.237 -0.0168 -0.5376 -0.2506
 9220TIP3    H149151   4.359   2.176   3.183 -0.6016  0.9354 -2.4722
 9220TIP3    H249152   4.214   2.210   3.209 -0.2784  1.0955 -0.7333
 9221TIP3   OH249153   2.335   0.851   1.812 -0.0490 -0.8561 -0.4447
 9221TIP3    H149154   2.286   0.795   1.871  0.1149 -0.6922 -0.1499
 9221TIP3    H249155   2.271   0.916   1.782  0.3131  0.2346  1.0612
 9222TIP3   OH249156   5.759   1.097   4.052 -0.2673 -0.3168 -0.1366
 9222TIP3    H149157   5.846   1.063   4.033 -0.8934 -1.1055 -1.8810
 9222TIP3    H249158   5.774   1.184   4.089  1.3122 -1.4736  2.1523
 9223TIP3   OH249159   2.052   0.574  13.384  0.0431 -0.1782  0.0418
 9223TIP3    H149160   2.018   0.526  13.307 -0.8122  0.5822 -0.0772
 9223TIP3    H249161   2.137   0.607  13.356 -1.0170  1.6309 -1.2670
 9224TIP3   OH249162   0.364   2.147   3.851 -0.3364 -0.5414  0.6535
 9224TIP3    H149163   0.371   2.057   3.817 -2.8431 -0.6650  0.2642
 9224TIP3    H249164   0.413   2.200   3.788 -0.6534 -1.4126 -0.3694
 9225TIP3   OH249165   6.117   3.654  12.372  0.7235 -0.4192  0.2922
 9225TIP3    H149166   6.139   3.704  12.293  2.0012 -1.4240 -0.0229
 9225TIP3    H249167   6.172   3.693  12.440 -0.3983  0.4644  0.7183
 9226TIP3   OH249168   4.180   2.877  11.803  0.0108 -0.2720 -0.2831
 9226TIP3    H149169   4.236   2.806  11.833 -0.5167 -0.9959 -0.9835
 9226TIP3    H249170   4.237   2.928  11.745 -0.6685 -2.4770 -3.1162
 9227TIP3   OH249171   0.339   2.981   1.369  0.6839 -0.2451 -0.2919
 9227TIP3    H149172   0.403   3.041   1.407  1.7699 -2.0314  0.8908
 9227TIP3    H249173   0.282   2.957   1.442 -1.5130  1.4047 -1.3506
 9228TIP3   OH249174   5.710   1.003   4.910 -0.5113 -0.1012 -0.0060
 9228TIP3    H149175   5.801   1.011   4.937 -1.1000  0.9303  1.8340
 9228TIP3    H249176   5.680   0.921   4.951 -0.7047  0.1665  0.4060
 9229TIP3   OH249177   3.247   3.334   1.302  0.4576  0.2219 -0.5158
 9229TIP3    H149178   3.248   3.415   1.354 -0.8969  1.1806 -1.8821
 9229TIP3    H249179   3.289   3.358   1.219  0.2669 -0.5502 -0.8437
 9230TIP3   OH249180   2.031   2.502  15.832 -0.4243 -0.2856 -0.5713
 9230TIP3    H149181   2.050   2.434  15.897 -0.4339 -2.0918 -2.3597
 9230TIP3    H249182   2.118   2.531  15.803 -0.4231  0.1087 -0.1861
 9231TIP3   OH249183   2.026   5.911   5.786 -0.0574 -0.2652  0.3493
 9231TIP3    H149184   2.004   5.994   5.828 -0.1640 -0.0626 -0.1047
 9231TIP3    H249185   1.998   5.844   5.849 -0.7036  0.0211  0.3707
 9232TIP3   OH249186   2.515   1.698   5.964  0.0481 -0.4889 -1.0208
 9232TIP3    H149187   2.485   1.643   6.037  0.9444  0.8736  0.4314
 9232TIP3    H249188   2.515   1.639   5.889 -0.7250 -2.0021  0.1028
 9233TIP3   OH249189   5.368   4.085  15.159  0.4165 -0.4824  0.2480
 9233TIP3    H149190   5.426   4.041  15.222  0.9529  0.3184  0.3178
 9233TIP3    H249191   5.316   4.013  15.122  0.3613 -1.0190  1.3102
 9234TIP3   OH249192   4.903   0.808   1.294 -0.1845  0.0231 -0.4290
 9234TIP3    H149193   4.965   0.819   1.365 -1.7717 -0.6617  1.1387
 9234TIP3    H249194   4.932   0.870   1.227  1.6852  0.2855  0.5590
 9235TIP3   OH249195   4.417   3.506  17.153 -0.2309  0.6411  0.3247
 9235TIP3    H149196   4.485   3.532  17.215  1.0621 -0.1013 -0.7328
 9235TIP3    H249197   4.403   3.413  17.169  0.3931  0.3450 -0.6926
 9236TIP3   OH249198   4.690   1.550   2.332  0.2849 -0.1750 -0.4384
 9236TIP3    H149199   4.785   1.539   2.330  0.2394 -0.7428  0.2270
 9236TIP3    H249200   4.677   1.642   2.358  0.6607 -0.6354  1.4971
 9237TIP3   OH249201   4.303   4.287   5.799  0.2156  0.2737  0.1866
 9237TIP3    H149202   4.272   4.211   5.848  1.0889  0.3090  0.8064
 9237TIP3    H249203   4.237   4.300   5.731 -0.3637 -0.5374  0.5812
 9238TIP3   OH249204   3.747   4.802   5.429 -0.1694 -0.1773  0.4272
 9238TIP3    H149205   3.714   4.714   5.443  1.2128 -1.5256 -3.4828
 9238TIP3    H249206   3.672   4.851   5.395  0.2757 -1.5585 -2.8016
 9239TIP3   OH249207   5.937   6.511  14.068 -0.1336  0.2536  0.0756
 9239TIP3    H149208   5.977   6.441  14.120 -0.2803  0.5461  0.5864
 9239TIP3    H249209   5.866   6.467  14.020 -0.4818  0.1171  0.6955
 9240TIP3   OH249210   1.483   5.507   0.286 -0.1681  0.0605 -0.7760
 9240TIP3    H149211   1.531   5.583   0.255 -0.6844  0.3536 -0.8680
 9240TIP3    H249212   1.506   5.499   0.378 -1.1602  1.1380 -0.4249
 9241TIP3   OH249213   5.438   1.629   5.239  0.1488  0.1593 -0.1407
 9241TIP3    H149214   5.504   1.688   5.203 -0.9444  1.7458  0.3039
 9241TIP3    H249215   5.379   1.687   5.288 -1.3316 -1.2336 -0.1821
 9242TIP3   OH249216   6.071   3.930  10.807 -0.3879  0.1428  0.4523
 9242TIP3    H149217   6.008   3.965  10.870 -2.1962  1.7536 -2.0468
 9242TIP3    H249218   6.102   4.007  10.758  1.2938 -0.9757 -0.3517
 9243TIP3   OH249219   5.936   6.073   5.063  0.3050 -0.0869 -0.1864
 9243TIP3    H149220   5.918   6.054   5.155  0.5483 -0.5187 -0.2211
 9243TIP3    H249221   5.913   6.165   5.052 -2.3723 -0.7001 -0.3428
 9244TIP3   OH249222   6.613   3.596  12.799 -0.0250  0.5329 -0.2332
 9244TIP3    H149223   6.528   3.572  12.836  1.2210 -0.3545  2.3615
 9244TIP3    H249224   6.625   3.687  12.825 -0.4633  0.8769 -1.2154
 9245TIP3   OH249225   1.293   2.304   4.272 -0.7128 -0.2870  0.2378
 9245TIP3    H149226   1.332   2.239   4.214 -0.4392  0.8473 -0.8685
 9245TIP3    H249227   1.309   2.269   4.360  0.7144 -0.9909 -0.2743
 9246TIP3   OH249228   4.218   0.373  11.948  0.0228 -0.1865 -0.4348
 9246TIP3    H149229   4.191   0.412  12.031 -0.8467 -0.1516 -0.7173
 9246TIP3    H249230   4.265   0.443  11.902  0.3528 -0.1517 -0.0467
 9247TIP3   OH249231   0.426   2.494  16.117  0.1475 -0.0543 -0.2169
 9247TIP3    H149232   0.474   2.558  16.064  0.0139  0.4713  0.2822
 9247TIP3    H249233   0.349   2.542  16.148 -1.1491 -1.1153 -1.6531
 9248TIP3   OH249234   5.328   5.055  11.687  0.2718  0.2038  0.1732
 9248TIP3    H149235   5.372   5.139  11.703  0.1459  0.8854 -2.5948
 9248TIP3    H249236   5.382   5.013  11.619 -1.0077 -0.8614 -0.2174
 9249TIP3   OH249237   0.651   1.930   0.592  0.7066  0.8813 -0.1884
 9249TIP3    H149238   0.567   1.937   0.548  0.3442 -0.9631  0.1157
 9249TIP3    H249239   0.716   1.938   0.522  0.3019  2.3035 -0.4251
 9250TIP3   OH249240   3.775   1.122   6.255 -0.9004 -0.0393  0.2987
 9250TIP3    H149241   3.786   1.215   6.239 -0.7197 -0.3655 -1.8600
 9250TIP3    H249242   3.854   1.095   6.302 -1.4119  1.0353  1.8387
 9251TIP3   OH249243   6.413   4.626  16.368  0.1023  0.8942 -0.1485
 9251TIP3    H149244   6.336   4.663  16.325 -0.4152 -0.8888 -0.8543
 9251TIP3    H249245   6.393   4.633  16.462 -0.3063  1.6550 -0.2765
 9252TIP3   OH249246   5.470   5.546  16.858 -0.1069  0.2507  0.2969
 9252TIP3    H149247   5.492   5.597  16.781 -0.4507  0.0138  0.0392
 9252TIP3    H249248   5.547   5.491  16.873 -0.6119 -0.8114 -0.7933
 9253TIP3   OH249249   2.162   2.212  15.027  0.0195  0.3170  0.1031
 9253TIP3    H149250   2.109   2.280  15.068  1.1400  2.7803 -2.2204
 9253TIP3    H249251   2.108   2.181  14.954 -0.0901 -0.6355  0.5741
 9254TIP3   OH249252   4.640   1.325  13.454 -0.3401 -0.1331  0.2183
 9254TIP3    H149253   4.643   1.401  13.396  0.2355 -0.0122  0.3916
 9254TIP3    H249254   4.548   1.302  13.460 -0.3877 -0.2969 -0.9299
 9255TIP3   OH249255   1.518   5.659   1.858 -0.4094 -0.0669  0.1855
 9255TIP3    H149256   1.498   5.737   1.910  0.0006 -0.3902  0.8414
 9255TIP3    H249257   1.432   5.629   1.827 -0.4141  1.7700 -1.7570
 9256TIP3   OH249258   6.767   1.948  16.943 -0.1879 -0.0389  0.0589
 9256TIP3    H149259   6.766   1.852  16.947 -2.0080 -0.0063  2.7122
 9256TIP3    H249260   6.748   1.968  16.851 -0.9502 -2.2293 -0.3160
 9257TIP3   OH249261   5.890   5.790  12.004  0.2079  0.1619 -0.7131
 9257TIP3    H149262   5.842   5.729  11.947 -1.7087  1.2948 -0.4049
 9257TIP3    H249263   5.840   5.871  12.000  2.3672  1.5609 -0.6340
 9258TIP3   OH249264   1.657   5.100   4.283  0.0898 -0.4091  0.4260
 9258TIP3    H149265   1.692   5.067   4.366  1.3138 -0.0507  0.0666
 9258TIP3    H249266   1.730   5.096   4.222  0.2719  2.7107  0.2851
 9259TIP3   OH249267   2.052   2.226   5.495 -0.3194 -0.6663 -0.1067
 9259TIP3    H149268   2.056   2.134   5.469  0.1084 -0.1573 -1.9808
 9259TIP3    H249269   1.976   2.231   5.553  0.3761 -2.4054  1.0674
 9260TIP3   OH249270   5.235   3.635  16.932  0.1732 -0.3104 -0.0930
 9260TIP3    H149271   5.279   3.619  17.016 -0.4712 -1.7810 -0.0196
 9260TIP3    H249272   5.176   3.709  16.950 -0.9162 -1.4350  1.1265
 9261TIP3   OH249273   6.382   2.090  16.840  0.0411  0.4248  0.2647
 9261TIP3    H149274   6.419   2.091  16.928  0.4276  0.8307  0.0999
 9261TIP3    H249275   6.414   2.008  16.802  1.4043  1.1004 -0.1316
 9262TIP3   OH249276   6.548   5.757  12.752  0.4402  0.2336  0.2415
 9262TIP3    H149277   6.567   5.802  12.670 -0.4441 -0.6430 -0.4690
 9262TIP3    H249278   6.515   5.825  12.811  0.1932  0.7035 -0.4375
 9263TIP3   OH249279   5.039   1.193   5.433 -0.5344  0.0115  0.0572
 9263TIP3    H149280   5.042   1.098   5.426  0.9581 -0.0174  0.7530
 9263TIP3    H249281   5.046   1.225   5.343 -0.0557 -0.5221 -0.0976
 9264TIP3   OH249282   0.087   4.615   3.720 -0.3553  0.2607  0.0003
 9264TIP3    H149283   0.006   4.662   3.739 -0.6663 -0.4168  0.3867
 9264TIP3    H249284   0.060   4.524   3.708  0.2282  0.1836 -0.8114
 9265TIP3   OH249285   4.708   2.899   3.110  0.8961  0.7960 -0.6507
 9265TIP3    H149286   4.667   2.985   3.117 -0.5033  0.1340 -0.0714
 9265TIP3    H249287   4.758   2.902   3.029  1.5358  2.4004 -0.2281
 9266TIP3   OH249288   3.915   5.507   5.306 -0.3229  0.1547 -0.0539
 9266TIP3    H149289   3.930   5.417   5.280 -0.1651  0.5354 -1.3656
 9266TIP3    H249290   3.999   5.538   5.340 -0.2526 -0.0464 -0.0471
 9267TIP3   OH249291   6.789   3.087  11.534  0.0767  0.7310 -0.4873
 9267TIP3    H149292   6.855   3.157  11.536  0.3456  0.4745  0.3721
 9267TIP3    H249293   6.747   3.096  11.449 -0.0924  2.1194 -0.2817
 9268TIP3   OH249294   2.727   6.616   3.399 -0.5155 -0.4729  0.2656
 9268TIP3    H149295   2.761   6.639   3.485  0.6917 -0.1385 -0.2679
 9268TIP3    H249296   2.708   6.700   3.357 -1.3478 -0.6401  0.2968
 9269TIP3   OH249297   5.102   4.216  16.443 -0.1489 -0.7116  0.1691
 9269TIP3    H149298   5.100   4.312  16.440 -0.0621 -0.7144 -0.0101
 9269TIP3    H249299   5.063   4.189  16.360  1.2603 -0.8122 -0.4928
 9270TIP3   OH249300   0.323   5.578  13.671 -0.6181 -0.2786  0.4087
 9270TIP3    H149301   0.401   5.524  13.673 -0.5752 -0.2683 -0.4170
 9270TIP3    H249302   0.251   5.518  13.690 -0.6788 -0.8697 -1.4733
 9271TIP3   OH249303   1.416   0.825  16.447  0.1433  0.0348  0.1432
 9271TIP3    H149304   1.430   0.866  16.361  0.3106  0.1312  0.2164
 9271TIP3    H249305   1.323   0.801  16.447  0.5534 -1.7808 -0.8764
 9272TIP3   OH249306   3.257   0.497  16.019 -0.2247 -0.2612  0.4065
 9272TIP3    H149307   3.180   0.440  16.024 -1.5536  1.4773  1.0025
 9272TIP3    H249308   3.242   0.563  16.087  2.3601 -0.4718  1.2973
 9273TIP3   OH249309   3.964   4.761  11.426 -0.7493  0.0489  0.0099
 9273TIP3    H149310   3.970   4.667  11.445  1.6351 -0.1356 -1.1963
 9273TIP3    H249311   3.913   4.765  11.345 -0.9241 -0.1952  0.1058
 9274TIP3   OH249312   3.723   5.113  12.739  0.0442 -0.0993  0.3572
 9274TIP3    H149313   3.800   5.160  12.772 -0.6160 -0.1924  2.1268
 9274TIP3    H249314   3.651   5.174  12.751 -0.4586 -0.7205  0.4924
 9275TIP3   OH249315   6.332   6.095   3.713  0.1285  0.8532 -0.2038
 9275TIP3    H149316   6.238   6.115   3.717  0.1609  1.1329 -0.7698
 9275TIP3    H249317   6.339   6.007   3.749 -0.1823  1.3442  1.1403
 9276TIP3   OH249318   2.011   2.360   2.664  0.4751 -0.0090  0.0154
 9276TIP3    H149319   1.968   2.401   2.589  1.0857  0.1233 -0.2635
 9276TIP3    H249320   1.961   2.279   2.679 -2.2555  1.8709  2.0271
 9277TIP3   OH249321   0.839   5.527   5.026 -0.4828 -0.5118 -0.5254
 9277TIP3    H149322   0.821   5.593   4.959 -0.8219  0.0177  0.0692
 9277TIP3    H249323   0.891   5.574   5.092 -0.9661 -0.7565  0.0415
 9278TIP3   OH249324   3.009   4.468  13.526  0.5319  0.4147  0.2163
 9278TIP3    H149325   2.917   4.495  13.531  0.1468 -0.6084 -0.9349
 9278TIP3    H249326   3.008   4.376  13.550  1.1623  0.2171 -0.4980
 9279TIP3   OH249327   0.666   3.034  16.472 -0.0232 -0.2487  0.3533
 9279TIP3    H149328   0.710   2.982  16.539 -0.7379 -0.4098  0.7121
 9279TIP3    H249329   0.729   3.040  16.401 -0.6071 -3.3900 -0.5907
 9280TIP3   OH249330   2.199   0.967   2.532  0.0435  0.2829 -0.1166
 9280TIP3    H149331   2.184   0.879   2.497  1.3497 -0.2079  0.4988
 9280TIP3    H249332   2.156   0.967   2.617  0.6429  0.0029  0.1874
 9281TIP3   OH249333   2.865   3.635  11.347 -0.0901  0.0610  0.0117
 9281TIP3    H149334   2.773   3.614  11.332 -0.3081 -0.3313  1.6905
 9281TIP3    H249335   2.901   3.557  11.389  0.9682  0.2881 -0.4330
 9282TIP3   OH249336   5.736   4.274   2.330 -0.0278  0.1700 -0.2367
 9282TIP3    H149337   5.782   4.357   2.343  2.0677 -0.9584 -0.0607
 9282TIP3    H249338   5.663   4.278   2.392 -0.1029  1.9639 -0.3875
 9283TIP3   OH249339   0.905   0.345  12.027  0.0974  0.5003 -0.1733
 9283TIP3    H149340   0.990   0.384  12.008 -0.1342  0.4957 -1.2453
 9283TIP3    H249341   0.843   0.398  11.978 -0.4475  0.0731  0.0469
 9284TIP3   OH249342   3.440   0.573   0.850 -0.2626 -0.6342 -0.1889
 9284TIP3    H149343   3.439   0.632   0.775  0.8175  1.4716  1.3531
 9284TIP3    H249344   3.369   0.604   0.906  1.0040 -0.0503  1.1488
 9285TIP3   OH249345   6.006   0.585  11.984  0.2730 -0.2281 -0.0588
 9285TIP3    H149346   5.962   0.553  11.905 -0.2339  1.5594 -0.5514
 9285TIP3    H249347   5.943   0.572  12.054  0.3633 -0.9560 -0.0992
 9286TIP3   OH249348   4.378   3.369   1.188  0.6866 -0.4597 -0.4414
 9286TIP3    H149349   4.296   3.372   1.237  0.3114 -2.6377 -0.8017
 9286TIP3    H249350   4.369   3.436   1.120 -0.4021 -0.0381  0.1039
 9287TIP3   OH249351   5.601   3.582  14.147 -0.2297 -0.1311 -0.1423
 9287TIP3    H149352   5.613   3.531  14.067  1.8812  0.0623 -0.0073
 9287TIP3    H249353   5.528   3.540  14.192 -0.2176 -1.4144 -1.2683
 9288TIP3   OH249354   6.453   1.820   5.631  0.5174 -0.1869 -0.1506
 9288TIP3    H149355   6.466   1.836   5.538 -1.5894  2.7613 -0.0863
 9288TIP3    H249356   6.507   1.886   5.674  0.4344 -0.6393  0.6616
 9289TIP3   OH249357   0.005   6.747   1.776 -0.9541  0.1216  0.3918
 9289TIP3    H149358   0.019   6.806   1.702 -0.9407  1.1361  1.1802
 9289TIP3    H249359   0.021   6.801   1.853 -0.1536 -1.1235  1.1318
 9290TIP3   OH249360   0.044   1.053  13.727 -0.5516 -0.2438 -0.3560
 9290TIP3    H149361   0.080   1.086  13.645  0.2595 -1.2607 -0.4353
 9290TIP3    H249362   0.121   1.033  13.781 -1.0678  1.1660  0.9869
 9291TIP3   OH249363   3.804   5.711  16.179  0.0286 -0.0174  0.1712
 9291TIP3    H149364   3.746   5.698  16.254  0.3152  1.3141  0.6520
 9291TIP3    H249365   3.849   5.793  16.197  0.2384  0.2499 -1.3870
 9292TIP3   OH249366   6.318   5.914  14.576  0.3155 -0.2337  0.0038
 9292TIP3    H149367   6.410   5.891  14.590  0.2609  0.2046  1.1294
 9292TIP3    H249368   6.320   6.005  14.548  0.1121  0.4105  1.9918
 9293TIP3   OH249369   1.290   2.201  11.291  0.1909 -0.3743 -0.0090
 9293TIP3    H149370   1.340   2.275  11.258  0.1038 -0.4371 -0.2860
 9293TIP3    H249371   1.236   2.173  11.217 -0.1411 -0.4039  0.2411
 9294TIP3   OH249372   4.363   5.592  11.309  0.2658  0.2937  0.1766
 9294TIP3    H149373   4.427   5.658  11.337 -1.0061  1.8112 -0.3403
 9294TIP3    H249374   4.400   5.554  11.230  0.2276  1.6555 -0.5105
 9295TIP3   OH249375   6.062   5.885  14.661 -0.1674  0.3500 -0.6143
 9295TIP3    H149376   6.157   5.887  14.650 -0.0481  0.9978  0.3911
 9295TIP3    H249377   6.049   5.895  14.755 -1.2887  2.8853 -0.9611
 9296TIP3   OH249378   4.633   6.358  12.109 -0.1582  0.5844  0.0900
 9296TIP3    H149379   4.554   6.366  12.162  0.5959 -0.6427  1.4792
 9296TIP3    H249380   4.679   6.283  12.146  1.4382  0.9781 -0.9967
 9297TIP3   OH249381   3.236   1.390   1.902  0.3260  0.6576 -0.3262
 9297TIP3    H149382   3.185   1.428   1.830  0.4134 -0.2975 -0.9045
 9297TIP3    H249383   3.234   1.457   1.970  1.9880  2.5373 -1.9781
 9298TIP3   OH249384   1.857   2.376  11.122  0.2821  0.7227  0.2068
 9298TIP3    H149385   1.942   2.419  11.114 -0.4889  2.3202  0.1431
 9298TIP3    H249386   1.796   2.447  11.140 -0.9448 -0.4763  1.0096
 9299TIP3   OH249387   0.967   1.948   4.054  0.2032 -0.0160 -0.9009
 9299TIP3    H149388   0.949   2.020   3.993 -1.5806 -0.0258 -0.4384
 9299TIP3    H249389   1.033   1.895   4.010 -0.9439  0.0388 -2.7754
 9300TIP3   OH249390   1.450   4.082  13.379 -0.2635 -0.3168  0.1758
 9300TIP3    H149391   1.444   4.021  13.306  1.3291 -1.7920  1.1927
 9300TIP3    H249392   1.511   4.040  13.440 -1.9076  0.5800  2.6002
 9301TIP3   OH249393   0.558   2.826   3.739 -0.0760  0.5153  0.5460
 9301TIP3    H149394   0.535   2.765   3.669 -1.0586  0.0651  1.2386
 9301TIP3    H249395   0.653   2.836   3.732 -0.0044 -0.4639 -0.0827
 9302TIP3   OH249396   2.415   2.985  16.084 -0.1500  0.6546  0.2464
 9302TIP3    H149397   2.333   2.987  16.036  0.9105  1.4683 -1.6381
 9302TIP3    H249398   2.477   3.032  16.028  1.4834  0.5227  1.8413
 9303TIP3   OH249399   4.546   0.753   2.345  0.1615 -1.0062 -0.1759
 9303TIP3    H149400   4.558   0.830   2.401 -1.4853 -0.9277  0.1280
 9303TIP3    H249401   4.520   0.789   2.261  1.6218 -1.1672 -0.7173
 9304TIP3   OH249402   1.776   2.470   1.486 -0.2261  0.2337  0.4695
 9304TIP3    H149403   1.773   2.377   1.463  0.9591 -0.1288  1.6490
 9304TIP3    H249404   1.735   2.474   1.573 -0.9245  0.9425  0.1207
 9305TIP3   OH249405   0.008   0.460   1.933  0.1950 -0.0218 -0.2715
 9305TIP3    H149406   0.062   0.482   2.009  1.4597 -1.7704 -0.5959
 9305TIP3    H249407  -0.060   0.402   1.967 -0.3016  0.5955 -0.1970
 9306TIP3   OH249408   0.047   0.411  16.281 -0.4455 -0.4727 -0.2141
 9306TIP3    H149409  -0.031   0.366  16.315 -1.1124  0.1474 -0.8738
 9306TIP3    H249410   0.039   0.405  16.186  0.2321 -0.2560 -0.2888
 9307TIP3   OH249411   3.275   2.297   3.853 -0.0123 -0.1443 -0.0209
 9307TIP3    H149412   3.264   2.256   3.767  0.4256  0.1459 -0.2235
 9307TIP3    H249413   3.277   2.391   3.834 -0.0288 -0.0761  0.3196
 9308TIP3   OH249414   5.491   4.469  13.707 -0.3186 -0.0202 -0.1921
 9308TIP3    H149415   5.414   4.526  13.699 -0.2501  0.0582 -0.3049
 9308TIP3    H249416   5.459   4.382  13.682 -0.9985 -0.5252  2.2136
 9309TIP3   OH249417   0.719   1.634   2.769  0.4468  0.0686  0.0355
 9309TIP3    H149418   0.629   1.616   2.796  0.6709 -1.0964  0.0561
 9309TIP3    H249419   0.748   1.705   2.826 -0.5487  0.6374 -0.1590
 9310TIP3   OH249420   6.008   3.394  11.720  0.1448 -0.6620  0.3115
 9310TIP3    H149421   6.023   3.464  11.783 -2.1897  0.5346 -0.3782
 9310TIP3    H249422   6.004   3.437  11.635  1.4815 -2.0353 -0.5159
 9311TIP3   OH249423   4.837   6.377   4.825  0.0594  0.2911  0.7672
 9311TIP3    H149424   4.747   6.409   4.819  0.5570  1.9362  1.5283
 9311TIP3    H249425   4.864   6.366   4.734 -0.8666 -0.1415  0.5265
 9312TIP3   OH249426   5.778   6.118   1.967  0.4802 -0.0312 -0.6236
 9312TIP3    H149427   5.757   6.026   1.953  0.9909 -0.3082  0.3365
 9312TIP3    H249428   5.826   6.144   1.889 -0.6029 -0.2692 -1.3871
 9313TIP3   OH249429   1.812   4.427   5.520 -0.1383 -0.7712  0.6181
 9313TIP3    H149430   1.887   4.420   5.461  1.0182  1.8233  1.6134
 9313TIP3    H249431   1.849   4.410   5.607 -0.7830  0.1360  1.0804
 9314TIP3   OH249432   4.659   1.797   4.546  0.0517 -0.2251 -0.0861
 9314TIP3    H149433   4.751   1.811   4.567 -0.3025 -1.3970  2.7359
 9314TIP3    H249434   4.659   1.720   4.489  0.7947 -0.8182  0.6862
 9315TIP3   OH249435   0.120   5.192   0.676 -0.1583  0.4508  0.2810
 9315TIP3    H149436   0.091   5.114   0.628 -0.4978 -0.8168  2.4113
 9315TIP3    H249437   0.040   5.243   0.690 -0.5661 -0.5323  1.7716
 9316TIP3   OH249438   0.585   5.668  12.142 -0.2225  0.4764 -0.3695
 9316TIP3    H149439   0.592   5.588  12.193  2.3958 -0.8538 -2.5909
 9316TIP3    H249440   0.670   5.710  12.150  0.3083  0.2405 -3.4113
 9317TIP3   OH249441   4.153   5.591   5.479  0.0004 -0.1978  0.7472
 9317TIP3    H149442   4.212   5.666   5.493 -1.4358  1.0440  0.4163
 9317TIP3    H249443   4.212   5.516   5.473  1.5012  0.8865  1.1283
 9318TIP3   OH249444   6.512   4.765   1.951  0.1324 -0.0175  0.3162
 9318TIP3    H149445   6.430   4.784   1.997 -0.9641 -0.8549 -1.1998
 9318TIP3    H249446   6.537   4.849   1.913  0.5291  0.4613  1.5588
 9319TIP3   OH249447   6.313   2.705  12.927 -0.6134  0.4970  0.2556
 9319TIP3    H149448   6.408   2.704  12.931 -0.4137  1.5645 -2.2044
 9319TIP3    H249449   6.286   2.622  12.965  1.4260 -0.6551 -0.6515
 9320TIP3   OH249450   3.042   4.586   2.031  0.0359 -0.5521  0.1576
 9320TIP3    H149451   3.117   4.623   2.077  0.4729 -0.7713 -0.3827
 9320TIP3    H249452   2.969   4.643   2.056  0.6643  0.5791 -0.5261
 9321TIP3   OH249453   1.725   2.918  11.048 -0.5085 -0.2538 -0.2774
 9321TIP3    H149454   1.773   2.882  10.973  1.6799 -0.4726  1.1487
 9321TIP3    H249455   1.642   2.870  11.048 -0.5086 -0.3453 -2.4495
 9322TIP3   OH249456   1.949   3.517   1.267  0.5295  0.1695 -0.4268
 9322TIP3    H149457   2.037   3.532   1.232  0.4139 -0.6165 -1.0823
 9322TIP3    H249458   1.898   3.485   1.193 -0.5273  1.3205 -0.2441
 9323TIP3   OH249459   5.554   3.213  10.630  0.1888  0.4498 -0.5209
 9323TIP3    H149460   5.638   3.222  10.584  0.3778  1.2799 -0.0202
 9323TIP3    H249461   5.489   3.214  10.560  0.6067 -0.6070 -0.9481
 9324TIP3   OH249462   1.776   0.932  15.734 -0.0011  0.4430  0.3198
 9324TIP3    H149463   1.694   0.891  15.704 -1.3067  0.3663  3.5963
 9324TIP3    H249464   1.843   0.865  15.720 -1.0970 -0.7366  0.5057
 9325TIP3   OH249465   6.575   5.199   1.386 -0.9718  0.2617 -0.1420
 9325TIP3    H149466   6.651   5.255   1.371 -0.8445 -0.2325 -1.4792
 9325TIP3    H249467   6.565   5.150   1.305  0.4699 -3.5301  1.7167
 9326TIP3   OH249468   6.233   1.033  13.710  0.6955 -0.7112  0.0874
 9326TIP3    H149469   6.238   1.097  13.639 -2.4234 -0.3591  0.0602
 9326TIP3    H249470   6.275   1.076  13.785  1.7986 -0.1109 -0.8403
 9327TIP3   OH249471   5.180   4.241   3.087  0.1380 -0.1933 -0.1552
 9327TIP3    H149472   5.168   4.317   3.030  0.6305 -1.2244 -1.6837
 9327TIP3    H249473   5.272   4.243   3.111  0.8995 -1.8595 -2.5921
 9328TIP3   OH249474   5.543   6.705   2.150  0.0068  0.3992 -0.6444
 9328TIP3    H149475   5.512   6.782   2.197  2.8186  2.0649 -1.3084
 9328TIP3    H249476   5.610   6.667   2.206  0.3652 -0.1182 -1.3974
 9329TIP3   OH249477   1.600   5.833   5.919  0.0974  0.2492 -0.1661
 9329TIP3    H149478   1.505   5.825   5.907  0.2027 -0.0616 -0.8271
 9329TIP3    H249479   1.623   5.914   5.875  0.3477 -0.4141 -1.2777
 9330TIP3   OH249480   1.747   6.472   1.423 -0.3282 -0.2228  0.1192
 9330TIP3    H149481   1.791   6.537   1.478 -1.0607 -0.2959  0.7972
 9330TIP3    H249482   1.666   6.514   1.395  0.6590  0.3431 -2.0652
 9331TIP3   OH249483   3.557   0.524  13.529 -0.3291 -0.6556 -0.1136
 9331TIP3    H149484   3.578   0.530  13.436  0.4377 -1.3704 -0.0060
 9331TIP3    H249485   3.592   0.439  13.556 -0.6414 -0.5096  0.8018
 9332TIP3   OH249486   6.718   1.515  14.952 -0.1409 -0.1623 -0.1998
 9332TIP3    H149487   6.770   1.453  14.902 -2.9446  0.1119 -3.8578
 9332TIP3    H249488   6.657   1.461  15.002 -0.4374 -0.4376 -0.8434
 9333TIP3   OH249489   4.062   6.725  13.734  0.4950 -0.0726  0.1113
 9333TIP3    H149490   3.974   6.694  13.756  0.3199 -0.2914 -0.8420
 9333TIP3    H249491   4.087   6.675  13.656  0.5308  1.5714 -0.9993
 9334TIP3   OH249492   0.834   3.766   3.744  0.1468  0.2820  0.1694
 9334TIP3    H149493   0.805   3.836   3.803 -0.3642  0.3149 -0.1106
 9334TIP3    H249494   0.868   3.812   3.667 -0.2863  0.2235 -0.0590
 9335TIP3   OH249495   3.216   4.572   3.053  0.1352 -0.1257 -0.2860
 9335TIP3    H149496   3.171   4.654   3.035 -0.9619 -0.8027 -0.7384
 9335TIP3    H249497   3.148   4.515   3.089  1.1305 -0.4756  1.1631
 9336TIP3   OH249498   3.522   5.995  11.366 -0.4059 -0.0502  0.0231
 9336TIP3    H149499   3.592   6.059  11.372  1.1588 -1.5691 -1.0005
 9336TIP3    H249500   3.530   5.942  11.446 -0.6253 -0.0032  0.0782
 9337TIP3   OH249501   4.988   0.088   1.548 -0.3087 -0.2432  0.8172
 9337TIP3    H149502   4.946   0.132   1.474  2.1309  0.5823 -0.1772
 9337TIP3    H249503   4.951  -0.000   1.547  1.1921 -1.0272 -2.8654
 9338TIP3   OH249504   6.483   0.719   2.319  0.4536  0.5502 -0.2323
 9338TIP3    H149505   6.564   0.669   2.306 -0.1128 -0.2442 -0.7166
 9338TIP3    H249506   6.500   0.802   2.275  1.0196  0.4078 -0.3013
 9339TIP3   OH249507   3.331   4.570   5.850  0.0093  0.1613  0.4084
 9339TIP3    H149508   3.358   4.508   5.917 -0.6682 -0.0267  0.5210
 9339TIP3    H249509   3.304   4.648   5.899 -1.9788 -0.5302  0.4942
 9340TIP3   OH249510   5.466   5.640  14.354 -0.4266  0.2424 -0.1985
 9340TIP3    H149511   5.548   5.625  14.307  0.2182  0.8944  0.6720
 9340TIP3    H249512   5.489   5.706  14.420 -1.7124  0.6022 -0.0938
 9341TIP3   OH249513   0.915   0.916   5.440 -0.2714 -0.4978  0.6290
 9341TIP3    H149514   0.954   0.972   5.507 -1.9736  1.3485  0.1982
 9341TIP3    H249515   0.986   0.899   5.378  0.0699  2.4733  0.0350
 9342TIP3   OH249516   0.911   5.460   2.906 -0.5509  0.3125 -0.5233
 9342TIP3    H149517   0.873   5.532   2.856 -0.4210  1.7399  1.3460
 9342TIP3    H249518   0.838   5.400   2.920 -0.9859  0.7295 -0.9448
 9343TIP3   OH249519   5.127   2.389   5.657 -0.3775 -0.1707  0.9658
 9343TIP3    H149520   5.046   2.370   5.608 -0.8737 -0.0128  1.7004
 9343TIP3    H249521   5.112   2.475   5.695  0.1323 -0.1526  1.1286
 9344TIP3   OH249522   1.951   4.930  13.309 -0.4646  0.1286 -0.3665
 9344TIP3    H149523   1.887   4.926  13.380  0.0036 -0.8186  0.0317
 9344TIP3    H249524   1.976   5.022  13.304 -0.6639  0.2410  0.5638
 9345TIP3   OH249525   0.885   2.196  15.186  0.3833 -0.1014 -0.0063
 9345TIP3    H149526   0.975   2.165  15.178  0.3995 -0.0961  0.1685
 9345TIP3    H249527   0.875   2.220  15.278 -0.6390 -2.7142  0.6706
 9346TIP3   OH249528   2.152   1.166  15.590 -0.3996 -0.2819  0.0567
 9346TIP3    H149529   2.122   1.161  15.681 -1.0504 -0.9610 -0.1802
 9346TIP3    H249530   2.078   1.204  15.543 -1.0161 -2.1387 -0.5703
 9347TIP3   OH249531   5.557   2.215   5.274  0.2177 -0.5660 -0.2747
 9347TIP3    H149532   5.563   2.274   5.199 -1.9529  1.1132  0.7606
 9347TIP3    H249533   5.555   2.272   5.350  0.5374 -2.1258  0.9572
 9348TIP3   OH249534   1.416   1.370   0.145 -1.0038 -0.5152  0.0406
 9348TIP3    H149535   1.401   1.300   0.081 -1.0253  0.4775 -1.0602
 9348TIP3    H249536   1.497   1.345   0.189 -0.3241 -0.6153 -1.2164
 9349TIP3   OH249537   6.327   3.565   5.708  0.5652  0.3452  0.1526
 9349TIP3    H149538   6.234   3.552   5.693  1.0977 -2.1616 -1.6082
 9349TIP3    H249539   6.360   3.599   5.625  1.3289  0.7293  0.5971
 9350TIP3   OH249540   4.475   2.904  15.804  0.3164  0.1708  0.1272
 9350TIP3    H149541   4.549   2.846  15.819  0.5826  0.4309 -0.1492
 9350TIP3    H249542   4.492   2.979  15.861  0.4599  0.3964 -0.2069
 9351TIP3   OH249543   0.446   2.634  15.055 -0.1552  0.3551 -0.0840
 9351TIP3    H149544   0.461   2.728  15.050 -0.0573  0.3141 -0.6476
 9351TIP3    H249545   0.373   2.624  15.116  0.7733  0.7001  1.1378
 9352TIP3   OH249546   3.872   3.255  12.463 -0.1471 -0.6483 -0.2223
 9352TIP3    H149547   3.783   3.272  12.433 -0.2387  0.4968  0.6229
 9352TIP3    H249548   3.884   3.312  12.538  1.1275 -1.1763  0.0193
 9353TIP3   OH249549   1.439   4.579   3.038 -0.5420  0.6224  0.4214
 9353TIP3    H149550   1.444   4.615   3.126 -0.0848  1.0605  0.2208
 9353TIP3    H249551   1.530   4.568   3.011 -0.6347  2.3881 -0.7546
 9354TIP3   OH249552   3.238   0.246  13.963 -0.7788  0.1590  0.5884
 9354TIP3    H149553   3.280   0.281  14.041 -0.4021  1.1403 -0.0312
 9354TIP3    H249554   3.214   0.323  13.911 -2.2767 -0.4203  0.3582
 9355TIP3   OH249555   4.867   4.218  12.345  0.1855  0.4154 -0.6245
 9355TIP3    H149556   4.890   4.197  12.436 -1.4638 -0.3455 -0.3421
 9355TIP3    H249557   4.815   4.143  12.316  0.9005  0.5311 -2.3069
 9356TIP3   OH249558   6.622   5.219  15.331 -0.2710 -0.0327 -0.3381
 9356TIP3    H149559   6.715   5.221  15.308 -0.6554 -0.8378 -2.0758
 9356TIP3    H249560   6.621   5.243  15.424  1.7148 -0.5814 -0.1160
 9357TIP3   OH249561   5.599   2.607  13.253  0.0203  0.2853 -0.8471
 9357TIP3    H149562   5.689   2.612  13.222 -0.3808 -1.8997 -2.6741
 9357TIP3    H249563   5.552   2.673  13.203  0.3487  0.3863 -1.0248
 9358TIP3   OH249564   0.238   0.876  14.948 -0.2258 -0.4346 -0.0894
 9358TIP3    H149565   0.225   0.814  15.020  1.2638  1.4165  1.9119
 9358TIP3    H249566   0.178   0.847  14.880 -0.8783 -2.9754  1.4447
 9359TIP3   OH249567   3.552   1.286  11.417 -0.6619  0.1448 -0.0824
 9359TIP3    H149568   3.548   1.341  11.495 -0.9275 -1.3264  0.9795
 9359TIP3    H249569   3.490   1.326  11.356 -2.2712 -0.0255  1.3739
 9360TIP3   OH249570   1.110   3.180  15.235 -0.1836 -0.2397 -0.3328
 9360TIP3    H149571   1.162   3.231  15.297 -1.1934  1.0902 -0.5476
 9360TIP3    H249572   1.102   3.235  15.158  1.4164 -2.0446 -1.8980
 9361TIP3   OH249573   1.168   6.743  15.428  0.2147  1.0613 -0.6748
 9361TIP3    H149574   1.162   6.772  15.337  1.1351  0.5314 -0.9133
 9361TIP3    H249575   1.179   6.648  15.423  1.2540  1.1348 -0.0483
 9362TIP3   OH249576   5.584   2.038   1.572  0.3742 -0.0273  0.2857
 9362TIP3    H149577   5.637   2.087   1.508 -0.8271  1.3557  0.3116
 9362TIP3    H249578   5.589   1.948   1.541  1.0110  0.3925 -0.9424
 9363TIP3   OH249579   5.115   6.560   0.892 -0.0283  0.4218  0.3880
 9363TIP3    H149580   5.040   6.507   0.917 -1.5119  2.0459 -0.4645
 9363TIP3    H249581   5.078   6.643   0.862  2.0397  0.8861 -1.0889
 9364TIP3   OH249582   3.621   3.930   6.508  0.2913 -0.1040  0.3536
 9364TIP3    H149583   3.550   3.869   6.527  0.0627  0.4429  1.3274
 9364TIP3    H249584   3.681   3.921   6.582 -0.6373  2.1011  1.4913
 9365TIP3   OH249585   4.791   2.509  13.592 -0.6223  0.0610 -0.0023
 9365TIP3    H149586   4.762   2.588  13.548 -0.8706 -0.3916 -0.6721
 9365TIP3    H249587   4.722   2.490  13.656 -1.1002 -0.2071 -0.5877
 9366TIP3   OH249588   5.573   6.661   6.349  0.5946 -0.2195  0.1363
 9366TIP3    H149589   5.510   6.695   6.285 -0.0552 -1.7947 -0.1121
 9366TIP3    H249590   5.575   6.727   6.418 -2.7831 -0.8986  1.0665
 9367TIP3   OH249591   3.447   6.224   6.266  0.2507  0.1221  0.3195
 9367TIP3    H149592   3.358   6.192   6.281  0.0638 -0.4970 -1.8802
 9367TIP3    H249593   3.502   6.146   6.270  0.4393  0.2260 -0.1898
 9368TIP3   OH249594   1.671   4.141  11.142 -0.1734 -0.3870  0.6161
 9368TIP3    H149595   1.721   4.122  11.063  0.0529  1.2064  0.3442
 9368TIP3    H249596   1.606   4.071  11.147  2.1891 -2.7018  1.1270
 9369TIP3   OH249597   4.012   6.286  12.930  0.0626  0.3992  0.2168
 9369TIP3    H149598   3.984   6.256  12.844  0.4867 -0.4220  0.3587
 9369TIP3    H249599   3.942   6.258  12.989  0.6564 -0.7378  0.4141
 9370TIP3   OH249600   5.573   1.701  12.386 -0.4981  0.0833 -0.5029
 9370TIP3    H149601   5.616   1.645  12.321  1.5610  2.8640 -1.7530
 9370TIP3    H249602   5.622   1.686  12.467  1.4048  1.3740 -1.3180
 9371TIP3   OH249603   2.119   1.998   1.548  0.1766  0.8359 -1.0355
 9371TIP3    H149604   2.040   2.048   1.570 -0.0957 -0.2996  0.7436
 9371TIP3    H249605   2.181   2.019   1.618  0.2157 -0.9082 -0.5008
 9372TIP3   OH249606   3.861   3.944   1.802  0.0049 -0.0444  0.5013
 9372TIP3    H149607   3.862   3.923   1.708  0.5062 -2.7937  1.0293
 9372TIP3    H249608   3.952   3.933   1.830 -0.1642  0.6179  1.3651
 9373TIP3   OH249609   1.862   3.664  10.601 -0.1020  0.7492  0.1643
 9373TIP3    H149610   1.836   3.667  10.509  1.9731  1.9247 -0.4473
 9373TIP3    H249611   1.780   3.648  10.648 -1.5911  2.3501 -1.6996
 9374TIP3   OH249612   6.078   1.040   0.055 -0.0492  0.1420 -0.2239
 9374TIP3    H149613   6.055   1.118   0.004  0.0377 -0.5899 -1.4143
 9374TIP3    H249614   6.154   1.004   0.010  1.2131  0.4962  1.5295
 9375TIP3   OH249615   3.628   6.533   6.103 -0.1689  0.1691  0.4390
 9375TIP3    H149616   3.568   6.460   6.088 -0.1158  0.1275  0.4261
 9375TIP3    H249617   3.660   6.557   6.016  1.6359 -1.3474  0.6006
 9376TIP3   OH249618   4.362   0.775  11.682  0.0617 -0.3342  0.3895
 9376TIP3    H149619   4.385   0.867  11.672  0.6911 -0.3027  1.8676
 9376TIP3    H249620   4.424   0.728  11.626  0.7487  0.0627  0.7961
 9377TIP3   OH249621   6.000   6.049   4.559 -0.0608  0.4381  0.5883
 9377TIP3    H149622   5.969   6.041   4.469 -0.8708 -1.4733  0.9713
 9377TIP3    H249623   5.931   6.008   4.612  0.6651  0.9712  2.0214
 9378TIP3   OH249624   4.972   3.503  16.996  0.7635  0.1214 -0.3168
 9378TIP3    H149625   5.056   3.458  16.996  1.0022  0.4697  1.7089
 9378TIP3    H249626   4.993   3.591  16.965  1.0337  0.0336 -0.3916
 9379TIP3   OH249627   2.802   3.077   0.178  0.0276 -0.6099  0.5359
 9379TIP3    H149628   2.896   3.061   0.181  0.6000  2.1474 -0.2213
 9379TIP3    H249629   2.790   3.163   0.217 -2.0413 -0.3609 -0.4856
 9380TIP3   OH249630   0.370   2.676   2.101 -0.3467 -0.3157 -0.6466
 9380TIP3    H149631   0.294   2.703   2.049 -0.5520  1.8533  0.6246
 9380TIP3    H249632   0.417   2.614   2.045 -2.1779 -0.4674 -2.1210
 9381TIP3   OH249633   5.698   6.476   6.189  0.4062  0.2307  0.2518
 9381TIP3    H149634   5.653   6.542   6.241  1.1661  1.5521 -0.7121
 9381TIP3    H249635   5.791   6.489   6.210  0.6162 -0.0702 -0.4690
 9382TIP3   OH249636   4.981   4.014  15.908  0.2335  0.5983  0.0294
 9382TIP3    H149637   5.057   4.005  15.966 -1.7086 -0.8772  2.5247
 9382TIP3    H249638   5.018   4.009  15.819  2.9199 -1.3471  1.1209
 9383TIP3   OH249639   0.568   2.143   2.866  0.2361 -0.1515 -0.2767
 9383TIP3    H149640   0.542   2.140   2.774 -0.1538 -0.7571 -0.1603
 9383TIP3    H249641   0.556   2.053   2.897 -1.4737  0.4040  0.8496
 9384TIP3   OH249642   4.232   0.530   3.094  0.0470  0.1860  0.7878
 9384TIP3    H149643   4.156   0.582   3.118 -0.2291 -1.5163  4.1199
 9384TIP3    H249644   4.198   0.466   3.031 -1.2703 -0.3473  1.9878
 9385TIP3   OH249645   5.127   2.342   3.684 -0.5810 -0.3670  0.5952
 9385TIP3    H149646   5.061   2.409   3.665 -1.6995 -0.7054  3.0018
 9385TIP3    H249647   5.188   2.347   3.609 -3.9698 -0.9609 -2.4754
 9386TIP3   OH249648   4.229   1.238  14.547  0.1857 -0.9201  0.0917
 9386TIP3    H149649   4.260   1.328  14.555  2.4573 -1.6508  0.1755
 9386TIP3    H249650   4.186   1.220  14.631  2.6745 -0.9208  1.4598
 9387TIP3   OH249651   0.496   6.530   1.151 -0.4475  0.7125 -0.1927
 9387TIP3    H149652   0.513   6.469   1.223 -1.1844  1.9600  1.0834
 9387TIP3    H249653   0.582   6.545   1.112 -0.3828 -2.0412 -1.3600
 9388TIP3   OH249654   1.187   5.651  12.365 -0.0980 -0.0955  0.0183
 9388TIP3    H149655   1.144   5.727  12.327  1.1717  0.5311 -0.2021
 9388TIP3    H249656   1.267   5.686  12.405  1.6095 -1.5923 -1.9246
 9389TIP3   OH249657   2.396   3.486   0.718 -0.2760  0.0699  0.2937
 9389TIP3    H149658   2.426   3.397   0.704  0.4516  0.2623  0.6039
 9389TIP3    H249659   2.421   3.506   0.808  0.8602  1.0794 -0.2141
 9390TIP3   OH249660   0.180   3.007  14.320 -0.9688 -0.3501 -0.3251
 9390TIP3    H149661   0.086   3.018  14.304 -0.8987 -0.9200 -1.2249
 9390TIP3    H249662   0.221   3.083  14.279 -0.9341 -0.8563 -1.2518
 9391TIP3   OH249663   6.085   5.643   1.865  0.8906  0.1605 -0.4012
 9391TIP3    H149664   6.139   5.655   1.787  0.0686 -1.3868 -1.2576
 9391TIP3    H249665   5.995   5.647   1.833  0.5420 -0.7878  0.3911
 9392TIP3   OH249666   5.308   1.852   1.601  0.1386  0.0961 -0.0102
 9392TIP3    H149667   5.245   1.785   1.576  0.0858  0.0782  0.1712
 9392TIP3    H249668   5.302   1.918   1.532 -0.2854  0.2324  0.1587
 9393TIP3   OH249669   0.603   4.223   2.776 -0.0194  0.3035 -0.1346
 9393TIP3    H149670   0.628   4.313   2.798 -0.4171  0.2948  0.3621
 9393TIP3    H249671   0.686   4.180   2.753  0.2625  0.6095  0.2938
 9394TIP3   OH249672   4.605   3.783  11.948  0.2759 -0.9101 -0.1604
 9394TIP3    H149673   4.530   3.759  11.895  0.6864 -1.7719 -0.3748
 9394TIP3    H249674   4.584   3.870  11.983 -0.3391 -0.6763 -1.0869
 9395TIP3   OH249675   0.182   3.295   3.230 -1.2315  0.4507 -0.3536
 9395TIP3    H149676   0.117   3.349   3.185 -1.1621  0.1397 -0.8324
 9395TIP3    H249677   0.246   3.273   3.162  0.2399  2.0426  0.4288
 9396TIP3   OH249678   0.953   5.837  16.937 -0.7082  0.4512 -0.0860
 9396TIP3    H149679   0.889   5.848  17.007  1.5390 -0.6472  2.3348
 9396TIP3    H249680   1.002   5.758  16.962  1.5318  1.2107 -1.7803
 9397TIP3   OH249681   4.072   1.349  11.566  0.4488  0.0249 -0.3767
 9397TIP3    H149682   4.060   1.255  11.553  0.9582 -0.7899  3.7742
 9397TIP3    H249683   4.167   1.362  11.563  0.5792 -0.1711  1.7013
 9398TIP3   OH249684   0.116   3.604  15.080  0.2479  0.2457  0.3461
 9398TIP3    H149685   0.067   3.617  14.999 -1.0775 -0.5498  0.9785
 9398TIP3    H249686   0.077   3.665  15.142  1.4720  1.0854  0.3412
 9399TIP3   OH249687   2.177   5.316  15.331 -0.2285  0.3773  0.1134
 9399TIP3    H149688   2.259   5.306  15.283  0.0719 -0.3106  0.7486
 9399TIP3    H249689   2.152   5.227  15.355 -1.1360  0.5834 -0.0237
 9400TIP3   OH249690   1.885   0.236  14.525  0.1101 -0.2972  0.0120
 9400TIP3    H149691   1.821   0.167  14.505  0.9017 -0.5606 -1.7684
 9400TIP3    H249692   1.946   0.235  14.452  1.5657  0.6789  1.1473
 9401TIP3   OH249693   3.365   4.982   5.101 -0.0547 -0.6003  0.0530
 9401TIP3    H149694   3.393   5.040   5.030  0.0618 -0.9395 -0.1759
 9401TIP3    H249695   3.425   5.001   5.173  1.2248 -1.8100 -0.6485
 9402TIP3   OH249696   3.853   3.187   3.667  0.1265  0.4954  0.6024
 9402TIP3    H149697   3.758   3.189   3.675 -0.0463  0.3716 -1.0429
 9402TIP3    H249698   3.871   3.119   3.602  1.2613  1.2615  0.0682
 9403TIP3   OH249699   0.902   1.389   2.368  0.3428  0.5691  0.4642
 9403TIP3    H149700   0.873   1.477   2.341 -0.6099 -0.0773 -0.7456
 9403TIP3    H249701   0.997   1.391   2.359  0.2847  1.3114 -0.1064
 9404TIP3   OH249702   3.695   1.600  15.558  0.2903 -0.1156 -0.3194
 9404TIP3    H149703   3.655   1.580  15.642  0.7302  0.9490  0.1571
 9404TIP3    H249704   3.769   1.656  15.579  3.4105 -3.6008 -0.9409
 9405TIP3   OH249705   4.055   0.155  15.910 -0.5852 -0.0679 -0.4790
 9405TIP3    H149706   4.115   0.167  15.983  1.3375 -2.8226 -1.4509
 9405TIP3    H249707   4.062   0.236  15.859  1.0637  0.3122  0.2951
 9406TIP3   OH249708   1.790   0.574   1.875  0.1468  0.3117 -0.0740
 9406TIP3    H149709   1.782   0.499   1.816 -1.2209  0.3097  0.0835
 9406TIP3    H249710   1.720   0.562   1.938 -0.2488  1.8540 -0.1903
 9407TIP3   OH249711   3.508   5.136  17.179  0.3274  0.3683 -0.0798
 9407TIP3    H149712   3.539   5.227  17.182  0.1869  0.3818  1.5049
 9407TIP3    H249713   3.587   5.084  17.170  0.4845  0.5993 -0.0543
 9408TIP3   OH249714   1.354   4.716  13.762  0.1571 -0.0838  0.6764
 9408TIP3    H149715   1.365   4.805  13.795 -2.3290  0.1758  0.9612
 9408TIP3    H249716   1.362   4.661  13.840  2.2628 -0.2117  0.4186
 9409TIP3   OH249717   4.597   1.249   0.002  0.1544  0.3086 -0.5179
 9409TIP3    H149718   4.663   1.218   0.063  0.2184 -2.3993 -1.8171
 9409TIP3    H249719   4.564   1.330   0.041  2.7985  0.6929  1.1428
 9410TIP3   OH249720   1.880   0.935  13.512 -0.1317  0.9447 -0.0938
 9410TIP3    H149721   1.918   0.850  13.488  0.5381  0.3374  2.6740
 9410TIP3    H249722   1.793   0.934  13.473 -0.3348 -1.2670  0.2407
 9411TIP3   OH249723   3.524   6.140   5.560 -0.4982 -0.1765 -0.0199
 9411TIP3    H149724   3.475   6.128   5.479 -0.0535 -1.5615 -0.1188
 9411TIP3    H249725   3.459   6.129   5.629 -0.5609 -0.8021 -0.1700
 9412TIP3   OH249726   3.623   4.682  13.535 -0.0154  0.0726 -0.0629
 9412TIP3    H149727   3.701   4.727  13.503  0.4840 -0.8322 -0.1432
 9412TIP3    H249728   3.571   4.665  13.456  0.5904 -0.9698 -0.2569
 9413TIP3   OH249729   1.872   4.672   4.544 -0.3740  0.0979  0.2922
 9413TIP3    H149730   1.946   4.705   4.594 -0.8524  1.0508  0.4058
 9413TIP3    H249731   1.802   4.661   4.609 -0.5533 -0.0756  0.0713
 9414TIP3   OH249732   2.013   2.615  15.458 -0.0108  0.1766 -0.1028
 9414TIP3    H149733   1.989   2.642  15.370  1.3584  0.6315 -0.3416
 9414TIP3    H249734   2.006   2.519  15.456  0.7530  0.1302 -0.9315
 9415TIP3   OH249735   1.463   2.101   3.385  0.0857  0.3909 -0.7207
 9415TIP3    H149736   1.466   2.171   3.320  1.2842  1.1255  0.0688
 9415TIP3    H249737   1.478   2.021   3.335  0.3446  0.8701 -1.4328
 9416TIP3   OH249738   4.686   5.473   6.123  0.2042  0.1870 -0.0569
 9416TIP3    H149739   4.698   5.435   6.210  1.2215  0.4868 -0.0482
 9416TIP3    H249740   4.641   5.556   6.140  0.4183  0.2550  0.1983
 9417TIP3   OH249741   6.014   4.517  16.104 -0.3244 -0.1517  0.4694
 9417TIP3    H149742   6.079   4.493  16.038  2.3986 -0.0027  2.8979
 9417TIP3    H249743   5.963   4.437  16.116 -0.8288 -0.2029 -1.6803
 9418TIP3   OH249744   2.881   1.268   0.179 -0.3677  0.5388  0.1419
 9418TIP3    H149745   2.951   1.312   0.131  0.1190  1.6416  1.7893
 9418TIP3    H249746   2.916   1.181   0.198 -0.5149  0.1291 -1.3070
 9419TIP3   OH249747   2.421   2.012   2.070 -0.4243  0.2774  0.6652
 9419TIP3    H149748   2.408   2.072   2.143  1.8240  0.2595  1.1461
 9419TIP3    H249749   2.516   2.004   2.062 -0.6420 -1.2575 -1.0089
 9420TIP3   OH249750   3.711   3.472   0.476 -0.2997  0.2299  0.1802
 9420TIP3    H149751   3.758   3.553   0.458 -2.3733  1.2164 -1.1858
 9420TIP3    H249752   3.776   3.415   0.516  1.6010  2.0388 -0.1581
 9421TIP3   OH249753   3.397   2.944  16.606  0.1123  0.0636 -0.0289
 9421TIP3    H149754   3.405   2.862  16.558 -0.3161  0.0922 -0.1459
 9421TIP3    H249755   3.373   2.917  16.695 -2.9099  0.1656 -0.7231
 9422TIP3   OH249756   5.954   3.073  15.016  0.4518 -0.0644  0.0502
 9422TIP3    H149757   5.920   3.094  15.103  1.3320  0.5099  0.2713
 9422TIP3    H249758   6.005   3.150  14.991 -0.4666  0.1190 -1.3374
 9423TIP3   OH249759   6.642   4.669  16.903 -0.2035  0.4280 -0.0624
 9423TIP3    H149760   6.735   4.647  16.909 -0.3443 -0.8768 -2.0158
 9423TIP3    H249761   6.641   4.763  16.884  0.7246  0.3636 -0.4709
 9424TIP3   OH249762   4.956   2.556   3.676 -0.0450  0.2409 -0.3697
 9424TIP3    H149763   4.934   2.568   3.768 -0.7491 -0.4606 -0.4378
 9424TIP3    H249764   4.872   2.537   3.634  0.5853 -2.0005 -0.7325
 9425TIP3   OH249765   1.369   0.321  10.260  0.3183  0.4455 -0.2302
 9425TIP3    H149766   1.464   0.315  10.256  0.2159 -1.0421 -2.3292
 9425TIP3    H249767   1.343   0.251  10.319  0.5418  2.1082  1.9573
 9426TIP3   OH249768   1.943   2.763  15.226  0.4471  0.0082  0.8963
 9426TIP3    H149769   1.852   2.793  15.234  0.3794 -0.4051  1.8310
 9426TIP3    H249770   1.960   2.763  15.132 -0.5456  0.0328  0.7044
 9427TIP3   OH249771   4.817   1.558   2.929 -0.2001  0.6924 -0.5027
 9427TIP3    H149772   4.728   1.536   2.956  0.3410 -2.5332 -0.9557
 9427TIP3    H249773   4.864   1.574   3.011 -0.6186 -0.1479 -0.0894
 9428TIP3   OH249774   2.058   0.041  13.873  0.2872 -0.3560 -0.9055
 9428TIP3    H149775   2.109   0.022  13.952 -1.0606  3.1338  1.0531
 9428TIP3    H249776   1.985  -0.021  13.875  0.5291 -0.6176  0.3490
 9429TIP3   OH249777   0.401   2.469   3.334  0.3717  0.2160  0.8445
 9429TIP3    H149778   0.476   2.410   3.332  0.8082  0.7661 -0.4058
 9429TIP3    H249779   0.396   2.503   3.244 -0.7111  1.0120  1.1915
 9430TIP3   OH249780   0.475   4.814   5.492 -0.3502  0.1377  0.2067
 9430TIP3    H149781   0.445   4.724   5.505  1.3620 -0.5456 -0.2375
 9430TIP3    H249782   0.541   4.807   5.423 -1.2753  1.9807 -0.9563
 9431TIP3   OH249783   1.865   5.522  10.358 -0.6645 -0.1839 -0.3245
 9431TIP3    H149784   1.903   5.436  10.374 -1.6977 -0.1975  2.8021
 9431TIP3    H249785   1.779   5.518  10.398 -0.9216  2.1696 -0.4872
 9432TIP3   OH249786   4.610   2.065   6.592 -0.2167 -0.2264  0.0914
 9432TIP3    H149787   4.628   2.159   6.586 -2.2968  0.1368 -1.7463
 9432TIP3    H249788   4.689   2.024   6.557 -0.3638  1.0152 -1.9023
 9433TIP3   OH249789   1.015   4.556   4.796 -0.6631  0.5289  0.3837
 9433TIP3    H149790   1.004   4.570   4.702 -2.4920  0.1241  0.5002
 9433TIP3    H249791   1.110   4.559   4.810 -0.4566  2.9289 -1.0849
 9434TIP3   OH249792   2.363   4.568   3.462  0.1227  0.0277 -0.1272
 9434TIP3    H149793   2.319   4.650   3.437  1.7719  1.4175  1.2161
 9434TIP3    H249794   2.297   4.519   3.510 -0.5988  1.0802 -0.0006
 9435TIP3   OH249795   0.336   1.424  12.238  0.5026 -0.2486 -0.1956
 9435TIP3    H149796   0.320   1.518  12.225  1.6033 -0.1931 -1.2820
 9435TIP3    H249797   0.303   1.407  12.327 -0.1737  1.0475 -0.1623
 9436TIP3   OH249798   5.835   5.650  15.162  0.1668 -0.0781  0.2511
 9436TIP3    H149799   5.848   5.713  15.091 -1.5254  0.7917  0.6787
 9436TIP3    H249800   5.772   5.587  15.127  1.5729 -1.3764 -0.0421
 9437TIP3   OH249801   3.481   5.755   2.907  0.1589 -0.2425 -0.8003
 9437TIP3    H149802   3.454   5.810   2.980  0.9534  0.0191 -0.6966
 9437TIP3    H249803   3.425   5.782   2.834  0.0579  0.2026 -0.5599
 9438TIP3   OH249804   6.478   3.136   0.518  0.0749 -0.3298  0.2136
 9438TIP3    H149805   6.397   3.147   0.469  0.0157  0.5556  0.4933
 9438TIP3    H249806   6.494   3.042   0.518 -1.3640 -0.5942  0.8144
 9439TIP3   OH249807   1.587   4.401   1.613  0.4282  0.3916  0.0590
 9439TIP3    H149808   1.527   4.328   1.595 -0.3645  0.7048  1.3112
 9439TIP3    H249809   1.551   4.443   1.691  1.3064  1.6656 -0.1909
 9440TIP3   OH249810   5.651   5.541  12.877  0.4357 -0.5602 -0.2720
 9440TIP3    H149811   5.584   5.595  12.834  0.0388 -0.8218  0.0050
 9440TIP3    H249812   5.734   5.571  12.841  0.4208  1.6444  1.3592
 9441TIP3   OH249813   1.307   6.807   0.575  0.2084 -0.1529 -0.7504
 9441TIP3    H149814   1.259   6.731   0.608 -0.0348  0.5143  0.4961
 9441TIP3    H249815   1.243   6.878   0.576  1.8206  1.6621  4.2654
 9442TIP3   OH249816   5.090   5.349  14.969 -0.2340 -0.2860  0.0560
 9442TIP3    H149817   5.051   5.345  15.056  1.1160 -1.5416  0.6383
 9442TIP3    H249818   5.161   5.413  14.977 -1.4070  1.1729 -0.7094
 9443TIP3   OH249819   4.338   2.161   5.901  0.0006  0.4834  0.3885
 9443TIP3    H149820   4.379   2.128   5.821  0.4991 -0.2516  0.9319
 9443TIP3    H249821   4.250   2.123   5.900 -0.0791  0.6728  0.0731
 9444TIP3   OH249822   2.818   3.983  16.959  0.0402 -0.0834 -0.5046
 9444TIP3    H149823   2.826   4.066  17.007 -1.0810  0.2988 -0.9350
 9444TIP3    H249824   2.873   3.995  16.881  1.2096 -0.3935  0.2545
 9445TIP3   OH249825   3.358   4.128  10.632  0.0086 -0.7108  0.5117
 9445TIP3    H149826   3.417   4.072  10.684  2.2384  2.3846  1.6243
 9445TIP3    H249827   3.322   4.190  10.695  0.2074  1.1141 -1.0727
 9446TIP3   OH249828   3.178   0.745  12.905  0.1394 -0.6487  0.8178
 9446TIP3    H149829   3.142   0.809  12.966  0.6343  0.2849  0.1628
 9446TIP3    H249830   3.114   0.741  12.834 -0.3095 -1.5387  1.2626
 9447TIP3   OH249831   3.065   2.872  14.449 -0.5359 -0.0282 -0.0219
 9447TIP3    H149832   3.000   2.890  14.518  0.3863  1.2994  0.5396
 9447TIP3    H249833   3.133   2.938  14.463  0.1592 -0.3764 -1.6029
 9448TIP3   OH249834   4.517   5.286  13.067  0.1683  0.5542 -0.2019
 9448TIP3    H149835   4.468   5.367  13.076 -0.8495 -0.0192 -0.4526
 9448TIP3    H249836   4.601   5.303  13.111 -0.9094  0.9731  1.7906
 9449TIP3   OH249837   1.106   4.421   5.228 -0.5949 -0.6916 -0.2479
 9449TIP3    H149838   1.084   4.413   5.135 -0.0421 -0.6413 -0.3852
 9449TIP3    H249839   1.133   4.333   5.254 -0.3661 -0.6158 -0.2330
 9450TIP3   OH249840   0.614   3.020  11.155 -0.4537 -0.1906 -0.7389
 9450TIP3    H149841   0.680   2.956  11.179 -3.4189 -2.9428  0.9415
 9450TIP3    H249842   0.623   3.030  11.060  1.1250 -1.9341 -0.8246
 9451TIP3   OH249843   4.060   3.119  15.185 -0.0121  0.0387 -0.4959
 9451TIP3    H149844   4.053   3.050  15.119  0.2113 -0.5915  0.1363
 9451TIP3    H249845   3.970   3.148  15.199 -0.1718 -0.5407 -0.3201
 9452TIP3   OH249846   0.778   3.820   5.547 -0.3235  0.0555  0.0886
 9452TIP3    H149847   0.726   3.745   5.517  0.7735  0.1290 -2.2045
 9452TIP3    H249848   0.723   3.896   5.531 -0.9276 -0.1291  1.1939
 9453TIP3   OH249849   0.360   5.129  12.036  0.1878 -0.1433 -0.0951
 9453TIP3    H149850   0.316   5.163  11.958  1.3188  0.2817 -0.5657
 9453TIP3    H249851   0.447   5.170  12.035  0.3595 -0.4243  1.1835
 9454TIP3   OH249852   1.777   0.325   0.445  0.3365 -0.0948 -0.1308
 9454TIP3    H149853   1.848   0.261   0.444 -1.0891 -1.7692  0.7253
 9454TIP3    H249854   1.710   0.289   0.387  0.3432  1.7134 -1.3433
 9455TIP3   OH249855   1.811   3.017   3.711 -0.0292 -0.7686  0.4721
 9455TIP3    H149856   1.717   3.029   3.696 -0.0794 -1.4816  0.1830
 9455TIP3    H249857   1.816   2.955   3.783  0.2275  0.5591  1.6485
 9456TIP3   OH249858   3.946   2.957   1.943 -0.3962  0.3140 -0.1884
 9456TIP3    H149859   3.863   2.910   1.953 -0.5351  0.7412  0.7984
 9456TIP3    H249860   4.009   2.907   1.995  0.2592 -0.6453 -1.8315
 9457TIP3   OH249861   6.148   3.480   4.497  0.4033 -0.7755 -0.0893
 9457TIP3    H149862   6.222   3.420   4.492 -0.3721 -1.9560  1.6668
 9457TIP3    H249863   6.173   3.544   4.564  0.2585 -0.5445 -0.2526
 9458TIP3   OH249864   4.030   1.773  14.185 -0.5850 -0.1481  0.2042
 9458TIP3    H149865   4.048   1.837  14.253 -2.0936 -0.3541  0.8347
 9458TIP3    H249866   3.989   1.822  14.115 -1.7354 -0.3703  0.6851
 9459TIP3   OH249867   0.839   1.608  12.093 -0.2129  0.0947 -0.4350
 9459TIP3    H149868   0.793   1.554  12.028 -0.8605  0.5904 -0.4023
 9459TIP3    H249869   0.831   1.697  12.060  0.7014  0.1968 -0.4026
 9460TIP3   OH249870   5.540   2.456   1.687 -0.7568 -0.2018  0.4445
 9460TIP3    H149871   5.482   2.531   1.684 -2.2854 -1.3525 -0.2818
 9460TIP3    H249872   5.608   2.475   1.622 -1.6916  0.1269 -0.4673
 9461TIP3   OH249873   1.560   1.704   5.262  0.7097 -0.4079 -0.6292
 9461TIP3    H149874   1.464   1.706   5.259  0.7054 -0.9401 -1.1661
 9461TIP3    H249875   1.587   1.770   5.198  0.6875 -0.6410 -0.8870
 9462TIP3   OH249876   5.579   5.222   4.996 -0.0248 -0.2488  0.6209
 9462TIP3    H149877   5.592   5.257   4.908 -2.5772  0.8036  0.5777
 9462TIP3    H249878   5.641   5.149   5.002  0.2267 -0.3603 -2.0521
 9463TIP3   OH249879   3.003   1.987   0.310  0.2138 -0.0483  0.1363
 9463TIP3    H149880   2.965   2.031   0.234 -2.1014 -3.2080 -0.7543
 9463TIP3    H249881   3.072   1.931   0.275 -1.0686 -1.7556  0.2239
 9464TIP3   OH249882   3.922   4.987  13.659 -0.3809 -0.1236 -0.9749
 9464TIP3    H149883   3.911   4.896  13.630 -0.2856 -0.9089  1.2786
 9464TIP3    H249884   3.870   4.994  13.739 -1.5841  2.2688 -1.8540
 9465TIP3   OH249885   6.048   5.407  11.316  0.6086  0.3565 -0.2940
 9465TIP3    H149886   5.968   5.398  11.265  0.7850  0.1577 -0.5442
 9465TIP3    H249887   6.099   5.328  11.294  2.2830  1.9310 -2.6545
 9466TIP3   OH249888   4.782   5.413  12.776 -0.4497 -0.3233 -0.0922
 9466TIP3    H149889   4.856   5.463  12.739  0.6896 -1.4894  0.5198
 9466TIP3    H249890   4.820   5.327  12.797 -1.9929 -0.9374  0.2743
 9467TIP3   OH249891   2.341   0.940   0.513 -0.3881  0.2319  0.1816
 9467TIP3    H149892   2.322   1.024   0.554  0.0033  0.1619  0.5150
 9467TIP3    H249893   2.269   0.883   0.538 -0.8881  0.5867 -0.4131
 9468TIP3   OH249894   3.925   5.145  14.725 -0.0447 -1.0084 -0.1050
 9468TIP3    H149895   3.887   5.080  14.783  0.5988 -0.0027  1.5113
 9468TIP3    H249896   4.001   5.102  14.686  0.0165 -1.4376  0.4754
 9469TIP3   OH249897   4.131   0.351   2.323 -0.5444 -0.1985 -0.2331
 9469TIP3    H149898   4.085   0.385   2.399 -0.9509 -0.7131 -0.2451
 9469TIP3    H249899   4.090   0.396   2.249 -0.6570 -0.2532 -0.2040
 9470TIP3   OH249900   5.112   5.091   6.101 -0.0612  0.0507 -0.4168
 9470TIP3    H149901   5.155   5.177   6.104 -1.0851  0.5517  2.2864
 9470TIP3    H249902   5.028   5.108   6.059 -1.1215  0.8845  1.8822
 9471TIP3   OH249903   2.385   0.978   0.860  0.0376 -0.1753 -0.6035
 9471TIP3    H149904   2.435   1.001   0.938  0.6329  0.1379 -1.0674
 9471TIP3    H249905   2.376   1.060   0.812 -1.7693 -0.0214 -0.0808
 9472TIP3   OH249906   0.388   3.376   0.984  0.0262 -0.1830  0.2688
 9472TIP3    H149907   0.391   3.467   1.015 -1.7174 -0.1877  0.5528
 9472TIP3    H249908   0.449   3.330   1.042  0.5845  0.7037  0.4212
 9473TIP3   OH249909   1.678   2.270   4.779  0.1113  0.1949  0.1318
 9473TIP3    H149910   1.642   2.353   4.809  1.1684  0.5682  0.4065
 9473TIP3    H249911   1.767   2.267   4.816  0.2637 -0.8252 -0.2773
 9474TIP3   OH249912   6.008   5.214   3.857 -0.1046  0.3086  0.1417
 9474TIP3    H149913   5.992   5.217   3.762  1.3459 -1.2292 -0.2115
 9474TIP3    H249914   6.055   5.131   3.870  1.5857  1.4764  1.9247
 9475TIP3   OH249915   5.605   3.350   4.774  0.4974 -0.6727  0.5452
 9475TIP3    H149916   5.638   3.392   4.694 -1.0032 -1.9102 -0.7887
 9475TIP3    H249917   5.553   3.418   4.818 -0.3357 -0.5459 -0.5986
 9476TIP3   OH249918   3.363   5.466  12.686  0.0057  0.1557  0.6550
 9476TIP3    H149919   3.394   5.376  12.680  0.9466  0.4402  1.1474
 9476TIP3    H249920   3.298   5.464  12.756  0.2650 -0.0674  0.8877
 9477TIP3   OH249921   4.767   6.580   5.030  0.2073 -0.1868  0.3404
 9477TIP3    H149922   4.761   6.609   4.939  4.7965 -2.5502 -1.0150
 9477TIP3    H249923   4.823   6.644   5.073  0.7911 -0.8219  0.5444
 9478TIP3   OH249924   0.273   5.969  10.979  0.2276  0.1856 -0.0530
 9478TIP3    H149925   0.263   5.888  11.030  1.0885 -0.1977 -0.4745
 9478TIP3    H249926   0.209   5.960  10.908  1.1926 -0.7249 -0.8313
 9479TIP3   OH249927   2.120   3.679   0.457 -0.2693  0.2776  0.2168
 9479TIP3    H149928   2.117   3.743   0.386  1.7321  0.6797  0.4325
 9479TIP3    H249929   2.140   3.731   0.535  2.6705 -0.6136  0.2059
 9480TIP3   OH249930   1.079   4.131   6.070 -0.1701 -0.5910 -0.1342
 9480TIP3    H149931   1.001   4.106   6.119 -1.2072 -0.4571 -1.6527
 9480TIP3    H249932   1.046   4.170   5.989  1.4406  1.7518  0.2233
 9481TIP3   OH249933   4.646   6.535   0.017 -0.0187 -0.0363  0.2607
 9481TIP3    H149934   4.615   6.447   0.042  2.0090 -0.7087  0.5597
 9481TIP3    H249935   4.655   6.531  -0.078 -0.2913 -0.0106  0.2315
 9482TIP3   OH249936   4.134   0.384   2.875  0.1301  0.5304  0.8060
 9482TIP3    H149937   4.063   0.345   2.927 -0.4695  1.6343  0.8391
 9482TIP3    H249938   4.128   0.341   2.790  0.2258 -0.2764  1.1945
 9483TIP3   OH249939   3.611   3.120   4.954 -0.0850  0.4322  0.4647
 9483TIP3    H149940   3.581   3.182   5.021 -0.5950 -0.1558  0.7944
 9483TIP3    H249941   3.596   3.165   4.871 -0.6736  0.6553  0.6872
 9484TIP3   OH249942   6.047   0.231  15.585  0.3513  0.2549  0.1281
 9484TIP3    H149943   6.115   0.183  15.537  0.6417  0.1478  0.6373
 9484TIP3    H249944   6.034   0.311  15.535  2.0219  1.0532  0.8685
 9485TIP3   OH249945   2.145   5.503   1.372  0.0446  0.1316  0.2979
 9485TIP3    H149946   2.177   5.575   1.318  2.5799 -0.1242  1.2758
 9485TIP3    H249947   2.160   5.425   1.319  1.3176 -0.0038  0.8196
 9486TIP3   OH249948   0.540   5.437  14.620 -0.1377 -0.1348  0.3660
 9486TIP3    H149949   0.502   5.478  14.697 -1.4329 -0.6299  0.0121
 9486TIP3    H249950   0.559   5.347  14.647 -2.4732 -0.9448 -0.3944
 9487TIP3   OH249951   0.779   0.639   4.634  0.4583  0.3117 -0.0091
 9487TIP3    H149952   0.846   0.611   4.571 -0.1129  1.5375 -1.2148
 9487TIP3    H249953   0.743   0.719   4.596 -2.3329 -0.7799  0.1488
 9488TIP3   OH249954   1.831   5.082  13.523 -0.0493  0.2507  0.1579
 9488TIP3    H149955   1.771   5.140  13.570  0.1464  0.3043  0.3435
 9488TIP3    H249956   1.851   5.129  13.441  0.6284  0.7566  0.5966
 9489TIP3   OH249957   0.573   1.477   0.029  0.4050 -0.3152 -0.5004
 9489TIP3    H149958   0.656   1.463   0.074 -0.3677  0.2606  1.1831
 9489TIP3    H249959   0.558   1.571   0.035  0.1210 -0.2766 -1.6918
 9490TIP3   OH249960   3.292   2.143   1.314  0.0117  0.1985 -0.3211
 9490TIP3    H149961   3.252   2.205   1.375  0.2416 -0.7836  0.8718
 9490TIP3    H249962   3.381   2.177   1.301  1.0751 -1.2111  2.4474
 9491TIP3   OH249963   3.432   2.739  11.210 -0.5965  0.2770  0.2739
 9491TIP3    H149964   3.436   2.657  11.259 -2.2330  0.1992  0.3391
 9491TIP3    H249965   3.346   2.737  11.168 -0.2448  1.5048 -0.5516
 9492TIP3   OH249966   4.138   3.141   4.149 -0.3522 -0.6724  0.0556
 9492TIP3    H149967   4.183   3.099   4.222 -2.3310 -0.7668  1.3197
 9492TIP3    H249968   4.124   3.231   4.178  1.0555  0.0256 -1.3098
 9493TIP3   OH249969   0.601   4.878   4.652 -0.0512 -0.5386  0.1922
 9493TIP3    H149970   0.629   4.787   4.658 -0.2844 -0.5194  2.2136
 9493TIP3    H249971   0.663   4.918   4.590  1.6205 -1.5153  1.1655
 9494TIP3   OH249972   0.441   5.052   2.019 -0.7980 -0.1889  0.3616
 9494TIP3    H149973   0.347   5.044   2.037 -0.7744 -1.4548  0.0109
 9494TIP3    H249974   0.447   5.047   1.923 -0.4527  0.8980  0.3218
 9495TIP3   OH249975   0.170   4.896  16.745  0.0432  0.0129 -0.6502
 9495TIP3    H149976   0.100   4.921  16.685  0.7871  0.9641 -1.1450
 9495TIP3    H249977   0.131   4.829  16.801 -0.9893 -0.1033 -1.4890
 9496TIP3   OH249978   6.608   5.234   0.527 -0.0043  0.1524  0.1436
 9496TIP3    H149979   6.616   5.152   0.478 -0.9806 -0.0378  0.2745
 9496TIP3    H249980   6.559   5.292   0.469  0.9083  0.7399 -0.0533
 9497TIP3   OH249981   4.203   0.135   0.694  0.8149  0.4097  0.8986
 9497TIP3    H149982   4.130   0.094   0.740  1.0808  0.8483  1.7366
 9497TIP3    H249983   4.212   0.084   0.613  1.3222 -1.3706  2.0261
 9498TIP3   OH249984   6.599   0.484  15.569 -0.3100 -0.3482  0.1703
 9498TIP3    H149985   6.657   0.498  15.494  0.3830 -0.4904  0.6682
 9498TIP3    H249986   6.614   0.393  15.594  0.2888  0.0078  1.1515
 9499TIP3   OH249987   2.423   0.684   2.260  0.3639  0.2770  0.1078
 9499TIP3    H149988   2.455   0.594   2.260  1.1428  0.5304  0.8374
 9499TIP3    H249989   2.485   0.731   2.204  0.9028  0.6415  0.9784
 9500TIP3   OH249990   0.681   4.296   2.367  0.2933 -0.1264 -0.1056
 9500TIP3    H149991   0.713   4.217   2.411  0.8121 -0.0899 -0.4087
 9500TIP3    H249992   0.654   4.267   2.281  0.3316 -0.0014 -0.1606
 9501TIP3   OH249993   4.587   5.755  13.797 -0.4993  0.4040  0.1668
 9501TIP3    H149994   4.617   5.690  13.734 -0.0062  0.4729  0.3314
 9501TIP3    H249995   4.636   5.834  13.776 -1.0707  0.7193 -0.0088
 9502TIP3   OH249996   5.480   5.909  15.561  0.6288  0.2152  0.2709
 9502TIP3    H149997   5.397   5.957  15.565  0.9809  0.7897  1.3198
 9502TIP3    H249998   5.546   5.977  15.552  0.9273 -0.3198 -2.2518
 9503TIP3   OH249999   1.490   1.839   5.576  0.3027  0.3607 -0.2968
 9503TIP3    H150000   1.583   1.863   5.581  0.3410  0.2377 -0.4244
 9503TIP3    H250001   1.490   1.744   5.568  0.1275  0.2620  0.8420
 9504TIP3   OH250002   4.449   2.254  15.055  0.3933  0.1082 -0.7870
 9504TIP3    H150003   4.405   2.218  14.978  1.9309 -0.7268 -1.3186
 9504TIP3    H250004   4.542   2.253  15.033  0.8998 -0.3258  1.1542
 9505TIP3   OH250005   3.146   6.218  15.794  0.1162 -0.0258  0.8433
 9505TIP3    H150006   3.177   6.128  15.801 -0.0570 -0.1045  0.6488
 9505TIP3    H250007   3.076   6.225  15.859  0.0901 -0.0529  0.8193
 9506TIP3   OH250008   5.766   3.069  14.625  0.0399 -0.4639  0.3561
 9506TIP3    H150009   5.736   3.005  14.690 -1.6851  0.6307  0.7005
 9506TIP3    H250010   5.693   3.078  14.564  2.3729 -3.1520 -3.2336
 9507TIP3   OH250011   0.169   4.218  16.204 -0.0279  0.4158 -0.4101
 9507TIP3    H150012   0.113   4.293  16.185 -0.7827 -0.1563 -0.5058
 9507TIP3    H250013   0.128   4.145  16.156  0.1408 -0.2568  0.4489
 9508TIP3   OH250014   5.957   3.070  15.599  0.9353 -0.4002 -0.1989
 9508TIP3    H150015   5.874   3.027  15.581  0.1142  1.3173 -0.7707
 9508TIP3    H250016   5.970   3.061  15.693  0.1303 -0.7403 -0.1166
 9509TIP3   OH250017   0.625   1.572   1.790  0.5836 -0.4495 -0.5676
 9509TIP3    H150018   0.711   1.589   1.751  1.1873 -0.4223  0.7183
 9509TIP3    H250019   0.594   1.492   1.746  0.6744  0.2436 -1.9513
 9510TIP3   OH250020   3.931   3.343  10.337  0.3782 -0.4279 -1.0176
 9510TIP3    H150021   3.904   3.435  10.327  0.7929 -0.2542 -0.5863
 9510TIP3    H250022   3.867   3.294  10.286 -0.2061  0.0548 -0.7708
 9511TIP3   OH250023   0.836   4.686   1.033 -0.6472 -0.7798  0.2332
 9511TIP3    H150024   0.741   4.680   1.026 -0.6447 -0.8706  0.2764
 9511TIP3    H250025   0.853   4.697   1.126 -0.8091  2.7993 -0.0060
 9512TIP3   OH250026   4.084   0.863   5.981 -0.0685  0.4580  0.1634
 9512TIP3    H150027   4.167   0.839   5.939 -0.0231  1.1162 -0.1363
 9512TIP3    H250028   4.099   0.845   6.074  0.9375  1.9274  0.3279
 9513TIP3   OH250029   2.927   0.995  11.852 -0.6107  0.0347 -0.0191
 9513TIP3    H150030   2.840   1.029  11.828 -0.2893  0.8867 -0.0240
 9513TIP3    H250031   2.915   0.960  11.940 -0.7531  1.0268  0.3718
 9514TIP3   OH250032   4.763   0.855  16.169 -0.2839 -0.1722  0.3020
 9514TIP3    H150033   4.750   0.764  16.196 -1.7141 -0.2016 -0.3746
 9514TIP3    H250034   4.705   0.906  16.226  0.8700  0.3808  1.0007
 9515TIP3   OH250035   3.592   2.573   6.125  0.4529 -0.6487  0.6328
 9515TIP3    H150036   3.532   2.518   6.074  0.6274 -0.3935  0.1388
 9515TIP3    H250037   3.633   2.512   6.186 -0.3500 -0.8176  1.0255
 9516TIP3   OH250038   1.125   0.287   3.142 -0.7589 -0.4477 -0.8352
 9516TIP3    H150039   1.170   0.370   3.156 -2.6527  0.8924 -2.3147
 9516TIP3    H250040   1.180   0.240   3.079  1.1323 -1.0962  1.1402
 9517TIP3   OH250041   1.327   0.175   3.845  0.1948 -0.3205 -0.5798
 9517TIP3    H150042   1.413   0.165   3.886  1.0561 -0.3213 -2.3329
 9517TIP3    H250043   1.286   0.248   3.892  1.2759 -0.0944  0.0326
 9518TIP3   OH250044   1.031   5.969   1.751  0.7527  0.1408  0.2695
 9518TIP3    H150045   0.980   5.899   1.710 -0.9367  1.2676  0.3586
 9518TIP3    H250046   1.120   5.954   1.720 -0.3406  0.8095 -3.7856
 9519TIP3   OH250047   6.553   0.344   2.640  0.5045 -0.7305 -0.1958
 9519TIP3    H150048   6.520   0.256   2.619  0.3404 -0.7974  0.3216
 9519TIP3    H250049   6.483   0.383   2.692  0.3540 -0.0979 -0.8594
 9520TIP3   OH250050   4.176   0.338   5.203 -0.3765  0.0655 -0.4541
 9520TIP3    H150051   4.119   0.328   5.279  0.6984  0.1369  0.3935
 9520TIP3    H250052   4.155   0.424   5.168 -0.2992  0.3969  0.2867
 9521TIP3   OH250053   2.904   0.040  12.571  0.5011  0.0597 -0.4225
 9521TIP3    H150054   2.870  -0.018  12.503  0.6746  0.8305 -1.1799
 9521TIP3    H250055   2.927  -0.019  12.643  1.0933 -0.8732 -1.3400
 9522TIP3   OH250056   4.487   0.005   2.455  0.0009  0.4068 -0.1152
 9522TIP3    H150057   4.520  -0.080   2.485  1.0400  0.9736  0.3595
 9522TIP3    H250058   4.480  -0.005   2.360 -1.1565 -0.6428  0.0464
 9523TIP3   OH250059   6.251   4.135  12.051 -0.5151  0.2482 -0.1085
 9523TIP3    H150060   6.289   4.066  11.997 -0.1326  0.7456 -0.4886
 9523TIP3    H250061   6.170   4.159  12.006 -1.5753 -1.1741  0.9826
 9524TIP3   OH250062   2.519   2.522   0.385 -0.1330 -0.3818  0.0255
 9524TIP3    H150063   2.468   2.462   0.330  0.5605  0.2488 -1.3488
 9524TIP3    H250064   2.453   2.573   0.433 -0.7356 -1.5695  0.4948
 9525TIP3   OH250065   2.872   3.116   2.262 -0.8733 -0.1668 -0.5694
 9525TIP3    H150066   2.792   3.163   2.240 -0.5620  0.2999 -0.7142
 9525TIP3    H250067   2.939   3.184   2.268 -0.9380 -0.2255  1.8966
 9526TIP3   OH250068   6.357   0.118  14.298  0.2405  0.6037 -0.5697
 9526TIP3    H150069   6.406   0.183  14.248 -1.0152 -0.1419 -2.8973
 9526TIP3    H250070   6.404   0.036  14.283  1.2921  0.7490  1.6050
 9527TIP3   OH250071   1.971   5.277   5.526  0.0850  0.0694  0.3738
 9527TIP3    H150072   2.007   5.262   5.613 -0.4956 -1.7999  0.3377
 9527TIP3    H250073   1.926   5.196   5.504  0.1397  0.5154 -1.6352
 9528TIP3   OH250074   0.712   5.410   5.604  0.0882  0.0071  0.6370
 9528TIP3    H150075   0.798   5.434   5.569 -0.4805  0.4904 -0.4836
 9528TIP3    H250076   0.719   5.316   5.620  0.5216 -0.1513 -0.3932
 9529TIP3   OH250077   1.323   2.820   0.471  0.0677  0.4024  0.0035
 9529TIP3    H150078   1.371   2.828   0.389  0.6079  2.0332  0.4383
 9529TIP3    H250079   1.350   2.735   0.506 -0.2808 -0.3690 -1.5532
 9530TIP3   OH250080   5.445   2.443  16.424  0.0551 -0.1235 -0.2242
 9530TIP3    H150081   5.439   2.535  16.396 -0.7526  0.0298  0.4093
 9530TIP3    H250082   5.515   2.442  16.489 -0.9396  0.3629  0.8985
 9531TIP3   OH250083   5.255   0.533   2.619  0.2144  0.6196  0.3391
 9531TIP3    H150084   5.236   0.499   2.706 -1.4409 -0.2045 -0.3051
 9531TIP3    H250085   5.232   0.462   2.560  1.7849  0.9812 -0.7803
 9532TIP3   OH250086   2.203   6.222  11.153 -0.5773  0.0375 -0.7083
 9532TIP3    H150087   2.173   6.301  11.107  1.8050  1.2434 -0.3108
 9532TIP3    H250088   2.254   6.175  11.087 -0.4196 -0.2288 -0.3951
 9533TIP3   OH250089   2.887   6.635  10.946 -0.8650  0.1836 -0.2013
 9533TIP3    H150090   2.878   6.609  10.855 -0.6889 -1.0125  0.1092
 9533TIP3    H250091   2.852   6.724  10.949  0.6894  0.8807 -1.7427
 9534TIP3   OH250092   3.121   0.151   4.201 -0.6006  0.0127  0.1330
 9534TIP3    H150093   3.055   0.184   4.141  0.2712  0.2165 -0.7373
 9534TIP3    H250094   3.189   0.113   4.145  1.1556  1.8916  0.8336
 9535TIP3   OH250095   5.043   0.708   2.242  0.0236  0.4200 -0.1263
 9535TIP3    H150096   5.105   0.769   2.202 -1.2448  1.9694  0.1292
 9535TIP3    H250097   4.965   0.762   2.259 -0.2019 -0.6055  2.6353
 9536TIP3   OH250098   5.155   5.365   1.541 -0.7400 -0.1376 -0.1657
 9536TIP3    H150099   5.246   5.354   1.513 -0.5306 -1.9675  1.0460
 9536TIP3    H250100   5.162   5.388   1.634 -1.5106  0.7136 -0.3103
 9537TIP3   OH250101   5.868   0.767   1.283 -0.7170  0.2877  0.3502
 9537TIP3    H150102   5.841   0.796   1.370 -1.2484  1.0553 -0.0629
 9537TIP3    H250103   5.786   0.742   1.240 -0.3922 -0.7536  0.2915
 9538TIP3   OH250104   3.426   2.848   0.145  0.1644 -0.0374  0.0807
 9538TIP3    H150105   3.460   2.909   0.079  0.8556  2.0849  2.2625
 9538TIP3    H250106   3.364   2.901   0.196 -1.9009 -2.1829 -0.0699
 9539TIP3   OH250107   6.028   5.588  13.303  0.1901 -0.4336  0.1792
 9539TIP3    H150108   6.118   5.619  13.294  0.1809 -0.9084 -2.2355
 9539TIP3    H250109   6.029   5.499  13.268 -0.5778 -1.8414  3.3768
 9540TIP3   OH250110   4.767   2.451  10.862  0.0822  0.2080 -0.0854
 9540TIP3    H150111   4.692   2.457  10.803 -0.8660 -0.6054  0.9865
 9540TIP3    H250112   4.763   2.531  10.914  1.6944  1.5809 -1.9273
 9541TIP3   OH250113   0.998   6.582   3.413  0.2549 -0.1778  0.4002
 9541TIP3    H150114   0.937   6.512   3.390  0.7118 -0.1400 -1.0367
 9541TIP3    H250115   0.964   6.618   3.495 -0.4573 -1.5195  0.7168
 9542TIP3   OH250116   4.891   1.972   2.317 -0.3422  0.6845 -0.0318
 9542TIP3    H150117   4.859   2.062   2.325 -0.5961  0.5039  1.3388
 9542TIP3    H250118   4.848   1.925   2.389  0.6587 -0.2663 -0.0282
 9543TIP3   OH250119   0.378   2.204   2.341  0.1180  0.2219 -0.2457
 9543TIP3    H150120   0.315   2.132   2.338  0.4197 -0.1115  0.9060
 9543TIP3    H250121   0.379   2.238   2.252 -1.2415 -0.1532 -0.4401
 9544TIP3   OH250122   2.403   2.178  14.010  0.1932  0.0657 -0.2119
 9544TIP3    H150123   2.407   2.268  13.977  1.2324  0.6680  1.4332
 9544TIP3    H250124   2.480   2.135  13.972  1.0065  0.5637  0.8211
 9545TIP3   OH250125   5.326   3.429   5.415 -0.0488 -0.8833 -0.8185
 9545TIP3    H150126   5.300   3.506   5.363  2.1908  0.4431 -0.1143
 9545TIP3    H250127   5.247   3.376   5.421 -1.5538  1.1379 -1.7624
 9546TIP3   OH250128   4.368   1.317  12.847 -0.1192 -0.5169 -0.6883
 9546TIP3    H150129   4.367   1.229  12.884 -0.7093 -0.3020 -0.1674
 9546TIP3    H250130   4.400   1.306  12.757  1.5378 -1.0302 -0.0728
 9547TIP3   OH250131   3.885   4.854  14.619  0.7402  0.0417 -0.1012
 9547TIP3    H150132   3.937   4.871  14.541  3.5960  0.5485  1.7178
 9547TIP3    H250133   3.820   4.789  14.592  0.2366  1.7128 -3.3076
 9548TIP3   OH250134   5.906   4.489   1.460  0.0171  0.3868  0.5398
 9548TIP3    H150135   5.932   4.563   1.405  0.6346  0.8413  1.4091
 9548TIP3    H250136   5.986   4.437   1.469 -0.5171 -0.6309 -0.4154
 9549TIP3   OH250137   4.797   5.222   0.319 -0.4609 -0.1918 -0.2576
 9549TIP3    H150138   4.738   5.276   0.266 -0.1499  3.0591  2.4165
 9549TIP3    H250139   4.751   5.212   0.403  2.4844  2.2104  1.8282
 9550TIP3   OH250140   3.460   3.933  14.279 -0.4386 -0.4774 -0.0331
 9550TIP3    H150141   3.531   3.997  14.277  1.7314 -2.6215  1.5759
 9550TIP3    H250142   3.386   3.978  14.319  1.7880  0.4440  3.4693
 9551TIP3   OH250143   3.107   2.125  15.907  0.2342 -0.1955  0.0858
 9551TIP3    H150144   3.145   2.122  15.819  0.3803  4.2543 -0.2477
 9551TIP3    H250145   3.014   2.107  15.892  0.2256  0.6393 -1.0438
 9552TIP3   OH250146   5.717   3.015   0.471 -0.2937  0.0604 -0.1820
 9552TIP3    H150147   5.661   3.087   0.500 -1.2944 -1.0379  0.7054
 9552TIP3    H250148   5.776   3.000   0.545 -0.7201 -0.6472  0.0182
 9553TIP3   OH250149   4.959   6.012   1.257 -0.6593  0.1483  0.7792
 9553TIP3    H150150   5.047   6.020   1.293 -0.6423  1.9000  0.4305
 9553TIP3    H250151   4.966   5.942   1.192  0.3113 -0.1406  1.1755
 9554TIP3   OH250152   0.203   5.222  16.297 -0.0368 -0.2107 -0.8420
 9554TIP3    H150153   0.183   5.291  16.361  1.0127 -1.4776  0.9494
 9554TIP3    H250154   0.165   5.254  16.215 -0.5224  1.9869  0.1517
 9555TIP3   OH250155   2.968   4.074  12.106 -0.2830  0.3219 -0.1228
 9555TIP3    H150156   3.029   4.000  12.110  0.0103  0.4479 -1.6078
 9555TIP3    H250157   2.978   4.108  12.017  0.9276  3.2770  1.0213
 9556TIP3   OH250158   5.257   2.996   5.438 -0.5469 -0.3105  0.3731
 9556TIP3    H150159   5.174   2.995   5.484  0.1060  2.6924  1.9105
 9556TIP3    H250160   5.260   3.082   5.396  1.8235 -0.2474  0.5125
 9557TIP3   OH250161   2.268   0.645   2.991  0.4476  0.7737 -0.3251
 9557TIP3    H150162   2.197   0.707   3.004  0.3271  0.2276  2.1022
 9557TIP3    H250163   2.268   0.627   2.897 -2.7035  0.6787 -0.4036
 9558TIP3   OH250164   4.929   4.930   4.894 -0.1304  0.1216  0.1201
 9558TIP3    H150165   4.948   5.022   4.876 -0.4182 -0.2625 -2.4340
 9558TIP3    H250166   4.997   4.882   4.848  0.0532 -0.9912  1.4715
 9559TIP3   OH250167   5.689   2.956  15.591  0.0572 -0.4021 -0.1065
 9559TIP3    H150168   5.621   2.988  15.650  0.7560  1.2831 -0.1523
 9559TIP3    H250169   5.740   2.894  15.644  1.3254  1.8625  1.5102
 9560TIP3   OH250170   6.605   4.686   3.147  0.0780  0.4483 -0.1864
 9560TIP3    H150171   6.671   4.657   3.210  0.2407 -2.1915 -1.4375
 9560TIP3    H250172   6.628   4.642   3.066 -2.1803  0.9123 -1.1634
 9561TIP3   OH250173   2.641   1.233   2.657  0.3435  0.1200  0.0828
 9561TIP3    H150174   2.674   1.180   2.585 -2.7556 -0.4645 -1.0693
 9561TIP3    H250175   2.589   1.301   2.615 -0.7009  0.3897  1.7202
 9562TIP3   OH250176   2.871   5.600  12.341 -0.2120  0.2269 -0.1948
 9562TIP3    H150177   2.905   5.535  12.402 -1.8570  0.1839  0.7320
 9562TIP3    H250178   2.897   5.568  12.255  2.4011  0.4318  0.4252
 9563TIP3   OH250179   3.225   2.582  12.034  0.7041 -0.0786 -0.2017
 9563TIP3    H150180   3.189   2.640  12.101  0.7158  0.8992 -1.0194
 9563TIP3    H250181   3.243   2.501  12.080  2.5324  1.1741  1.4599
 9564TIP3   OH250182   6.227   4.161   1.939  0.6209  1.0765 -0.5616
 9564TIP3    H150183   6.149   4.216   1.948 -1.3912 -1.6884  0.2629
 9564TIP3    H250184   6.274   4.173   2.021 -0.2853  0.9357 -0.0012
 9565TIP3   OH250185   3.548   4.449  13.958 -0.0508 -0.1381  0.4921
 9565TIP3    H150186   3.499   4.466  14.038  0.1759 -2.1178  1.1104
 9565TIP3    H250187   3.489   4.396  13.905  0.6518 -0.8109  0.3639
 9566TIP3   OH250188   2.273   4.814  16.787 -0.8027 -0.2619 -0.1888
 9566TIP3    H150189   2.296   4.782  16.874  1.3031  0.2387 -0.5038
 9566TIP3    H250190   2.338   4.774  16.728 -0.9406  0.9753 -1.2305
 9567TIP3   OH250191   5.270   3.532   1.003  0.2087 -0.1367 -0.5526
 9567TIP3    H150192   5.178   3.548   0.981 -0.0284 -0.5519  0.1082
 9567TIP3    H250193   5.312   3.515   0.919 -0.4198 -0.4411 -0.8127
 9568TIP3   OH250194   6.624   6.445   1.303 -0.0273 -0.0573 -0.5681
 9568TIP3    H150195   6.682   6.508   1.346 -0.1977 -0.2052 -0.1144
 9568TIP3    H250196   6.562   6.499   1.255 -1.6065  0.2533  1.6347
 9569TIP3   OH250197   3.817   4.411   3.373  0.0355  0.2808  0.1345
 9569TIP3    H150198   3.855   4.331   3.409  0.2897  0.8062  1.0819
 9569TIP3    H250199   3.723   4.404   3.392 -0.4591 -1.0916 -2.3482
 9570TIP3   OH250200   5.296   2.637   2.340  0.0246 -0.1774  0.2635
 9570TIP3    H150201   5.376   2.588   2.321 -0.9029 -0.9094 -2.2099
 9570TIP3    H250202   5.321   2.729   2.327  0.9483 -0.2029  1.6329
 9571TIP3   OH250203   4.817   5.573   6.379 -0.2061 -0.0020 -0.2596
 9571TIP3    H150204   4.817   5.579   6.283  0.4112 -1.1900 -0.3458
 9571TIP3    H250205   4.906   5.548   6.401 -1.2679 -3.9053  0.3000
 9572TIP3   OH250206   0.046   4.794  12.490  0.2475  0.8781  0.0132
 9572TIP3    H150207   0.062   4.884  12.517  1.5033  0.1573  1.9079
 9572TIP3    H250208  -0.013   4.759  12.557 -1.0583  0.5648 -1.2696
 9573TIP3   OH250209   2.331   5.869   0.680 -0.3289  0.1678  0.1111
 9573TIP3    H150210   2.266   5.799   0.684  0.6300 -0.6942  1.4812
 9573TIP3    H250211   2.300   5.933   0.744  1.4534 -1.4951  2.8655
 9574TIP3   OH250212   2.530   5.770   1.833  0.2633  0.0829  0.0768
 9574TIP3    H150213   2.450   5.719   1.822  0.5474 -0.1518 -0.9579
 9574TIP3    H250214   2.596   5.725   1.779  0.1858  2.2458 -1.9796
 9575TIP3   OH250215   2.671   0.663  16.740  0.3686  0.5446  0.4732
 9575TIP3    H150216   2.729   0.734  16.767 -0.0275  0.4760  1.5563
 9575TIP3    H250217   2.583   0.700  16.747  0.2801  1.0661 -2.4078
 9576TIP3   OH250218   6.785   0.809   1.434  0.1047 -0.0465  0.4125
 9576TIP3    H150219   6.748   0.893   1.407  2.4392  0.2577 -2.3200
 9576TIP3    H250220   6.850   0.831   1.501  2.3373  0.7922 -1.8505
 9577TIP3   OH250221   1.185   3.259  15.842 -0.1402 -0.0967 -0.2675
 9577TIP3    H150222   1.235   3.251  15.923 -0.4725 -1.8009 -0.1842
 9577TIP3    H250223   1.233   3.205  15.779 -0.1268  0.8527 -1.0988
 9578TIP3   OH250224   1.347   4.782  14.748  0.4096  0.0958  0.5765
 9578TIP3    H150225   1.404   4.814  14.678  0.4496 -0.1695  0.4861
 9578TIP3    H250226   1.407   4.768  14.822  0.6135 -1.0032  0.2214
 9579TIP3   OH250227   2.681   2.277  15.768  0.4518  0.2051  0.0031
 9579TIP3    H150228   2.748   2.344  15.751  0.3412  0.1405 -0.7186
 9579TIP3    H250229   2.652   2.249  15.681 -0.2612 -0.0228  0.3019
 9580TIP3   OH250230   0.408   2.950  14.046  0.0534  0.0067 -0.0702
 9580TIP3    H150231   0.371   3.023  14.096 -0.0189 -0.5034  0.6357
 9580TIP3    H250232   0.363   2.954  13.961 -1.0291 -0.0934  0.4782
 9581TIP3   OH250233   4.515   2.579   3.782 -0.1205  0.3110 -0.2370
 9581TIP3    H150234   4.462   2.659   3.775 -0.1460  0.3020 -0.1330
 9581TIP3    H250235   4.552   2.582   3.870 -0.1906  0.1641 -0.2029
 9582TIP3   OH250236   0.894   0.945   0.260  0.0121  0.1450 -0.5710
 9582TIP3    H150237   0.884   0.950   0.165  1.2759 -0.3537 -0.7404
 9582TIP3    H250238   0.809   0.973   0.294 -0.3939  0.5147 -1.8385
 9583TIP3   OH250239   3.805   1.224  13.154 -0.2491 -0.1653 -0.3561
 9583TIP3    H150240   3.864   1.299  13.154  1.3668 -1.3578 -1.8609
 9583TIP3    H250241   3.767   1.223  13.066  0.1730 -1.4095 -0.5395
 9584TIP3   OH250242   1.984   1.142   1.525  0.6576 -0.1911  0.0492
 9584TIP3    H150243   1.930   1.220   1.511  0.3077 -0.2057  1.2678
 9584TIP3    H250244   1.951   1.103   1.606  2.1626 -0.4687  0.5640
 9585TIP3   OH250245   4.931   0.230   1.783  0.1949 -0.8889  0.8482
 9585TIP3    H150246   4.958   0.164   1.720  0.9745 -0.6614  0.9345
 9585TIP3    H250247   4.913   0.182   1.864  1.4833 -0.9373  1.1338
 9586TIP3   OH250248   5.675   4.675  14.973 -0.0219  0.3995  0.2648
 9586TIP3    H150249   5.659   4.601  14.913 -1.7491 -0.8369  2.1591
 9586TIP3    H250250   5.770   4.689  14.966 -0.0979  0.1511 -2.5265
 9587TIP3   OH250251   6.146   1.961   4.141 -0.1150 -0.1292  0.5479
 9587TIP3    H150252   6.241   1.953   4.132 -0.2177  0.1952 -1.4112
 9587TIP3    H250253   6.130   2.055   4.142 -0.3554 -0.1769  1.9014
 9588TIP3   OH250254   4.006   5.737   4.842  0.0932  0.4039  0.5648
 9588TIP3    H150255   4.025   5.756   4.750  1.6552 -1.3497  0.4519
 9588TIP3    H250256   3.914   5.711   4.844  1.0107 -3.6612 -1.3385
 9589TIP3   OH250257   3.331   5.341  11.637 -0.2376 -0.2511  0.1614
 9589TIP3    H150258   3.329   5.435  11.619 -0.9519  0.0404  1.6358
 9589TIP3    H250259   3.419   5.314  11.610 -0.1771  0.7347 -0.7138
 9590TIP3   OH250260   4.425   1.161  12.025  0.1517  0.0529  0.0978
 9590TIP3    H150261   4.444   1.171  12.118  0.7396 -1.3845  0.1658
 9590TIP3    H250262   4.337   1.198  12.014 -0.6130 -1.1777  1.5673
 9591TIP3   OH250263   0.868   1.322   4.211  0.5913  0.2194 -0.0273
 9591TIP3    H150264   0.825   1.289   4.290  0.7975  1.3253  0.5724
 9591TIP3    H250265   0.813   1.395   4.182  0.9404  0.3199 -0.4524
 9592TIP3   OH250266   4.094   2.571   4.557 -0.0357 -0.4275 -0.2767
 9592TIP3    H150267   4.066   2.644   4.503 -1.9889 -1.2776 -0.4776
 9592TIP3    H250268   4.022   2.557   4.619  0.4122 -2.0001 -0.0706
 9593TIP3   OH250269   4.366   5.397  16.529 -0.3421  0.0120  0.1060
 9593TIP3    H150270   4.385   5.355  16.613 -1.1094 -0.0067  0.2726
 9593TIP3    H250271   4.329   5.328  16.475 -0.8629  0.2788  0.1152
 9594TIP3   OH250272   3.346   4.573   4.666 -0.3607  0.3570 -0.3600
 9594TIP3    H150273   3.368   4.594   4.575 -0.5163  0.2832 -0.4137
 9594TIP3    H250274   3.420   4.521   4.698 -0.6668 -0.2827 -0.6802
 9595TIP3   OH250275   2.972   4.813  14.387 -0.1038 -0.2787 -0.6833
 9595TIP3    H150276   3.059   4.797  14.423 -0.3525  1.1612  0.6615
 9595TIP3    H250277   2.958   4.907  14.399 -2.1962 -0.6135 -0.0425
 9596TIP3   OH250278   2.239   5.600   3.896  0.2081  0.5606 -0.5363
 9596TIP3    H150279   2.253   5.668   3.830 -0.8374  0.1695 -1.1658
 9596TIP3    H250280   2.322   5.553   3.899  0.2708  0.5879 -1.5614
 9597TIP3   OH250281   1.248   6.778   5.260  0.4390  0.2297  0.2525
 9597TIP3    H150282   1.194   6.702   5.238 -0.2309  0.4540  1.0583
 9597TIP3    H250283   1.186   6.851   5.261  1.2986  1.0622 -1.8766
 9598TIP3   OH250284   0.136   0.440  14.644  0.3038 -0.3071 -0.2248
 9598TIP3    H150285   0.212   0.393  14.678  0.6216 -0.5234 -1.2005
 9598TIP3    H250286   0.157   0.457  14.552  0.0753  1.4874  0.0124
 9599TIP3   OH250287   6.455   3.547   1.372 -0.1803 -0.5885  0.3233
 9599TIP3    H150288   6.514   3.472   1.384 -0.1397 -0.6816 -0.4281
 9599TIP3    H250289   6.454   3.562   1.278 -0.9442 -0.2429  0.3823
 9600TIP3   OH250290   1.163   4.155  11.734  0.0538  0.0364  0.2495
 9600TIP3    H150291   1.172   4.108  11.817  0.5938  0.8750  0.6896
 9600TIP3    H250292   1.068   4.168  11.724  0.0411  1.1247  1.4628
 9601TIP3   OH250293   2.164   2.720   5.944 -0.1796 -0.7629 -0.0862
 9601TIP3    H150294   2.259   2.715   5.928 -0.3835 -0.6096 -1.5235
 9601TIP3    H250295   2.151   2.670   6.025  1.1000 -0.9722  0.0222
 9602TIP3   OH250296   5.222   0.309   0.929  0.1641 -0.1794 -0.1495
 9602TIP3    H150297   5.259   0.227   0.895 -0.1032 -0.5147  0.3487
 9602TIP3    H250298   5.152   0.331   0.868  1.3188  0.5938 -1.2437
 9603TIP3   OH250299   1.353   0.476  13.398 -0.3318  0.0054  0.2200
 9603TIP3    H150300   1.302   0.411  13.446  0.0641 -1.5587 -1.4028
 9603TIP3    H250301   1.418   0.425  13.349  0.0221  1.6150 -1.0828
 9604TIP3   OH250302   3.306   4.399   4.971 -0.4344 -0.4014 -0.3562
 9604TIP3    H150303   3.251   4.353   5.034  1.8609 -0.3138  1.8474
 9604TIP3    H250304   3.306   4.489   5.001 -1.4145  0.2335 -2.1168
 9605TIP3   OH250305   0.794   3.028   5.788  0.6838 -0.2232 -0.2701
 9605TIP3    H150306   0.862   3.075   5.835  0.5740 -0.2861 -0.0442
 9605TIP3    H250307   0.769   2.956   5.847  0.0644  0.1033 -0.1246
 9606TIP3   OH250308   5.190   4.257  13.361  0.5054  0.2903 -0.4268
 9606TIP3    H150309   5.216   4.172  13.395 -0.1444  0.2989  0.1242
 9606TIP3    H250310   5.094   4.257  13.366  0.5209  1.5066  0.8043
 9607TIP3   OH250311   4.219   3.645  15.649 -0.4323 -0.1449  0.1797
 9607TIP3    H150312   4.125   3.644  15.664 -0.3484  0.9224  0.9069
 9607TIP3    H250313   4.254   3.699  15.720  0.3409  2.4831 -2.0525
 9608TIP3   OH250314   0.870   3.297  13.942  0.0230  0.0785  0.4661
 9608TIP3    H150315   0.879   3.273  13.850  0.3967  1.8702 -0.0005
 9608TIP3    H250316   0.783   3.336  13.949 -0.7523 -1.7147  1.2982
 9609TIP3   OH250317   5.734   2.523  15.644 -0.3348  0.2375  0.0638
 9609TIP3    H150318   5.815   2.476  15.661 -0.7924 -0.8875 -0.7001
 9609TIP3    H250319   5.666   2.470  15.687 -0.7090  0.9849  0.4202
 9610TIP3   OH250320   2.624   0.517  16.156  0.0856 -0.4487  0.1781
 9610TIP3    H150321   2.552   0.457  16.136 -1.6497  2.0684 -1.8907
 9610TIP3    H250322   2.586   0.579  16.218  1.4358 -0.7176  1.3025
 9611TIP3   OH250323   0.871   2.818  15.021 -0.1450  0.1189 -0.2613
 9611TIP3    H150324   0.953   2.833  14.975  0.8499  1.6686  1.8195
 9611TIP3    H250325   0.803   2.827  14.954  1.2603  1.1374 -1.6023
 9612TIP3   OH250326   5.996   0.952   4.011 -0.6453 -0.2592  0.4978
 9612TIP3    H150327   6.066   1.004   3.972 -0.8962  0.3749  0.8771
 9612TIP3    H250328   6.012   0.956   4.105 -1.0494 -0.3123  0.5727
 9613TIP3   OH250329   2.105   2.776   2.777 -0.2643 -0.0177 -0.2728
 9613TIP3    H150330   2.130   2.848   2.720  1.6198 -0.9664 -0.7324
 9613TIP3    H250331   2.059   2.715   2.720 -0.3109  0.0260 -0.2821
 9614TIP3   OH250332   3.323   3.521   5.823 -0.2898  0.0988 -0.1679
 9614TIP3    H150333   3.413   3.500   5.847 -0.3584  0.2777  0.2723
 9614TIP3    H250334   3.274   3.516   5.906 -0.2370  2.2922  0.0594
 9615TIP3   OH250335   3.043   2.835  13.499  0.0586  0.4511  0.1469
 9615TIP3    H150336   2.977   2.899  13.474 -0.3053  0.2123  0.5015
 9615TIP3    H250337   2.999   2.776  13.560  0.6767  0.4596  0.6141
 9616TIP3   OH250338   0.527   6.313   3.829  0.4434  0.0470 -0.1795
 9616TIP3    H150339   0.491   6.232   3.793 -0.8653  0.8813 -0.8405
 9616TIP3    H250340   0.567   6.287   3.911 -1.0921 -1.0896  0.2664
 9617TIP3   OH250341   3.992   2.010  15.329  0.5774  0.4094  0.5112
 9617TIP3    H150342   3.901   2.021  15.355 -0.5064 -0.3278 -2.5576
 9617TIP3    H250343   3.997   1.921  15.294  2.2947  0.6634 -0.0088
 9618TIP3   OH250344   2.351   6.207  12.680  0.1526 -0.3937 -0.4788
 9618TIP3    H150345   2.374   6.257  12.602 -1.9271  1.2917 -0.1008
 9618TIP3    H250346   2.435   6.193  12.725  1.2853 -0.7057 -2.5451
 9619TIP3   OH250347   5.379   5.820  16.218  0.0772 -0.3207  0.0348
 9619TIP3    H150348   5.389   5.737  16.171  0.6230 -0.2253 -0.0174
 9619TIP3    H250349   5.349   5.882  16.152  0.6778 -0.2277 -0.1596
 9620TIP3   OH250350   2.284   1.787   6.326  0.3483  0.1675 -0.1890
 9620TIP3    H150351   2.295   1.692   6.317  1.3192  0.4211 -2.3097
 9620TIP3    H250352   2.217   1.809   6.262 -2.0505  0.6263  2.2741
 9621TIP3   OH250353   6.434   4.295   1.528 -0.5468 -0.4434  0.3762
 9621TIP3    H150354   6.442   4.224   1.464  1.3006 -0.4849  0.6001
 9621TIP3    H250355   6.397   4.253   1.606 -0.6944 -0.8765  0.0748
 9622TIP3   OH250356   2.429   4.997   2.724  0.5450  0.2892  0.4938
 9622TIP3    H150357   2.361   5.048   2.681  0.7904  0.9058  0.8242
 9622TIP3    H250358   2.382   4.924   2.766  0.5528 -2.2467 -3.3639
 9623TIP3   OH250359   3.908   2.767  14.914 -0.2260  0.3026 -0.3807
 9623TIP3    H150360   3.929   2.675  14.899  1.6773  0.5503  0.4651
 9623TIP3    H250361   3.831   2.784  14.859 -0.1151 -1.5683 -1.1677
 9624TIP3   OH250362   3.462   1.297  11.708  0.1858 -0.0312 -0.8537
 9624TIP3    H150363   3.367   1.294  11.698  0.3170  2.0419 -4.1787
 9624TIP3    H250364   3.493   1.212  11.676 -0.5059 -0.6655  0.1297
 9625TIP3   OH250365   2.785   3.022  13.968  0.5605  0.2025  0.6863
 9625TIP3    H150366   2.839   3.061  13.900  0.8721 -2.6457 -0.8545
 9625TIP3    H250367   2.836   3.033  14.048  0.6736  2.6944  0.3268
 9626TIP3   OH250368   5.762   0.360  13.631  0.4317  0.8890  0.1875
 9626TIP3    H150369   5.755   0.454  13.647  3.5576  0.7609  3.6512
 9626TIP3    H250370   5.808   0.353  13.547 -0.9521  2.3120 -0.7540
 9627TIP3   OH250371   3.729   4.878  16.701 -0.0138 -0.1401  0.3716
 9627TIP3    H150372   3.635   4.870  16.717  0.4475 -0.8836  3.3244
 9627TIP3    H250373   3.756   4.789  16.678 -0.1659  0.3318 -1.8700
 9628TIP3   OH250374   2.562   6.563   5.649 -0.2072  0.5509 -0.0327
 9628TIP3    H150375   2.478   6.518   5.641 -0.3305  0.5853  0.9377
 9628TIP3    H250376   2.557   6.608   5.733  0.7895  0.5331  0.0446
 9629TIP3   OH250377   3.623   1.923   1.380  0.0503  0.3630  0.0945
 9629TIP3    H150378   3.692   1.857   1.371  1.0222  1.3873 -0.0771
 9629TIP3    H250379   3.645   1.971   1.460  0.4612  1.7391 -0.8124
 9630TIP3   OH250380   6.161   3.176   3.967  0.0897  0.5309 -0.0898
 9630TIP3    H150381   6.157   3.256   3.914 -0.7015 -0.0307 -0.9119
 9630TIP3    H250382   6.140   3.205   4.056  2.0614  1.5974  0.0877
 9631TIP3   OH250383   6.033   6.702   4.730 -0.4990 -0.1091 -0.3869
 9631TIP3    H150384   5.993   6.786   4.711  1.4399  0.7615 -0.9050
 9631TIP3    H250385   6.034   6.697   4.826 -3.1681 -0.9015 -0.3253
 9632TIP3   OH250386   4.262   2.494   1.459 -0.2651  0.0566 -0.2354
 9632TIP3    H150387   4.310   2.564   1.503  1.7039 -0.4114 -1.5550
 9632TIP3    H250388   4.192   2.471   1.521  0.3859  1.6528  1.1699
 9633TIP3   OH250389   4.629   4.362   4.778  0.4060 -0.1061  0.7692
 9633TIP3    H150390   4.703   4.385   4.834  0.1255  0.3166  0.9738
 9633TIP3    H250391   4.626   4.267   4.779  0.1388 -0.0901  1.8155
 9634TIP3   OH250392   6.617   0.207  14.933  0.2018  0.1480 -0.5400
 9634TIP3    H150393   6.548   0.260  14.893 -1.3062 -1.1333  0.2332
 9634TIP3    H250394   6.633   0.249  15.018 -0.2284  0.0095 -0.3826
 9635TIP3   OH250395   5.573   2.760  15.045 -0.0374 -0.5334  0.0316
 9635TIP3    H150396   5.644   2.747  15.108 -0.3064  0.9842  0.6852
 9635TIP3    H250397   5.523   2.679  15.049 -0.0636 -0.4784  1.8175
 9636TIP3   OH250398   4.997   5.743  10.540  0.2880  0.1463  0.3572
 9636TIP3    H150399   4.942   5.666  10.525  0.8196  0.1148 -1.8744
 9636TIP3    H250400   4.983   5.797  10.462  2.1124  0.9306  0.5330
 9637TIP3   OH250401   2.437   2.021  14.241 -0.5011  0.0472 -0.8702
 9637TIP3    H150402   2.453   2.093  14.179  0.9033  0.0494 -0.5331
 9637TIP3    H250403   2.464   1.942  14.194  0.1935  0.0068 -0.4177
 9638TIP3   OH250404   3.071   6.512   2.079  0.1367 -0.6776  0.2333
 9638TIP3    H150405   3.123   6.585   2.110 -2.1199  0.1784  2.2904
 9638TIP3    H250406   3.080   6.445   2.147 -1.3527 -0.5252  0.6133
 9639TIP3   OH250407   6.287   0.252   1.966  0.2719 -0.0652 -0.0970
 9639TIP3    H150408   6.382   0.243   1.978  0.5015  1.9891  0.0944
 9639TIP3    H250409   6.270   0.344   1.986 -1.9701 -0.6795  1.0649
 9640TIP3   OH250410   1.780   0.787  16.642  0.3216 -1.0559 -0.5012
 9640TIP3    H150411   1.786   0.721  16.573 -1.2783 -0.8683 -0.8716
 9640TIP3    H250412   1.871   0.808  16.664  0.8586 -1.4387 -2.2309
 9641TIP3   OH250413   0.684   0.675   0.790 -0.2975 -0.8665  0.3256
 9641TIP3    H150414   0.647   0.748   0.741 -3.1511 -1.3061  1.5895
 9641TIP3    H250415   0.749   0.716   0.848 -2.8621  1.0371  2.0697
 9642TIP3   OH250416   1.595   3.713  13.549 -0.0513  0.5629 -0.3123
 9642TIP3    H150417   1.686   3.701  13.523 -0.2852  0.6889 -1.2100
 9642TIP3    H250418   1.544   3.679  13.475 -0.7296  1.7462 -0.4165
 9643TIP3   OH250419   4.725   2.131   0.768  0.5167 -0.0247  0.2173
 9643TIP3    H150420   4.720   2.109   0.675 -0.6970  1.0652 -0.0028
 9643TIP3    H250421   4.785   2.206   0.771  1.6425 -0.9232  0.4946
 9644TIP3   OH250422   3.165   0.066   1.343 -1.1128  0.1080  0.2318
 9644TIP3    H150423   3.218   0.146   1.352  0.3252 -0.4802 -2.2321
 9644TIP3    H250424   3.225   0.002   1.305 -2.5341 -1.8679  1.1689
 9645TIP3   OH250425   5.019   6.247  12.295  0.4907  0.5201 -0.3294
 9645TIP3    H150426   5.107   6.208  12.296  0.7715  1.1153  1.3095
 9645TIP3    H250427   5.034   6.341  12.307 -0.3669  0.6414 -0.1494
 9646TIP3   OH250428   2.572   5.736  14.389  0.3122  0.0577 -0.2618
 9646TIP3    H150429   2.594   5.692  14.471  2.1563  2.0201  0.3949
 9646TIP3    H250430   2.596   5.828  14.404 -1.3382  0.9093 -2.2784
 9647TIP3   OH250431   4.625   0.892  15.927  0.2764  0.2237 -0.5037
 9647TIP3    H150432   4.674   0.873  16.007 -1.0693 -2.3965 -0.1857
 9647TIP3    H250433   4.554   0.950  15.956 -0.1159 -0.5866  0.2297
 9648TIP3   OH250434   6.324   2.721  14.117 -0.0321  0.5468 -1.1971
 9648TIP3    H150435   6.364   2.668  14.186 -1.2773 -0.8325 -1.4710
 9648TIP3    H250436   6.359   2.809  14.130  1.1075 -0.0668  0.0898
 9649TIP3   OH250437   5.820   2.507  12.358  0.0524  0.3505  0.3800
 9649TIP3    H150438   5.752   2.505  12.425 -0.0395 -2.0105  0.2941
 9649TIP3    H250439   5.827   2.599  12.334 -2.0986  0.8513  1.4098
 9650TIP3   OH250440   2.787   5.203  12.739  0.4574  0.6325  0.1966
 9650TIP3    H150441   2.764   5.295  12.725 -2.8389 -0.3343 -2.0898
 9650TIP3    H250442   2.712   5.154  12.703  2.3536 -2.9784  0.6839
 9651TIP3   OH250443   6.719   0.450   3.390  0.0435  0.3021 -0.4973
 9651TIP3    H150444   6.726   0.368   3.341 -1.1713  0.4922 -1.0148
 9651TIP3    H250445   6.779   0.510   3.346  2.3546 -0.7744  0.9733
 9652TIP3   OH250446   2.877   5.452   4.900 -0.1246  0.0719  0.6759
 9652TIP3    H150447   2.949   5.510   4.877 -1.1262  0.4821 -1.6421
 9652TIP3    H250448   2.914   5.364   4.895 -0.0619  0.1834 -1.9214
 9653TIP3   OH250449   4.867   1.766  11.820  0.3068 -0.5014 -0.4981
 9653TIP3    H150450   4.912   1.767  11.736  1.1158  1.0852 -0.0880
 9653TIP3    H250451   4.934   1.793  11.883 -1.3276  2.8998  0.0343
 9654TIP3   OH250452   4.081   3.550  13.361 -0.4485  0.0621 -0.4432
 9654TIP3    H150453   4.143   3.570  13.291 -1.0375 -0.5767 -1.1637
 9654TIP3    H250454   4.126   3.487  13.417 -0.5425 -0.6432 -1.1400
 9655TIP3   OH250455   5.512   5.116   5.789  0.4473  1.1445  0.6728
 9655TIP3    H150456   5.456   5.041   5.767 -0.2918  1.1485  2.3799
 9655TIP3    H250457   5.574   5.121   5.716  0.3971 -0.9967  0.4003
 9656TIP3   OH250458   3.273   0.520  13.521 -0.2903 -0.2286  0.2039
 9656TIP3    H150459   3.224   0.507  13.602  0.4786  0.0160  0.7200
 9656TIP3    H250460   3.346   0.458  13.526  0.0834  0.1859 -0.0349
 9657TIP3   OH250461   4.932   1.180  13.479  0.0489  0.0130 -0.0125
 9657TIP3    H150462   4.908   1.236  13.406 -1.2723 -0.2963  0.1547
 9657TIP3    H250463   4.857   1.121  13.489  1.2296 -1.5305  0.0578
 9658TIP3   OH250464   2.321   3.238  16.483  0.3111 -0.3703 -0.6104
 9658TIP3    H150465   2.318   3.282  16.398  0.2218 -0.3386 -0.5911
 9658TIP3    H250466   2.397   3.275  16.527 -0.2102  0.3146 -0.2856
 9659TIP3   OH250467   1.976   3.937   2.363  0.4889 -0.0778  0.1124
 9659TIP3    H150468   2.006   4.000   2.429  1.1924 -1.5493  1.2758
 9659TIP3    H250469   2.013   3.854   2.393 -1.7763 -1.3376 -0.4444
 9660TIP3   OH250470   2.674   5.311   1.714 -0.2563 -0.1329 -0.0227
 9660TIP3    H150471   2.642   5.221   1.725 -1.0776  0.2958  1.3772
 9660TIP3    H250472   2.595   5.362   1.694  0.0108  0.4655  0.4247
 9661TIP3   OH250473   6.067   2.479   1.723 -0.4130 -0.3813  0.2388
 9661TIP3    H150474   6.160   2.500   1.723 -0.5920  0.4737 -0.5360
 9661TIP3    H250475   6.027   2.546   1.779 -0.5091 -1.0553  0.9939
 9662TIP3   OH250476   4.500   3.860  10.515  0.0516  0.0312 -0.1648
 9662TIP3    H150477   4.428   3.897  10.566 -0.1386 -0.7113  0.1264
 9662TIP3    H250478   4.460   3.791  10.462  0.4771 -0.1168 -0.3041
 9663TIP3   OH250479   1.949   3.685  11.302 -0.0736 -0.1110  0.0482
 9663TIP3    H150480   1.854   3.679  11.309 -0.1991  1.1368 -0.4379
 9663TIP3    H250481   1.966   3.689  11.207  0.2833  1.9071  0.1591
 9664TIP3   OH250482   2.726   3.583  15.653  0.2960  0.1326  0.1348
 9664TIP3    H150483   2.727   3.675  15.681 -0.2931  0.4617 -0.8810
 9664TIP3    H250484   2.818   3.559  15.647  0.4630  0.8231 -0.1086
 9665TIP3   OH250485   6.654   3.917  10.586 -0.4326 -0.3485 -0.1464
 9665TIP3    H150486   6.676   3.833  10.626  0.1581 -0.0311  0.2098
 9665TIP3    H250487   6.723   3.931  10.521 -0.3094  0.0355  0.0643
 9666TIP3   OH250488   2.830   2.283   0.380  0.4178 -0.1176 -0.0061
 9666TIP3    H150489   2.894   2.274   0.450  1.6675 -0.6028 -1.1654
 9666TIP3    H250490   2.818   2.195   0.346  0.1123  0.1523 -0.6282
 9667TIP3   OH250491   5.073   3.059   5.934  0.0194 -0.1664 -0.2668
 9667TIP3    H150492   5.018   3.045   5.857  0.0475 -0.3129 -0.2599
 9667TIP3    H250493   5.015   3.045   6.008  0.2617 -1.1396 -0.2505
 9668TIP3   OH250494   6.674   5.906   2.499 -1.0687  0.0339  0.1129
 9668TIP3    H150495   6.612   5.833   2.494 -1.9789  0.8131 -0.3195
 9668TIP3    H250496   6.727   5.888   2.577 -0.3564 -1.7781 -0.7557
 9669TIP3   OH250497   4.645   2.225   3.081 -0.1334  0.1523  0.0469
 9669TIP3    H150498   4.657   2.279   3.158  0.5705 -1.2888  0.9987
 9669TIP3    H250499   4.581   2.159   3.108 -1.6080  0.9494 -1.3399
 9670TIP3   OH250500   1.323   1.188   1.316  0.5580  0.3862 -0.1276
 9670TIP3    H150501   1.283   1.274   1.304 -3.1745 -1.1523 -0.2912
 9670TIP3    H250502   1.358   1.166   1.230  0.8260  1.4151 -0.2925
 9671TIP3   OH250503   1.453   3.198  12.168 -0.5717 -0.4046  0.3358
 9671TIP3    H150504   1.403   3.260  12.221 -0.5199 -0.5643  0.5738
 9671TIP3    H250505   1.518   3.163  12.228  1.1856  1.3019 -0.4537
 9672TIP3   OH250506   0.933   6.381   5.539 -0.0370 -0.3467 -0.0420
 9672TIP3    H150507   0.945   6.428   5.621  2.2347  0.6859 -0.8919
 9672TIP3    H250508   0.860   6.427   5.496 -1.9588 -1.5391  1.7415
 9673TIP3   OH250509   1.686   6.400   4.932  0.2101  0.1541 -0.4261
 9673TIP3    H150510   1.684   6.486   4.974  0.1874  0.3880 -0.8930
 9673TIP3    H250511   1.649   6.340   4.997 -0.2465  0.5831 -0.2789
 9674TIP3   OH250512   3.116   2.819   1.427 -0.0282  0.0821  0.0210
 9674TIP3    H150513   3.032   2.850   1.460 -0.6761  0.2096 -1.6566
 9674TIP3    H250514   3.124   2.859   1.341  1.6185 -0.1853  0.0216
 9675TIP3   OH250515   2.932   4.306  13.290  0.3926  0.2789 -0.7405
 9675TIP3    H150516   2.969   4.384  13.332 -1.7128  0.4506  0.9478
 9675TIP3    H250517   2.839   4.326  13.278 -0.5159 -2.4065  0.9581
 9676TIP3   OH250518   5.939   5.412  16.218  0.1479  0.2424 -0.2556
 9676TIP3    H150519   5.960   5.334  16.167  0.0087  0.7489 -1.0951
 9676TIP3    H250520   5.974   5.393  16.305 -0.0502 -0.8283 -0.3971
 9677TIP3   OH250521   0.345   2.108  12.334  0.0560  0.0225 -0.1980
 9677TIP3    H150522   0.276   2.139  12.392  0.5060 -1.7268  1.3817
 9677TIP3    H250523   0.401   2.184  12.320 -1.4066  1.1060 -0.3822
 9678TIP3   OH250524   3.638   4.266   2.635  0.1353 -0.3608  0.5939
 9678TIP3    H150525   3.652   4.186   2.585  0.2934 -0.2821  0.5145
 9678TIP3    H250526   3.682   4.335   2.585 -1.2481  0.0464 -0.1242
 9679TIP3   OH250527   5.823   2.177  15.902  0.4877  0.7323 -0.1183
 9679TIP3    H150528   5.735   2.194  15.935 -0.1939 -0.1137 -1.4500
 9679TIP3    H250529   5.861   2.264  15.889 -0.2459  1.1048  0.1875
 9680TIP3   OH250530   5.448   0.238  16.536  0.4347 -0.3939  0.3235
 9680TIP3    H150531   5.461   0.152  16.577  1.3319  0.1069  1.1400
 9680TIP3    H250532   5.509   0.296  16.582 -0.4473  0.7787  0.0663
 9681TIP3   OH250533   1.065   6.171  13.503 -0.2347 -0.1185  0.5792
 9681TIP3    H150534   1.049   6.249  13.450 -0.1765 -0.5752 -0.1196
 9681TIP3    H250535   1.159   6.157  13.497 -0.4056 -0.9321 -0.2817
 9682TIP3   OH250536   4.301   2.810  14.276 -0.2944  0.2905  0.3330
 9682TIP3    H150537   4.272   2.720  14.258  1.2272 -0.0420 -0.6873
 9682TIP3    H250538   4.264   2.831  14.361  1.1658 -2.1578  1.6843
 9683TIP3   OH250539   0.306   4.287  11.454 -0.1605  0.3679 -0.0544
 9683TIP3    H150540   0.239   4.260  11.392  0.2230  1.6862 -1.0936
 9683TIP3    H250541   0.268   4.271  11.540 -1.4202  0.2120 -0.6257
 9684TIP3   OH250542   5.758   1.181   1.574  0.0894 -0.4899  0.3724
 9684TIP3    H150543   5.814   1.205   1.501  0.3278 -0.1044  0.6781
 9684TIP3    H250544   5.714   1.101   1.545 -2.1381  1.2600 -1.4257
 9685TIP3   OH250545   0.034   1.138   0.454 -0.3324 -0.4685  0.0774
 9685TIP3    H150546  -0.025   1.195   0.404 -1.9559  0.3907  2.7637
 9685TIP3    H250547  -0.017   1.059   0.470  0.1266 -0.6800  0.5124
 9686TIP3   OH250548   5.480   1.760   2.594 -0.5863 -0.3248  0.2062
 9686TIP3    H150549   5.460   1.671   2.564  2.8766 -0.5068 -2.1379
 9686TIP3    H250550   5.564   1.780   2.554 -0.2181  3.2740  2.3797
 9687TIP3   OH250551   5.338   3.101   4.716  0.2096 -0.0646  0.6677
 9687TIP3    H150552   5.425   3.134   4.692  0.6345 -0.5526  1.4939
 9687TIP3    H250553   5.297   3.174   4.762  0.4348 -0.0572  0.8580
 9688TIP3   OH250554   6.274   5.596   2.825  0.2579  0.6156  0.3865
 9688TIP3    H150555   6.235   5.658   2.762  1.0100  0.6236 -0.0808
 9688TIP3    H250556   6.198   5.554   2.866 -0.3279 -1.3517 -2.4084
 9689TIP3   OH250557   0.620   1.716   6.359  0.1105 -0.1201 -0.2181
 9689TIP3    H150558   0.593   1.807   6.351 -1.8453 -0.7009 -0.7408
 9689TIP3    H250559   0.575   1.684   6.437  0.8126 -0.6443 -0.0132
 9690TIP3   OH250560   2.155   3.569  11.434 -0.1035  0.5730 -0.3078
 9690TIP3    H150561   2.080   3.607  11.388 -1.3784  0.6374  1.6943
 9690TIP3    H250562   2.144   3.475  11.424  0.0356  0.5986 -0.7280
 9691TIP3   OH250563   0.824   5.672  15.151 -0.6580  0.0469 -0.5328
 9691TIP3    H150564   0.771   5.751  15.141 -1.5131 -0.4190  0.1907
 9691TIP3    H250565   0.904   5.702  15.195 -1.5301  0.3311  0.9432
 9692TIP3   OH250566   2.304   0.898  17.220 -0.1560 -0.5318 -0.7114
 9692TIP3    H150567   2.383   0.905  17.166  0.5391  1.9753  0.4345
 9692TIP3    H250568   2.321   0.959  17.293 -2.3806 -1.3578  0.5695
 9693TIP3   OH250569   5.102   1.581   2.929 -0.4205  0.4126 -0.7138
 9693TIP3    H150570   5.042   1.507   2.923 -0.2725  0.2807 -0.5578
 9693TIP3    H250571   5.131   1.595   2.839 -1.1026  0.8262 -0.8821
 9694TIP3   OH250572   4.792   6.771  15.142 -0.2786  0.0289 -0.5541
 9694TIP3    H150573   4.835   6.738  15.063 -0.2424 -1.3200 -0.0043
 9694TIP3    H250574   4.708   6.805  15.111 -0.2185 -0.3845 -1.1946
 9695TIP3   OH250575   4.190   5.762  13.678  0.1922 -0.2706 -0.5765
 9695TIP3    H150576   4.282   5.765  13.649  0.7068 -0.2720  0.9679
 9695TIP3    H250577   4.191   5.802  13.765 -1.3037 -0.1616 -0.5887
 9696TIP3   OH250578   2.364   6.655  17.228 -0.4384  0.2981  0.0202
 9696TIP3    H150579   2.363   6.633  17.135 -0.9429 -2.1743  0.5400
 9696TIP3    H250580   2.299   6.597  17.267 -1.5208  2.5018  1.7068
 9697TIP3   OH250581   0.906   4.072  15.622  0.0304 -0.2350 -0.1561
 9697TIP3    H150582   0.914   4.151  15.674  0.0069 -0.0901 -0.3728
 9697TIP3    H250583   0.896   4.002  15.687 -0.6202  0.0139  0.0309
 9698TIP3   OH250584   0.337   4.821   1.645 -0.4589 -0.1230 -0.2655
 9698TIP3    H150585   0.418   4.834   1.694  0.0054  0.3639 -1.1479
 9698TIP3    H250586   0.328   4.900   1.592 -1.1201 -0.5026 -0.7310
 9699TIP3   OH250587   2.907   1.887   1.894  0.2596  0.4373 -0.3211
 9699TIP3    H150588   2.950   1.972   1.899 -0.6423  0.8697  0.3514
 9699TIP3    H250589   2.973   1.825   1.925  1.3056  0.7278 -1.8941
 9700TIP3   OH250590   3.360   4.619  15.525  0.1460 -0.0206  0.6348
 9700TIP3    H150591   3.369   4.714  15.522  0.0866 -0.0372 -1.1259
 9700TIP3    H250592   3.267   4.604  15.540  0.0899  0.2041  0.5101
 9701TIP3   OH250593   2.198   3.516  12.304  0.4612 -0.1063 -0.0107
 9701TIP3    H150594   2.242   3.584  12.254  0.3841 -0.9659 -1.3121
 9701TIP3    H250595   2.209   3.437  12.251  0.3351 -1.0596  1.3312
 9702TIP3   OH250596   2.971   3.445   1.073  0.5442 -0.2847 -0.1731
 9702TIP3    H150597   3.055   3.473   1.035  1.0966 -0.9969  0.4865
 9702TIP3    H250598   2.967   3.489   1.158  0.8056 -1.1352  0.2983
 9703TIP3   OH250599   0.357   5.806  12.173  0.7734 -0.4858 -0.0300
 9703TIP3    H150600   0.292   5.740  12.197  0.9586 -1.1399 -1.2963
 9703TIP3    H250601   0.439   5.757  12.161  1.1463  0.1149 -0.0172
 9704TIP3   OH250602   2.017   2.136  14.129  0.1622 -0.4428 -0.1050
 9704TIP3    H150603   1.976   2.184  14.057  3.2488  0.7509 -1.2531
 9704TIP3    H250604   2.083   2.082  14.086  0.5928 -1.4032  1.6894
 9705TIP3   OH250605   1.272   5.645   5.568 -0.3665  0.3180 -0.2004
 9705TIP3    H150606   1.342   5.621   5.629  0.9485  2.2279 -0.8705
 9705TIP3    H250607   1.233   5.723   5.605  0.3472  1.4196 -1.6384
 9706TIP3   OH250608   5.498   3.595  16.464  0.0796  0.3233 -0.0288
 9706TIP3    H150609   5.442   3.522  16.490  0.5943  0.2117  0.8146
 9706TIP3    H250610   5.437   3.669  16.453 -0.3133  0.0388  0.2071
 9707TIP3   OH250611   3.923   5.251  12.874  0.0239  0.2056  0.0190
 9707TIP3    H150612   3.977   5.200  12.935 -1.3531 -2.0767 -0.5882
 9707TIP3    H250613   3.986   5.291  12.814  1.1728 -0.4361  0.7667
 9708TIP3   OH250614   1.899   2.659  12.285 -0.0169  0.2487 -0.5455
 9708TIP3    H150615   1.980   2.657  12.235  1.3270  0.3460  1.5008
 9708TIP3    H250616   1.862   2.746  12.268  0.6039  0.4216 -1.0544
 9709TIP3   OH250617   1.620   1.003   2.375  0.4473 -0.1199  0.0212
 9709TIP3    H150618   1.616   1.018   2.470  0.0763 -1.2591  0.1943
 9709TIP3    H250619   1.713   0.989   2.358  0.3569 -1.4873  0.4935
 9710TIP3   OH250620   5.223   0.028   0.887 -0.2024 -0.3484 -0.0966
 9710TIP3    H150621   5.284  -0.010   0.951  0.8216  0.2407 -0.6856
 9710TIP3    H250622   5.275   0.036   0.807 -0.9491  0.5315 -0.5127
 9711TIP3   OH250623   4.379   6.765  16.937 -0.1588  0.2527 -0.2950
 9711TIP3    H150624   4.376   6.798  17.027  1.3178 -1.3995  0.4360
 9711TIP3    H250625   4.293   6.727  16.922 -0.5194  0.8132  0.3166
 9712TIP3   OH250626   6.022   6.779   3.791  0.0982 -0.5606  0.1163
 9712TIP3    H150627   5.951   6.838   3.764 -0.1484  0.1369  2.1570
 9712TIP3    H250628   5.978   6.698   3.817 -0.0277 -0.0271  1.6633
 9713TIP3   OH250629   2.001   4.795   2.196 -0.0398  0.1121 -0.3080
 9713TIP3    H150630   1.956   4.752   2.123 -1.0290  0.3643  0.1431
 9713TIP3    H250631   1.951   4.771   2.274  0.9946 -0.1393  0.3055
 9714TIP3   OH250632   4.339   5.417   0.810 -0.5011  0.4234  0.1796
 9714TIP3    H150633   4.269   5.375   0.760  0.6008  0.4388 -1.4625
 9714TIP3    H250634   4.409   5.351   0.813  0.2075  1.1455 -0.0690
 9715TIP3   OH250635   1.892   3.325   1.728  0.5055 -0.1459  0.2923
 9715TIP3    H150636   1.966   3.372   1.768 -0.2440  2.1895 -0.8918
 9715TIP3    H250637   1.926   3.294   1.644  0.0407  1.3941 -0.4925
 9716TIP3   OH250638   5.825   0.557  15.742 -0.0355 -0.1516 -0.4618
 9716TIP3    H150639   5.799   0.565  15.650 -1.6624 -1.0290 -0.1217
 9716TIP3    H250640   5.748   0.519  15.785  0.8563 -0.1720  1.1831
 9717TIP3   OH250641   4.046   2.831  11.135  0.1474 -0.3946 -0.2053
 9717TIP3    H150642   4.033   2.747  11.091 -0.1038 -0.6332  0.3118
 9717TIP3    H250643   3.986   2.890  11.092  2.0496  0.1758 -2.2532
 9718TIP3   OH250644   2.280   6.225   2.083  0.5906 -0.3440  0.3996
 9718TIP3    H150645   2.341   6.278   2.031 -0.4811 -0.1395 -0.7083
 9718TIP3    H250646   2.199   6.227   2.033 -0.2691 -0.7957  1.7300
 9719TIP3   OH250647   6.248   2.073   4.531 -0.3498  0.4996 -0.4697
 9719TIP3    H150648   6.155   2.071   4.552 -0.3207  2.2349 -0.0513
 9719TIP3    H250649   6.268   2.166   4.520  1.5021  0.2066  0.1822
 9720TIP3   OH250650   0.342   1.306   5.127  0.0009  0.0098  0.1616
 9720TIP3    H150651   0.437   1.316   5.118  0.0610  1.6651  1.8380
 9720TIP3    H250652   0.307   1.394   5.112 -1.3038 -0.6109 -0.6245
 9721TIP3   OH250653   4.942   4.236  14.250  0.4873  0.1873  0.0438
 9721TIP3    H150654   4.920   4.205  14.338  1.2084 -0.6076 -0.0466
 9721TIP3    H250655   4.990   4.317  14.265  0.9824 -0.1630  0.4131
 9722TIP3   OH250656   4.188   0.071  10.899  0.2169 -0.7953  0.2611
 9722TIP3    H150657   4.197   0.037  10.810 -0.9673 -1.8702  0.5136
 9722TIP3    H250658   4.261   0.032  10.947 -0.0724 -1.5341  0.1158
 9723TIP3   OH250659   0.721   3.495   2.722  0.1602 -0.1533 -0.5095
 9723TIP3    H150660   0.744   3.411   2.761  1.2508  0.1542 -0.4494
 9723TIP3    H250661   0.710   3.554   2.798  0.3284 -0.0182 -0.5897
 9724TIP3   OH250662   2.238   0.353   4.164 -0.5119  0.2523  0.3145
 9724TIP3    H150663   2.200   0.429   4.119 -2.0650 -1.0365 -0.6238
 9724TIP3    H250664   2.184   0.342   4.242 -0.9095 -0.4733 -0.0610
 9725TIP3   OH250665   5.752   4.174   4.293  0.0896 -0.0560  0.1223
 9725TIP3    H150666   5.738   4.094   4.344  0.3231 -0.3027 -0.2046
 9725TIP3    H250667   5.731   4.244   4.355 -2.3337 -0.3791 -0.2126
 9726TIP3   OH250668   0.116   0.321   1.363  0.4909  0.6083  0.1287
 9726TIP3    H150669   0.122   0.412   1.335  0.0038  0.1700 -1.5148
 9726TIP3    H250670   0.187   0.310   1.425  0.1843  2.2552  0.8220
 9727TIP3   OH250671   2.460   1.768  15.979 -0.1786 -0.7165  0.7542
 9727TIP3    H150672   2.468   1.864  15.984  1.6847 -0.5806 -2.1327
 9727TIP3    H250673   2.546   1.736  16.007 -0.9814 -1.6543  2.2779
 9728TIP3   OH250674   0.691   6.004  13.464  0.0109  0.4302  0.2819
 9728TIP3    H150675   0.619   5.954  13.505 -0.9040  2.3815  1.1879
 9728TIP3    H250676   0.768   5.950  13.479 -0.9905 -0.9281  0.8173
 9729TIP3   OH250677   4.131   6.752  13.223 -0.3235 -0.4594 -0.0676
 9729TIP3    H150678   4.048   6.713  13.252 -0.2675 -1.6727 -1.3916
 9729TIP3    H250679   4.106   6.809  13.151  0.0000 -1.1127 -0.7158
 9730TIP3   OH250680   5.959   1.669   0.620 -0.0940  0.1083  0.4479
 9730TIP3    H150681   5.987   1.645   0.532 -1.3904 -0.6837  0.2284
 9730TIP3    H250682   5.963   1.586   0.669 -0.2315  0.3685  0.9035
 9731TIP3   OH250683   0.475   3.093   3.723 -0.0615 -0.0351 -0.5023
 9731TIP3    H150684   0.442   3.013   3.763 -0.5456 -0.5469 -1.8817
 9731TIP3    H250685   0.563   3.104   3.760 -0.0221 -1.1538 -0.2375
 9732TIP3   OH250686   6.076   4.326   6.337  0.3740  0.4378 -0.3202
 9732TIP3    H150687   6.078   4.404   6.392  0.5287  0.4630 -0.3584
 9732TIP3    H250688   6.090   4.359   6.248 -0.6143  0.4719 -0.4657
 9733TIP3   OH250689   6.599   1.427  13.462  0.1960  0.4676 -0.0934
 9733TIP3    H150690   6.595   1.522  13.472 -1.1255  0.3311  0.9609
 9733TIP3    H250691   6.561   1.410  13.376  0.3952  0.8927 -0.2662
 9734TIP3   OH250692   5.317   6.275   4.283  0.6781 -0.4112 -0.1485
 9734TIP3    H150693   5.355   6.344   4.337  1.5569  0.0910 -1.3652
 9734TIP3    H250694   5.355   6.194   4.318  3.4551  0.1116 -1.6685
 9735TIP3   OH250695   4.840   6.648  16.037 -0.0390  0.2164 -0.6526
 9735TIP3    H150696   4.796   6.607  16.111  0.0423  0.5689 -0.4087
 9735TIP3    H250697   4.823   6.742  16.048  2.1695  0.5585  0.3882
 9736TIP3   OH250698   1.279   0.992  13.909 -0.1767  0.3943  0.2682
 9736TIP3    H150699   1.236   1.075  13.889 -1.3351 -0.3850 -0.5803
 9736TIP3    H250700   1.208   0.927  13.909  0.8497 -0.7632 -0.1213
 9737TIP3   OH250701   2.616   0.245   3.629 -0.2693  0.4330  0.1903
 9737TIP3    H150702   2.581   0.247   3.540 -0.6166 -0.1227  0.3127
 9737TIP3    H250703   2.541   0.224   3.684  0.3335 -1.2645  0.4078
 9738TIP3   OH250704   2.295   5.221  12.093 -0.5910  0.1038 -0.2055
 9738TIP3    H150705   2.380   5.178  12.099 -0.7158  0.0648  2.2258
 9738TIP3    H250706   2.290   5.277  12.171 -1.9572  1.7153 -1.3690
 9739TIP3   OH250707   2.287   4.256   2.684  0.0231 -0.5435  0.0901
 9739TIP3    H150708   2.370   4.253   2.638 -0.2506 -2.2488 -0.3555
 9739TIP3    H250709   2.301   4.203   2.763 -0.2202  0.3466  0.7399
 9740TIP3   OH250710   3.686   1.855  16.855 -0.6754 -0.3545 -0.1663
 9740TIP3    H150711   3.608   1.812  16.821 -1.0345 -0.0942  0.3182
 9740TIP3    H250712   3.757   1.793  16.839 -1.2430 -1.2879  0.8675
 9741TIP3   OH250713   1.450   6.211  11.547 -0.4383  0.8125  0.2535
 9741TIP3    H150714   1.478   6.120  11.550 -2.7521  0.0689  1.9886
 9741TIP3    H250715   1.521   6.256  11.502  0.9151 -1.7725 -0.3906
 9742TIP3   OH250716   6.013   6.726  14.473 -0.0272  0.5009 -0.4851
 9742TIP3    H150717   5.960   6.676  14.411  0.9136  0.0767 -0.9686
 9742TIP3    H250718   6.103   6.711  14.445  0.2884  2.5342 -0.6776
 9743TIP3   OH250719   3.780   2.925  11.829 -0.1934  0.5600 -0.6249
 9743TIP3    H150720   3.686   2.916  11.844  0.0540  0.5159  1.0443
 9743TIP3    H250721   3.808   2.839  11.798 -0.6515  0.5015 -0.8821
 9744TIP3   OH250722   6.147   1.623  15.280 -0.4584 -0.0588 -0.0400
 9744TIP3    H150723   6.129   1.532  15.304 -2.2801 -0.1954 -1.6695
 9744TIP3    H250724   6.124   1.674  15.358 -0.0508 -0.9290  0.6589
 9745TIP3   OH250725   5.099   4.989   5.416 -0.3970  0.1017 -0.0716
 9745TIP3    H150726   5.157   5.048   5.464 -0.3262 -0.2059  0.2250
 9745TIP3    H250727   5.138   4.984   5.329  0.1167 -0.2243  0.1702
 9746TIP3   OH250728   2.976   5.068  13.133  0.1015 -0.8542 -0.6795
 9746TIP3    H150729   2.960   5.101  13.221  1.8638 -0.4965 -0.4491
 9746TIP3    H250730   2.894   5.084  13.086 -0.3218  0.4597  0.4384
 9747TIP3   OH250731   2.035   4.572   5.401 -0.1553 -0.2156 -0.4169
 9747TIP3    H150732   2.104   4.537   5.344 -1.0814 -1.0232 -1.0643
 9747TIP3    H250733   2.023   4.662   5.371  0.3660 -0.1759 -0.5255
 9748TIP3   OH250734   6.686   6.344  17.251 -0.2340  0.5137  0.3987
 9748TIP3    H150735   6.716   6.388  17.172  1.4695 -1.3943 -0.0918
 9748TIP3    H250736   6.765   6.329  17.302 -0.7360 -1.6593  0.6553
 9749TIP3   OH250737   3.847   3.217   2.724  0.1665  0.1699  0.2175
 9749TIP3    H150738   3.790   3.290   2.702  0.1832  0.0555 -0.2145
 9749TIP3    H250739   3.851   3.164   2.644 -1.0865 -1.1471  0.9665
 9750TIP3   OH250740   1.950   3.547  17.058  0.6752 -0.4744 -0.6441
 9750TIP3    H150741   2.018   3.594  17.106  0.8556 -1.7189  0.3508
 9750TIP3    H250742   1.930   3.604  16.983  1.1115  1.0278  0.3375
 9751TIP3   OH250743   6.490   5.907   5.289 -0.1052 -0.1312  0.2195
 9751TIP3    H150744   6.536   5.823   5.288  1.6678  0.7854 -1.7008
 9751TIP3    H250745   6.531   5.958   5.220 -3.4367  1.1427 -1.0466
 9752TIP3   OH250746   1.271   4.251  15.770  0.0874 -0.3164  0.9071
 9752TIP3    H150747   1.320   4.228  15.691 -1.0271  0.5225 -0.0600
 9752TIP3    H250748   1.311   4.198  15.839  0.9629 -1.2153 -0.2505
 9753TIP3   OH250749   3.173   2.110   2.269  0.3292  0.1200  0.2374
 9753TIP3    H150750   3.237   2.172   2.235 -0.5444  0.4285 -0.9099
 9753TIP3    H250751   3.224   2.030   2.284  0.9289  0.2586 -0.9562
 9754TIP3   OH250752   5.166   2.252  14.055  0.4179 -0.5713 -0.2014
 9754TIP3    H150753   5.223   2.303  13.998 -1.3382  3.5932  1.3530
 9754TIP3    H250754   5.225   2.217  14.122  2.0365 -2.9632 -2.6592
 9755TIP3   OH250755   4.706   2.525   3.616  0.2052  0.2619  0.1133
 9755TIP3    H150756   4.629   2.522   3.673  0.8069  0.8083  0.9745
 9755TIP3    H250757   4.670   2.534   3.528 -0.7301 -0.0539  0.4500
 9756TIP3   OH250758   2.437   2.212   5.380 -0.2377  0.0244 -0.1731
 9756TIP3    H150759   2.462   2.285   5.325  1.3224 -1.2899 -1.3003
 9756TIP3    H250760   2.379   2.251   5.447  0.5132  2.2390 -0.7272
 9757TIP3   OH250761   2.187   4.573  13.292  0.5932  0.3313 -0.2970
 9757TIP3    H150762   2.158   4.628  13.365 -2.1229  1.2803 -1.9194
 9757TIP3    H250763   2.226   4.635  13.230 -0.6482  0.1911 -1.2614
 9758TIP3   OH250764   3.000   5.437  13.516 -0.0549 -0.5171  0.6560
 9758TIP3    H150765   3.024   5.522  13.479 -1.0545 -0.7427 -0.6086
 9758TIP3    H250766   2.932   5.457  13.581  0.3895 -0.2669  1.0421
 9759TIP3   OH250767   6.019   1.110  15.934 -0.4213 -0.4706  0.5958
 9759TIP3    H150768   6.008   1.024  15.893 -0.4733 -0.7516  1.1739
 9759TIP3    H250769   6.038   1.089  16.026 -0.5198  0.1417  0.7578
 9760TIP3   OH250770   1.805   6.189  16.015 -0.3047 -0.1262 -0.3380
 9760TIP3    H150771   1.739   6.120  16.013 -0.6416  0.2008 -0.7920
 9760TIP3    H250772   1.755   6.270  16.005  0.0824  0.1877  0.2556
 9761TIP3   OH250773   1.842   4.630  12.512 -0.1491 -0.0881 -0.0126
 9761TIP3    H150774   1.859   4.591  12.598 -0.6307  1.7241  0.9346
 9761TIP3    H250775   1.929   4.653  12.478  0.0015 -0.3210  0.2151
 9762TIP3   OH250776   1.021   6.400   1.207  0.0302 -0.0614 -0.2605
 9762TIP3    H150777   1.051   6.489   1.223  1.2859 -0.0855 -2.2153
 9762TIP3    H250778   0.933   6.411   1.169 -0.2499  0.2641  0.4592
 9763TIP3   OH250779   4.814   4.272   3.789 -0.3428  0.8418 -0.5351
 9763TIP3    H150780   4.785   4.303   3.875 -0.9624 -1.7448  0.3048
 9763TIP3    H250781   4.740   4.220   3.756  1.1855 -1.2402 -0.9087
 9764TIP3   OH250782   0.409   1.942  12.112  0.6204 -0.4526 -0.0463
 9764TIP3    H150783   0.396   2.037  12.111  1.5233 -0.2893 -2.3838
 9764TIP3    H250784   0.486   1.929  12.167 -1.0268 -0.1602  2.5161
 9765TIP3   OH250785   3.699   4.054   2.965 -0.1275 -0.0900  0.0279
 9765TIP3    H150786   3.768   4.028   2.904 -0.6609 -0.4791 -0.4257
 9765TIP3    H250787   3.741   4.116   3.024  1.2990 -2.2216  1.3779
 9766TIP3   OH250788   5.601   2.368  15.114 -0.7905  0.2540 -0.9268
 9766TIP3    H150789   5.653   2.308  15.060 -0.4823  0.1694 -0.5351
 9766TIP3    H250790   5.656   2.387  15.189 -0.2461  2.2724 -1.7729
 9767TIP3   OH250791   5.813   0.051   3.631 -0.3031 -0.4311  0.1010
 9767TIP3    H150792   5.739   0.098   3.592 -0.9099 -1.1664  0.3501
 9767TIP3    H250793   5.773  -0.009   3.693  0.5621 -0.3054  0.7991
 9768TIP3   OH250794   1.784   0.268   4.688 -0.0412  0.5066  0.7479
 9768TIP3    H150795   1.759   0.190   4.639  2.5786  0.7075 -1.1352
 9768TIP3    H250796   1.795   0.335   4.621  0.6576  1.6809  1.9932
 9769TIP3   OH250797   3.462   1.917   5.734  0.0320  0.1310 -0.3911
 9769TIP3    H150798   3.385   1.964   5.765  0.1453  0.5029 -0.6722
 9769TIP3    H250799   3.428   1.831   5.706 -0.0210 -0.3397  1.0547
 9770TIP3   OH250800   2.663   1.239  14.419 -0.3274  0.1666  0.1169
 9770TIP3    H150801   2.759   1.245  14.425 -0.2993 -1.0737  1.5297
 9770TIP3    H250802   2.645   1.230  14.325  1.1452 -1.9852 -0.0357
 9771TIP3   OH250803   6.166   2.913  14.963 -0.0535 -0.1012  0.1824
 9771TIP3    H150804   6.095   2.977  14.965 -0.2894 -0.3776  1.0339
 9771TIP3    H250805   6.132   2.840  14.911 -1.0193 -0.9215  1.8877
 9772TIP3   OH250806   1.444   4.276  14.668 -0.0738  0.3165  0.4891
 9772TIP3    H150807   1.392   4.343  14.712 -0.4545 -0.5015  1.3144
 9772TIP3    H250808   1.424   4.195  14.716  0.6644 -0.3152 -0.2506
 9773TIP3   OH250809   2.563   2.127  11.057  0.0665 -0.0231 -0.1006
 9773TIP3    H150810   2.656   2.122  11.034 -0.1398 -0.7666 -0.8038
 9773TIP3    H250811   2.556   2.079  11.140  0.2578 -0.2405 -0.2087
 9774TIP3   OH250812   4.011   0.010   1.877 -0.3184  0.4912 -0.1873
 9774TIP3    H150813   4.024  -0.036   1.794 -2.1929  0.2704 -0.4106
 9774TIP3    H250814   4.094   0.054   1.893  0.6971 -0.9334 -1.2432
 9775TIP3   OH250815   3.286   6.482  14.728  0.2785  0.2825 -0.2829
 9775TIP3    H150816   3.241   6.486  14.812 -0.7309 -0.2178 -0.7775
 9775TIP3    H250817   3.342   6.559  14.727 -0.6089  0.9631  0.3458
 9776TIP3   OH250818   3.227   2.892  15.385 -0.2593 -0.0521 -0.3810
 9776TIP3    H150819   3.186   2.834  15.449 -1.0200 -0.5284 -1.2739
 9776TIP3    H250820   3.288   2.835  15.338  0.5305  0.3688  0.1216
 9777TIP3   OH250821   5.587   0.964   1.138 -0.2266 -0.3868 -0.2185
 9777TIP3    H150822   5.658   0.932   1.192 -0.3064  0.6457  0.5327
 9777TIP3    H250823   5.605   1.058   1.128 -0.9123 -0.3184 -0.8959
 9778TIP3   OH250824   5.123   3.230   5.531 -0.3806 -0.2933  0.7041
 9778TIP3    H150825   5.103   3.186   5.614  0.4111 -0.3315  0.8829
 9778TIP3    H250826   5.083   3.316   5.539  0.6241  0.1101  1.5805
 9779TIP3   OH250827   0.524   5.632  14.861 -0.2673  0.4367 -0.2714
 9779TIP3    H150828   0.512   5.658  14.952  0.9895 -0.4303  0.1760
 9779TIP3    H250829   0.606   5.674  14.834 -1.3931  1.9362 -1.5151
 9780TIP3   OH250830   3.175   0.656   0.157 -0.5491  0.2423  0.2037
 9780TIP3    H150831   3.172   0.562   0.141  0.1552 -0.1317  2.0598
 9780TIP3    H250832   3.258   0.670   0.201 -1.4593  1.4351  1.6227
 9781TIP3   OH250833   6.652   5.716  11.715 -0.2384 -0.1889 -0.1226
 9781TIP3    H150834   6.575   5.734  11.660 -1.3297  0.5836  1.5867
 9781TIP3    H250835   6.718   5.778  11.683 -0.8154  0.1788 -0.6386
 9782TIP3   OH250836   0.946   5.364   3.358 -0.1245 -0.3750 -0.1702
 9782TIP3    H150837   0.957   5.453   3.392 -1.3603  0.4088 -1.6959
 9782TIP3    H250838   0.865   5.333   3.399 -0.0971 -0.5211 -0.2262
 9783TIP3   OH250839   2.729   3.046  12.651 -0.1076  0.2945 -0.1468
 9783TIP3    H150840   2.688   3.029  12.735 -0.1137 -0.2903 -0.2666
 9783TIP3    H250841   2.694   2.979  12.593  0.8931 -0.1136 -0.2917
 9784TIP3   OH250842   1.441   2.988   1.197  0.1759  0.1985 -0.0216
 9784TIP3    H150843   1.373   2.924   1.177  0.7747 -0.3106 -0.4513
 9784TIP3    H250844   1.509   2.973   1.132  0.0611  1.6976 -0.5236
 9785TIP3   OH250845   0.723   6.024  12.097 -0.2057  0.2728 -0.3031
 9785TIP3    H150846   0.640   6.058  12.065 -0.8763 -0.4138  0.6480
 9785TIP3    H250847   0.701   5.940  12.136  0.9603  0.0244 -0.1485
 9786TIP3   OH250848   5.476   4.911   4.834  0.1866 -0.2748 -0.6650
 9786TIP3    H150849   5.391   4.888   4.872  0.3583 -0.5337 -0.4285
 9786TIP3    H250850   5.540   4.887   4.902  0.3349  1.7864 -0.0027
 9787TIP3   OH250851   1.792   5.517   3.307 -0.4858 -0.2685  0.0647
 9787TIP3    H150852   1.759   5.564   3.384  1.4382 -1.2271  1.5394
 9787TIP3    H250853   1.789   5.582   3.236  1.4992  1.9867  1.8775
 9788TIP3   OH250854   4.378   4.619   3.512  0.2422  0.0805 -0.3749
 9788TIP3    H150855   4.380   4.614   3.608 -0.0396 -0.0549 -0.3745
 9788TIP3    H250856   4.435   4.692   3.490  0.1931  0.2036 -0.0944
 9789TIP3   OH250857   3.226   3.071  12.821 -0.3914  0.5107 -0.0651
 9789TIP3    H150858   3.307   3.069  12.872 -0.0985 -1.5984 -0.5323
 9789TIP3    H250859   3.159   3.038  12.881 -0.8042  1.6710  0.1297
 9790TIP3   OH250860   3.662   1.751  15.154 -0.2005  0.4889 -0.1766
 9790TIP3    H150861   3.697   1.688  15.216 -0.2201  1.5399  0.9525
 9790TIP3    H250862   3.631   1.699  15.080  3.1594 -0.5746 -0.9989
 9791TIP3   OH250863   5.124   2.183   1.771 -0.6420  0.6757  0.6404
 9791TIP3    H150864   5.101   2.103   1.724  0.7701  1.2414 -1.1206
 9791TIP3    H250865   5.213   2.204   1.742 -0.2473  1.8693  2.5094
 9792TIP3   OH250866   5.894   1.264   1.810 -0.3305 -0.5528  0.3262
 9792TIP3    H150867   5.887   1.261   1.906 -2.1491  1.4130  0.3192
 9792TIP3    H250868   5.813   1.224   1.779  0.6201 -1.9550 -0.4591
 9793TIP3   OH250869   6.227   3.916   2.826  0.2900 -0.3513 -0.3184
 9793TIP3    H150870   6.148   3.956   2.790  1.1658  1.6910 -0.0977
 9793TIP3    H250871   6.283   3.900   2.750 -0.9868 -3.6881 -0.7623
 9794TIP3   OH250872   3.529   2.003   4.083 -0.4563 -0.1791 -0.5877
 9794TIP3    H150873   3.473   2.024   4.158 -1.2235 -2.3003 -0.4774
 9794TIP3    H250874   3.483   2.041   4.008 -1.1793 -0.4526 -0.2966
 9795TIP3   OH250875   5.582   2.142   4.853  0.5609 -0.8796  0.2828
 9795TIP3    H150876   5.604   2.233   4.831  0.6005 -0.9695 -0.0684
 9795TIP3    H250877   5.505   2.123   4.800  1.1778 -1.3814 -0.4623
 9796TIP3   OH250878   4.284   2.587   6.840  0.0698  0.2962  0.4444
 9796TIP3    H150879   4.375   2.561   6.827 -0.1777 -0.6035  0.4693
 9796TIP3    H250880   4.232   2.517   6.800 -0.6394  0.0149  1.7975
 9797TIP3   OH250881   0.340   5.835  13.518 -0.1685  0.1490 -0.0500
 9797TIP3    H150882   0.311   5.840  13.427 -0.4354 -2.9037 -0.2156
 9797TIP3    H250883   0.269   5.791  13.564  1.4027 -1.5827  0.8601
 9798TIP3   OH250884   1.737   3.941  11.362 -0.8808  0.3956  0.3485
 9798TIP3    H150885   1.791   4.016  11.338  2.0371 -2.0227 -1.3054
 9798TIP3    H250886   1.670   3.936  11.294 -0.9718  1.3340  0.3628
 9799TIP3   OH250887   0.816   1.509  10.447 -0.7410  0.4557 -0.8957
 9799TIP3    H150888   0.762   1.582  10.477  0.2978 -0.0066  2.6039
 9799TIP3    H250889   0.887   1.550  10.398  0.6095  2.1148  2.1928
 9800TIP3   OH250890   5.113   1.686  12.694  0.3808  0.2570  0.1014
 9800TIP3    H150891   5.176   1.705  12.763  0.9565  0.0818 -0.3664
 9800TIP3    H250892   5.157   1.713  12.613  0.3157 -0.9153 -0.3450
 9801TIP3   OH250893   6.099   1.320  17.212  0.3867  0.4204 -0.0288
 9801TIP3    H150894   6.055   1.395  17.172 -0.3787  0.6719  1.2219
 9801TIP3    H250895   6.188   1.350  17.229  0.9655  0.0611 -2.1761
 9802TIP3   OH250896   5.912   4.165   1.735  0.4395 -0.2076  0.4404
 9802TIP3    H150897   5.965   4.163   1.655  0.0720 -0.6267  0.2046
 9802TIP3    H250898   5.917   4.256   1.765 -1.0119  0.4353 -1.1341
 9803TIP3   OH250899   2.656   6.158  14.060 -0.0590  0.0866  0.3514
 9803TIP3    H150900   2.567   6.144  14.092 -0.4597  1.4264 -0.1201
 9803TIP3    H250901   2.667   6.253  14.060  1.6389 -0.0623  1.1035
 9804TIP3   OH250902   4.238   3.974   4.573  0.2971  0.5122  0.0986
 9804TIP3    H150903   4.291   3.917   4.518  0.7856 -0.0846  1.1625
 9804TIP3    H250904   4.229   4.055   4.522  2.0090  0.5321 -0.2210
 9805TIP3   OH250905   5.073   3.653  15.807 -0.0104 -0.2750 -0.0124
 9805TIP3    H150906   5.100   3.563  15.790 -0.2043 -0.5220  0.9393
 9805TIP3    H250907   5.150   3.693  15.847  0.4400  0.3003 -1.3801
 9806TIP3   OH250908   6.759   6.584   4.020  0.2605 -0.0952 -0.0446
 9806TIP3    H150909   6.827   6.644   4.051  0.6608 -0.6601  0.1974
 9806TIP3    H250910   6.726   6.624   3.940  0.4866  0.4737  0.1408
 9807TIP3   OH250911   4.440   4.918   1.995 -0.5631 -0.8671  0.4397
 9807TIP3    H150912   4.449   4.970   1.916 -0.8325 -0.0687  0.9227
 9807TIP3    H250913   4.525   4.877   2.007 -0.7670 -1.6507 -0.7065
 9808TIP3   OH250914   4.710   0.751   3.565 -0.3104 -0.5435  0.4442
 9808TIP3    H150915   4.683   0.734   3.655  0.1111  1.0705  0.9177
 9808TIP3    H250916   4.714   0.846   3.559 -3.0587 -0.4289 -2.1229
 9809TIP3   OH250917   4.213   3.870  13.906 -0.4342 -0.2038 -0.0042
 9809TIP3    H150918   4.243   3.870  13.815  0.5435  1.5996  0.2531
 9809TIP3    H250919   4.278   3.818  13.953 -0.6927 -0.7624 -0.2588
 9810TIP3   OH250920   4.546   0.033   1.943 -0.2036 -0.2908 -0.3126
 9810TIP3    H150921   4.507   0.083   1.870 -0.7062  0.4058  0.4130
 9810TIP3    H250922   4.536   0.091   2.019  1.0191 -0.6896  0.1625
 9811TIP3   OH250923   6.731   2.270  14.377  0.2638 -0.3024 -0.2305
 9811TIP3    H150924   6.808   2.219  14.403 -0.0155  0.0360  1.3790
 9811TIP3    H250925   6.766   2.350  14.340  0.6881 -0.9382 -1.2544
 9812TIP3   OH250926   1.621   0.383   1.419 -0.3604  0.3187 -0.3348
 9812TIP3    H150927   1.714   0.404   1.431 -0.1629 -0.1800 -0.9381
 9812TIP3    H250928   1.609   0.302   1.468 -0.4276  0.2712 -0.4302
 9813TIP3   OH250929   4.931   3.572  14.286 -0.4608  0.9986 -0.1121
 9813TIP3    H150930   4.865   3.587  14.354  0.2024 -0.0696  0.7993
 9813TIP3    H250931   4.972   3.657  14.274 -0.3876  1.1409  1.0525
 9814TIP3   OH250932   5.420   5.352  14.365  0.4813  0.2641  0.1662
 9814TIP3    H150933   5.440   5.309  14.282 -0.1782  1.9348 -0.9233
 9814TIP3    H250934   5.413   5.445  14.342 -4.5795  0.4025  1.0270
 9815TIP3   OH250935   6.369   1.681   2.881 -0.0793 -0.1690  0.5506
 9815TIP3    H150936   6.358   1.757   2.824  1.1385 -0.1914  0.2397
 9815TIP3    H250937   6.301   1.689   2.947  0.8588  1.9144  1.3132
 9816TIP3   OH250938   4.206   0.348   4.003  0.3647  0.1003  0.5625
 9816TIP3    H150939   4.151   0.280   4.042 -0.1497 -0.0854 -0.4771
 9816TIP3    H250940   4.178   0.354   3.912  1.6897  0.3991  0.1489
 9817TIP3   OH250941   4.633   2.440   1.753 -0.3488  0.1643 -0.1187
 9817TIP3    H150942   4.635   2.354   1.710  0.0207  1.1844 -2.2616
 9817TIP3    H250943   4.678   2.426   1.836 -0.4681 -1.7486 -0.3316
 9818TIP3   OH250944   5.424   0.169   2.534  0.0225 -0.1500 -0.4543
 9818TIP3    H150945   5.336   0.197   2.559  0.7334  3.0279 -1.0439
 9818TIP3    H250946   5.453   0.114   2.607 -1.7626  0.2402  0.6153
 9819TIP3   OH250947   1.058   6.527  11.469  0.3602  0.2407  0.1769
 9819TIP3    H150948   1.137   6.523  11.524 -0.2807 -1.4543  1.0357
 9819TIP3    H250949   1.087   6.573  11.390  2.5404 -1.3115 -0.0292
 9820TIP3   OH250950   2.195   4.608   4.916  0.3102  1.1743 -0.1950
 9820TIP3    H150951   2.234   4.680   4.966 -0.1111  0.6930  0.8553
 9820TIP3    H250952   2.266   4.577   4.860  0.5828  2.1948 -0.4425
 9821TIP3   OH250953   5.232   2.339  17.056 -0.1437  0.5486  0.6682
 9821TIP3    H150954   5.306   2.374  17.105 -0.0538  1.1707  0.1065
 9821TIP3    H250955   5.267   2.261  17.013  0.2689  0.9797  0.2039
 9822TIP3   OH250956   3.431   6.581   0.437  0.2895 -0.0761  0.1113
 9822TIP3    H150957   3.392   6.636   0.370  0.6410  0.6348  0.4797
 9822TIP3    H250958   3.439   6.494   0.396 -1.0075 -0.0642 -0.1967
 9823TIP3   OH250959   1.979   0.564  15.833 -0.4176  0.1256 -0.1632
 9823TIP3    H150960   1.967   0.560  15.738  0.2130  0.4970 -0.2700
 9823TIP3    H250961   2.005   0.655  15.849 -1.6437  0.3778  0.5091
 9824TIP3   OH250962   5.090   5.300   1.799  0.1107 -0.4752  0.2771
 9824TIP3    H150963   5.141   5.303   1.879 -0.5568 -0.0205  0.6978
 9824TIP3    H250964   5.025   5.232   1.815  0.3061 -0.7527 -0.0885
 9825TIP3   OH250965   2.424   3.988  13.767 -0.1367 -0.7127 -0.6038
 9825TIP3    H150966   2.489   3.965  13.833  1.8175  0.4559 -2.0376
 9825TIP3    H250967   2.389   4.073  13.796 -0.3512 -0.8860 -0.3433
 9826TIP3   OH250968   3.113   4.492   3.491 -0.2491 -0.2914 -0.0125
 9826TIP3    H150969   3.169   4.414   3.490 -0.5948 -0.5899  1.2910
 9826TIP3    H250970   3.163   4.559   3.445  1.3244 -0.4708  1.3442
 9827TIP3   OH250971   0.720   1.418   3.003  0.2535 -0.5027 -0.9631
 9827TIP3    H150972   0.709   1.342   2.946 -0.3116 -1.5604  0.4983
 9827TIP3    H250973   0.634   1.433   3.041  0.7315 -0.1966  0.0467
 9828TIP3   OH250974   5.477   5.098   2.058  0.1758 -0.1497  0.2258
 9828TIP3    H150975   5.381   5.099   2.059  0.1690  0.1182 -0.3386
 9828TIP3    H250976   5.502   5.167   2.119  0.0014  0.5297 -0.4678
 9829TIP3   OH250977   2.357   1.326  16.429 -0.3293  0.0508  0.0344
 9829TIP3    H150978   2.305   1.392  16.475  1.3790  0.9122  0.8503
 9829TIP3    H250979   2.440   1.322  16.478  0.2391 -1.5508 -0.9466
 9830TIP3   OH250980   1.208   1.057   4.397 -0.1612 -0.1907 -0.0995
 9830TIP3    H150981   1.224   1.149   4.418 -1.0435  0.6639 -2.8184
 9830TIP3    H250982   1.121   1.056   4.357  0.7508 -1.7880 -2.2641
 9831TIP3   OH250983   6.564   4.646   1.564 -0.1819  0.2402 -0.3161
 9831TIP3    H150984   6.482   4.601   1.583 -0.1781 -0.0138 -0.8849
 9831TIP3    H250985   6.542   4.739   1.569 -0.8583  0.1890 -1.8568
 9832TIP3   OH250986   3.927   3.834   1.557 -0.5847  0.6991  0.1836
 9832TIP3    H150987   3.859   3.822   1.491  1.0578 -0.2574 -1.4554
 9832TIP3    H250988   3.996   3.883   1.512  1.6280 -2.0345  0.2751
 9833TIP3   OH250989   4.665   5.718   5.906  0.3982 -0.4500 -0.0953
 9833TIP3    H150990   4.705   5.644   5.861 -0.6171 -0.6081 -0.7742
 9833TIP3    H250991   4.604   5.678   5.968 -1.5064 -0.2233 -1.7194
 9834TIP3   OH250992   0.891   5.931  11.038  0.2561  0.0021  0.4217
 9834TIP3    H150993   0.801   5.938  11.007  0.4722 -1.1411 -0.5125
 9834TIP3    H250994   0.886   5.956  11.131 -1.0690 -0.3842  0.4712
 9835TIP3   OH250995   4.276   6.397  16.857  0.1194  0.4961 -0.2665
 9835TIP3    H150996   4.319   6.405  16.771  1.1002 -1.2976  0.0063
 9835TIP3    H250997   4.237   6.309  16.856  0.4845  0.2920  1.2498
 9836TIP3   OH250998   2.125   2.577  15.060 -0.0565  0.2000 -0.2391
 9836TIP3    H150999   2.056   2.511  15.053  0.4643 -0.1650 -2.5960
 9836TIP3    H251000   2.112   2.633  14.983  2.1237  0.2520 -0.6150
 9837TIP3   OH251001   6.678   2.393  12.891 -0.0691 -0.0450 -0.4106
 9837TIP3    H151002   6.709   2.309  12.860 -0.2539  0.4168 -1.9547
 9837TIP3    H251003   6.715   2.403  12.978  0.1531 -1.6004 -0.3157
 9838TIP3   OH251004   6.278   1.303  13.038 -0.0044 -0.1747 -0.0279
 9838TIP3    H151005   6.250   1.389  13.069 -2.1360 -0.6780 -0.4234
 9838TIP3    H251006   6.327   1.321  12.958  1.7793  0.8031  1.2068
 9839TIP3   OH251007   0.553   6.088   2.662  0.5683  0.4171 -0.3367
 9839TIP3    H151008   0.623   6.057   2.719  1.9372  0.8986 -1.6923
 9839TIP3    H251009   0.578   6.178   2.639 -0.7995  0.8104 -0.3840
 9840TIP3   OH251010   2.705   1.109  16.300 -0.2718  0.9568 -0.2803
 9840TIP3    H151011   2.632   1.074  16.248 -0.2227  1.2371 -0.5436
 9840TIP3    H251012   2.735   1.186  16.251  0.6426  0.4533 -0.5202
 9841TIP3   OH251013   4.920   5.594   3.149 -0.1152  0.7732  0.5207
 9841TIP3    H151014   4.868   5.526   3.107  2.1020  0.1065 -1.3614
 9841TIP3    H251015   4.944   5.557   3.234  1.1968 -0.9426 -0.5429
 9842TIP3   OH251016   2.028   3.334  15.326 -0.0467  0.0861  0.2338
 9842TIP3    H151017   2.049   3.415  15.373 -0.8942  0.1755  0.4704
 9842TIP3    H251018   2.086   3.269  15.365  0.3032  0.4776  0.3789
 9843TIP3   OH251019   1.516   1.455  11.564  0.1167  0.0555 -0.2296
 9843TIP3    H151020   1.578   1.498  11.623 -1.2953  1.1118  0.5309
 9843TIP3    H251021   1.526   1.362  11.582 -0.9649  0.3862  2.4511
 9844TIP3   OH251022   5.429   2.097   1.969 -0.5531 -0.2719 -0.0588
 9844TIP3    H151023   5.400   2.125   1.882 -0.7265  0.4390  0.2134
 9844TIP3    H251024   5.416   2.002   1.970 -3.8825  0.0564  0.3679
 9845TIP3   OH251025   4.946   1.752  14.042 -0.2756 -0.3705 -0.5732
 9845TIP3    H151026   4.974   1.837  14.076  1.0079 -1.5495  1.5131
 9845TIP3    H251027   4.968   1.755  13.949  1.7599  0.8025 -0.1180
 9846TIP3   OH251028   4.820   0.848  12.248 -0.1527 -0.1682 -0.0559
 9846TIP3    H151029   4.759   0.849  12.174  1.1347 -0.7166 -1.1763
 9846TIP3    H251030   4.852   0.938  12.254 -1.6680  0.3412  1.1073
 9847TIP3   OH251031   4.336   2.053   4.051  0.4124  0.1466 -0.1717
 9847TIP3    H151032   4.311   2.145   4.056 -1.4265 -0.3418  0.2714
 9847TIP3    H251033   4.374   2.034   4.137  2.1666  0.8094 -0.7433
 9848TIP3   OH251034   6.492   5.492  15.355 -0.0184 -0.3741 -0.3904
 9848TIP3    H151035   6.502   5.552  15.281  0.2553  1.3390  0.9479
 9848TIP3    H251036   6.479   5.406  15.316  2.7256  0.0124 -2.4463
 9849TIP3   OH251037   5.408   2.090  16.210  0.2923  0.1527 -0.2815
 9849TIP3    H151038   5.451   2.005  16.209  0.2498  0.1325 -0.4848
 9849TIP3    H251039   5.460   2.144  16.150 -1.1432 -0.4551 -2.1461
 9850TIP3   OH251040   4.219   6.072   1.741 -0.0580 -0.1281  0.1033
 9850TIP3    H151041   4.298   6.124   1.727 -1.5079  1.9721 -0.7318
 9850TIP3    H251042   4.218   6.055   1.835  1.1210  0.2299  0.2013
 9851TIP3   OH251043   4.675   6.228   0.825  0.3971 -0.3056  0.8477
 9851TIP3    H151044   4.601   6.220   0.885  0.4319 -0.1299  0.9136
 9851TIP3    H251045   4.707   6.139   0.815  0.6120 -0.2878  1.3703
 9852TIP3   OH251046   5.283   6.272   5.576 -0.4042 -0.1957  0.0738
 9852TIP3    H151047   5.305   6.183   5.605  0.4598 -0.3217 -0.8899
 9852TIP3    H251048   5.223   6.305   5.642 -0.9095 -1.5812  0.3360
 9853TIP3   OH251049   6.729   6.050   2.247 -0.3981 -0.0219  0.1546
 9853TIP3    H151050   6.716   5.997   2.325 -0.3481 -0.9509 -0.4585
 9853TIP3    H251051   6.700   6.138   2.273  0.7842 -0.0235  1.5862
 9854TIP3   OH251052   1.995   6.520  16.851 -0.1787  0.1375  0.1438
 9854TIP3    H151053   2.040   6.590  16.900  0.8230 -1.4495  1.6181
 9854TIP3    H251054   1.961   6.564  16.773 -2.1236  2.8908  2.3447
 9855TIP3   OH251055   3.466   1.752   3.162 -0.0476  0.2778  0.3847
 9855TIP3    H151056   3.489   1.779   3.251 -1.1147  0.5339  0.5921
 9855TIP3    H251057   3.411   1.675   3.174 -1.2050  1.0285  0.0092
 9856TIP3   OH251058   2.516   3.053  16.341 -0.0667 -0.5167 -0.3789
 9856TIP3    H151059   2.478   3.131  16.382 -0.7820 -1.7958  1.5104
 9856TIP3    H251060   2.462   3.039  16.263  0.1350  0.9129 -0.8023
 9857TIP3   OH251061   2.966   6.231   5.860  0.2254  0.3244 -0.2155
 9857TIP3    H151062   2.941   6.204   5.772  2.4967  1.0165 -1.1551
 9857TIP3    H251063   2.937   6.159   5.917 -4.1240  1.2140 -0.9668
 9858TIP3   OH251064   3.253   4.238   1.430 -0.0531 -0.5731  0.2449
 9858TIP3    H151065   3.259   4.217   1.337 -0.6272 -0.6987  0.2303
 9858TIP3    H251066   3.322   4.186   1.471  0.1554 -0.5704 -0.0982
 9859TIP3   OH251067   0.650   3.572  13.037 -0.2592 -0.0895  0.5612
 9859TIP3    H151068   0.685   3.494  12.994  0.7377  0.2492  0.7144
 9859TIP3    H251069   0.717   3.595  13.102  0.0266  1.5581 -0.2627
 9860TIP3   OH251070   6.406   3.892   4.209 -0.4499  0.0844 -0.2400
 9860TIP3    H151071   6.469   3.838   4.256 -1.0299 -1.6684 -1.3920
 9860TIP3    H251072   6.438   3.982   4.221  2.7743 -0.7423 -1.4578
 9861TIP3   OH251073   2.786   1.547   1.460 -0.4880  0.2456 -0.3098
 9861TIP3    H151074   2.776   1.594   1.378 -1.5623 -1.7038 -1.3455
 9861TIP3    H251075   2.763   1.611   1.527 -0.0829  1.7253 -1.5290
 9862TIP3   OH251076   5.390   6.642  15.322 -0.1817 -0.6180  0.4843
 9862TIP3    H151077   5.423   6.590  15.396  0.4743 -0.7777  0.0875
 9862TIP3    H251078   5.440   6.723  15.326 -0.5543 -0.3902  0.5545
 9863TIP3   OH251079   3.447   4.912  16.046  0.3682  0.5033 -0.4538
 9863TIP3    H151080   3.522   4.892  16.103 -1.9066 -1.8049  2.0180
 9863TIP3    H251081   3.388   4.964  16.101 -1.7642 -1.5004 -0.6845
 9864TIP3   OH251082   4.047   4.373   4.654 -0.2409 -0.0261 -0.0704
 9864TIP3    H151083   3.994   4.304   4.694 -1.3056  0.3802 -0.7424
 9864TIP3    H251084   4.102   4.328   4.590 -0.4953 -0.3293 -0.0739
 9865TIP3   OH251085   2.501   6.336   5.404  0.2854 -0.1948  0.1267
 9865TIP3    H151086   2.446   6.264   5.372 -0.2259  0.0168  0.5218
 9865TIP3    H251087   2.478   6.344   5.497 -0.0979  0.8717 -0.0491
 9866TIP3   OH251088   3.138   6.783  12.331 -0.0790 -0.0272 -0.1124
 9866TIP3    H151089   3.046   6.771  12.354 -0.1867 -3.4716 -1.6497
 9866TIP3    H251090   3.136   6.811  12.239  0.2545 -3.2633 -1.2393
 9867TIP3   OH251091   2.647   0.019   3.255 -0.1038  0.7566 -0.3526
 9867TIP3    H151092   2.667   0.042   3.165  0.6774  0.0000 -0.3969
 9867TIP3    H251093   2.635   0.103   3.300 -1.4246  1.1191 -1.3355
 9868TIP3   OH251094   3.699   5.867   5.671  0.8118  0.0487 -0.0085
 9868TIP3    H151095   3.613   5.865   5.630 -0.0671  1.8126  1.5903
 9868TIP3    H251096   3.761   5.851   5.599 -0.6808  1.9162 -1.8019
 9869TIP3   OH251097   6.780   6.809   5.528  0.3323  0.7616  0.5897
 9869TIP3    H151098   6.864   6.821   5.573  0.2088  0.9419  0.7749
 9869TIP3    H251099   6.720   6.870   5.572 -0.0262  0.2596  0.8092
 9870TIP3   OH251100   3.095   2.677  16.528 -0.6772  0.4198 -0.0313
 9870TIP3    H151101   3.143   2.606  16.485  0.0558  0.9611 -0.1151
 9870TIP3    H251102   3.097   2.654  16.621 -0.1641  0.4926 -0.0224
 9871TIP3   OH251103   5.914   3.266  15.865 -0.0402 -0.7153  0.1205
 9871TIP3    H151104   6.009   3.276  15.867  0.0509 -1.4977  0.3101
 9871TIP3    H251105   5.897   3.195  15.927 -0.5478 -2.0390 -1.4794
 9872TIP3   OH251106   3.972   3.618   0.188 -0.4414  0.1706  0.5700
 9872TIP3    H151107   4.036   3.615   0.116 -2.2492  0.3584 -1.1437
 9872TIP3    H251108   3.967   3.527   0.219  3.4790  0.7038  3.5477
 9873TIP3   OH251109   4.798   1.328   2.547  0.3768 -0.4055  0.0227
 9873TIP3    H151110   4.718   1.381   2.548 -1.3904 -2.8730 -0.9099
 9873TIP3    H251111   4.862   1.383   2.502 -1.6880  0.5550 -1.9607
 9874TIP3   OH251112   4.160   4.982  15.258 -0.3507 -0.0496  0.3716
 9874TIP3    H151113   4.219   4.963  15.332 -0.1391 -0.4662  0.0979
 9874TIP3    H251114   4.187   4.921  15.190 -0.3515  0.5342 -0.1614
 9875TIP3   OH251115   4.180   1.114  16.410  0.5664 -0.3728 -0.1941
 9875TIP3    H151116   4.157   1.024  16.433  0.2117 -0.4943 -0.9988
 9875TIP3    H251117   4.275   1.118  16.421  0.5476 -0.7549  0.1285
 9876TIP3   OH251118   1.367   6.177   0.267 -0.5888  0.0172  0.3258
 9876TIP3    H151119   1.411   6.178   0.352 -1.9076  0.3295  1.0126
 9876TIP3    H251120   1.395   6.259   0.225 -1.6274  0.9229  1.3491
 9877TIP3   OH251121   5.434   2.842   1.412  0.3583  0.1960 -0.3118
 9877TIP3    H151122   5.425   2.757   1.455  1.7358  1.0646  1.8248
 9877TIP3    H251123   5.356   2.890   1.439  1.3344  0.8240  1.5400
 9878TIP3   OH251124   2.325   3.970   5.459  0.4181  0.2806  0.5718
 9878TIP3    H151125   2.366   4.054   5.475  2.0256 -0.4507  0.4349
 9878TIP3    H251126   2.315   3.931   5.545  1.7874 -0.3311  0.4721
 9879TIP3   OH251127   2.638   5.118   3.270 -0.4287  0.6837 -0.0558
 9879TIP3    H151128   2.581   5.052   3.230 -0.7724  1.8417 -1.5279
 9879TIP3    H251129   2.584   5.158   3.338 -0.9939  0.9895 -0.6782
 9880TIP3   OH251130   2.801   3.328   0.290 -0.8647 -0.1797 -0.1890
 9880TIP3    H151131   2.787   3.372   0.205  1.1534 -1.5968 -1.3442
 9880TIP3    H251132   2.819   3.400   0.351  2.4077  0.7713 -2.0338
 9881TIP3   OH251133   2.572   2.843  15.443 -0.0658 -0.1924 -0.2677
 9881TIP3    H151134   2.514   2.846  15.367 -0.6533  0.2638  0.1899
 9881TIP3    H251135   2.616   2.759  15.436  0.1827  0.0033 -1.3267
 9882TIP3   OH251136   1.898   0.013   2.646  0.5861  0.0597 -0.1746
 9882TIP3    H151137   1.885   0.104   2.673  0.4134 -0.6066  2.1801
 9882TIP3    H251138   1.987   0.011   2.612  0.6317  1.0619 -0.1636
 9883TIP3   OH251139   1.440   2.309  10.780 -0.5738 -0.0301 -0.1315
 9883TIP3    H151140   1.519   2.311  10.834 -0.4307  0.9792 -0.3630
 9883TIP3    H251141   1.466   2.259  10.702 -0.8224 -1.6208  0.7453
 9884TIP3   OH251142   0.984   3.417   4.108  0.0588  0.4063  0.3480
 9884TIP3    H151143   1.070   3.458   4.123  0.0237  0.8361 -0.5350
 9884TIP3    H251144   1.003   3.345   4.048 -0.2781  0.9094 -0.3822
 9885TIP3   OH251145   0.194   4.954   5.961 -0.0863 -0.0846 -0.1049
 9885TIP3    H151146   0.280   4.992   5.977 -0.8895  1.0625  1.7083
 9885TIP3    H251147   0.138   5.028   5.940 -0.6884 -0.8086 -1.1767
 9886TIP3   OH251148   1.123   5.879  13.667  0.0067  0.4019  0.2927
 9886TIP3    H151149   1.109   5.935  13.744  0.6390  1.8338 -0.5979
 9886TIP3    H251150   1.087   5.929  13.594 -0.0130 -0.6637 -0.4400
 9887TIP3   OH251151   5.611   5.290  12.147  0.3979  0.0041 -0.0857
 9887TIP3    H151152   5.604   5.267  12.240  1.2428 -0.3642 -0.0992
 9887TIP3    H251153   5.673   5.363  12.146 -1.4712  1.6630 -0.1420
 9888TIP3   OH251154   5.193   6.049   3.216 -0.4522  0.2049 -0.1865
 9888TIP3    H151155   5.138   5.972   3.208  0.2901 -0.5278  1.3204
 9888TIP3    H251156   5.271   6.029   3.165 -0.4548  0.1547 -0.1708
 9889TIP3   OH251157   5.566   5.972  15.127 -0.3278  0.3060  0.3938
 9889TIP3    H151158   5.521   6.051  15.156 -0.1101  0.7094 -0.3552
 9889TIP3    H251159   5.644   5.968  15.183  1.1219  2.1537 -1.3402
 9890TIP3   OH251160   3.455   0.204   5.021  0.3561 -0.4065  0.3648
 9890TIP3    H151161   3.496   0.250   4.947 -0.2427 -1.6935 -0.7906
 9890TIP3    H251162   3.368   0.242   5.027  0.4988 -0.1072  0.6096
 9891TIP3   OH251163   4.010   3.616   5.684 -0.1669 -0.5854 -0.0067
 9891TIP3    H151164   4.074   3.614   5.613 -1.4734  0.3051 -1.2783
 9891TIP3    H251165   3.967   3.531   5.680  0.0978 -0.7208  0.0354
 9892TIP3   OH251166   3.123   6.695   4.339 -0.3721 -0.3076  0.1783
 9892TIP3    H151167   3.143   6.694   4.433  1.0990  0.7036 -0.0867
 9892TIP3    H251168   3.093   6.784   4.321 -1.1884 -0.6513 -0.2271
 9893TIP3   OH251169   1.077   0.784   0.330  0.0263 -0.4970  0.3359
 9893TIP3    H151170   1.035   0.707   0.293 -0.5178 -0.4079  0.7465
 9893TIP3    H251171   1.021   0.857   0.303  2.3630  0.2791 -3.0376
 9894TIP3   OH251172   3.669   2.556   5.576 -0.4526  0.2329  0.5055
 9894TIP3    H151173   3.656   2.650   5.566 -0.5649  0.3746  1.7749
 9894TIP3    H251174   3.751   2.538   5.529  0.4296  1.2651  1.5741
 9895TIP3   OH251175   2.608   6.128  16.767  0.0198  0.2848  0.6676
 9895TIP3    H151176   2.647   6.062  16.709  0.8622  0.8246  0.6035
 9895TIP3    H251177   2.679   6.153  16.826 -0.6269  0.2754  1.4798
 9896TIP3   OH251178   4.939   3.967  16.514  0.6015  0.4363  0.4433
 9896TIP3    H151179   4.988   3.900  16.561  0.8646 -0.3771 -0.9365
 9896TIP3    H251180   5.005   4.011  16.461  0.0796  0.3399 -0.2853
 9897TIP3   OH251181   5.277   4.787  12.196  0.5431  0.0232  0.2969
 9897TIP3    H151182   5.201   4.820  12.244 -0.2382 -0.2007 -0.7563
 9897TIP3    H251183   5.352   4.812  12.250 -0.3553 -1.4689  2.3738
 9898TIP3   OH251184   6.043   1.699   1.998  0.1162  0.4865 -0.5909
 9898TIP3    H151185   5.987   1.707   2.075  0.2619  2.5975 -0.6341
 9898TIP3    H251186   6.069   1.790   1.978  1.1420 -0.1426 -2.3353
 9899TIP3   OH251187   5.840   4.787  11.447 -0.4615  0.1047 -0.0903
 9899TIP3    H151188   5.839   4.872  11.492 -0.3543 -0.2763  0.6440
 9899TIP3    H251189   5.932   4.761  11.448 -0.3951  0.2665 -0.8870
 9900TIP3   OH251190   2.064   6.770   2.978 -0.1175 -0.2373 -0.8827
 9900TIP3    H151191   2.102   6.720   2.906 -0.2092 -0.0771 -1.0441
 9900TIP3    H251192   1.980   6.801   2.944 -0.1649 -0.1674 -0.7039
 9901TIP3   OH251193   4.185   3.442  11.579 -0.1869 -0.5605 -0.3240
 9901TIP3    H151194   4.145   3.523  11.608 -0.6232 -0.2244 -1.7843
 9901TIP3    H251195   4.249   3.469  11.513 -0.7522 -1.4252 -1.2538
 9902TIP3   OH251196   1.770   2.730  13.123  0.6511  0.0773  0.1324
 9902TIP3    H151197   1.777   2.743  13.028 -0.8761  0.0175 -0.0100
 9902TIP3    H251198   1.756   2.818  13.158  1.6663  0.1587  0.3692
 9903TIP3   OH251199   1.474   1.612   2.011 -0.3273 -0.2549 -0.2754
 9903TIP3    H151200   1.562   1.629   1.978 -0.1685 -3.8613 -2.1741
 9903TIP3    H251201   1.415   1.648   1.945 -0.2952  0.5695  0.1234
 9904TIP3   OH251202   0.916   5.202   2.266  0.3420 -0.0126  0.4520
 9904TIP3    H151203   0.973   5.279   2.271 -0.6502  0.9398 -1.6271
 9904TIP3    H251204   0.836   5.234   2.223  0.1613 -2.3310 -1.1238
 9905TIP3   OH251205   6.293   1.883  15.656  0.5373 -0.3186 -0.6190
 9905TIP3    H151206   6.349   1.938  15.710  1.9399 -2.2810  0.0309
 9905TIP3    H251207   6.332   1.796  15.661 -1.9814 -1.5669 -1.0233
 9906TIP3   OH251208   4.811   6.141  11.156  0.5760 -0.0602  0.0152
 9906TIP3    H151209   4.795   6.235  11.167 -2.1313 -0.4760  0.3160
 9906TIP3    H251210   4.863   6.116  11.232  2.3047  1.3496 -0.6422
 9907TIP3   OH251211   1.143   5.814   2.480  0.6606 -0.3901 -0.1800
 9907TIP3    H151212   1.089   5.738   2.502 -1.0913 -0.0383 -2.7776
 9907TIP3    H251213   1.200   5.783   2.409  2.2938 -0.1088  0.9605
 9908TIP3   OH251214   5.417   5.870   0.468 -0.3567  0.6401  0.2716
 9908TIP3    H151215   5.472   5.868   0.390 -0.0650  0.9644  0.4627
 9908TIP3    H251216   5.327   5.861   0.435 -0.2475  0.9321 -0.1164
 9909TIP3   OH251217   1.083   3.686  16.278 -0.0477 -0.8219  0.1189
 9909TIP3    H151218   1.005   3.706  16.226  0.6352  0.1747 -0.5357
 9909TIP3    H251219   1.071   3.734  16.359  0.3180  0.0942 -0.3617
 9910TIP3   OH251220   5.702   4.122   4.936 -0.3713  0.3794 -0.1737
 9910TIP3    H151221   5.755   4.132   4.857 -0.3085  1.1244 -0.0482
 9910TIP3    H251222   5.725   4.198   4.989 -1.2740  0.4977  0.0567
 9911TIP3   OH251223   5.332   3.531  15.474  0.1018 -0.6776  0.5323
 9911TIP3    H151224   5.361   3.612  15.515  2.3855 -0.9720 -0.3857
 9911TIP3    H251225   5.313   3.555  15.383 -1.4848 -0.7510  0.8069
 9912TIP3   OH251226   2.060   5.968  13.630  0.2886 -0.0359  0.3407
 9912TIP3    H151227   2.108   5.951  13.549  1.7610  1.4741  0.8233
 9912TIP3    H251228   2.002   6.041  13.608  0.0140 -0.2287  0.4200
 9913TIP3   OH251229   3.023   6.769   0.314 -0.3862 -0.0371  0.2696
 9913TIP3    H151230   3.005   6.833   0.244  1.8929  0.9311  0.4879
 9913TIP3    H251231   3.074   6.700   0.271  1.6033  0.8863  1.0185
 9914TIP3   OH251232   0.890   2.307  11.606  0.1507  0.1556 -0.5595
 9914TIP3    H151233   0.814   2.301  11.549  1.8028  1.3404 -3.1279
 9914TIP3    H251234   0.947   2.236  11.577  1.7513  1.8079 -1.7442
 9915TIP3   OH251235   1.680   1.240  12.463  0.4013 -0.5599  0.6492
 9915TIP3    H151236   1.690   1.259  12.556  0.5789 -1.9970  0.9466
 9915TIP3    H251237   1.732   1.161  12.449 -2.0828 -2.1686  0.0059
 9916TIP3   OH251238   3.118   6.280  13.756 -0.4039  0.1517  0.5769
 9916TIP3    H151239   3.027   6.279  13.783 -0.1770 -1.6129  1.4092
 9916TIP3    H251240   3.168   6.281  13.838  0.3060 -0.6956  0.1729
 9917TIP3   OH251241   5.464   0.066  14.084  0.0660  0.4387 -0.0975
 9917TIP3    H151242   5.423   0.091  14.001 -2.1204  1.2057  1.1140
 9917TIP3    H251243   5.537   0.127  14.095 -0.1647  0.8960 -1.0503
 9918TIP3   OH251244   5.269   5.164   5.519 -0.1949 -0.1804  0.2024
 9918TIP3    H151245   5.247   5.244   5.568 -1.0183  0.3039 -0.9217
 9918TIP3    H251246   5.364   5.169   5.508 -0.3884  1.5346 -1.2702
 9919TIP3   OH251247   1.852   3.305  10.302  0.4915 -0.0782  0.1284
 9919TIP3    H151248   1.773   3.304  10.355 -0.7420 -1.1947 -1.6144
 9919TIP3    H251249   1.862   3.215  10.271  2.4131  0.0507  0.2156
 9920TIP3   OH251250   2.949   0.212   2.136 -0.1540 -0.6744 -0.1794
 9920TIP3    H151251   3.044   0.227   2.132 -0.1507 -0.9698 -1.8143
 9920TIP3    H251252   2.941   0.122   2.168  0.1055 -0.5340  0.2892
 9921TIP3   OH251253   0.686   5.451  11.747  0.0968 -0.0716 -0.8338
 9921TIP3    H151254   0.739   5.483  11.674  1.0184  2.8326  0.9619
 9921TIP3    H251255   0.618   5.518  11.758  0.1679 -0.2753  1.1247
 9922TIP3   OH251256   3.442   6.355  16.947  0.0500 -0.4659 -0.6222
 9922TIP3    H151257   3.385   6.402  16.886  0.0983  0.7301  0.2134
 9922TIP3    H251258   3.417   6.389  17.033  2.7624  0.9382 -0.2962
 9923TIP3   OH251259   0.131   2.780  16.016  0.3835 -0.0805 -0.6631
 9923TIP3    H151260   0.180   2.731  16.081 -0.2110  1.2351  0.8460
 9923TIP3    H251261   0.177   2.864  16.008  0.0904  0.0167 -1.4665
 9924TIP3   OH251262   5.361   1.839   2.254  0.3708  0.1100 -0.1220
 9924TIP3    H151263   5.449   1.806   2.235 -0.5424 -2.2205 -0.5504
 9924TIP3    H251264   5.374   1.898   2.329  2.0426 -1.8636  1.2828
 9925TIP3   OH251265   3.460   1.749  14.891  0.2353  0.0748 -0.4640
 9925TIP3    H151266   3.451   1.811  14.818  2.1734  0.6290 -0.2603
 9925TIP3    H251267   3.377   1.700  14.890  0.6497 -0.8332 -3.8706
 9926TIP3   OH251268   1.463   0.845  15.983 -0.1481  0.0746  0.6130
 9926TIP3    H151269   1.505   0.832  15.898 -0.3904  2.9281 -0.0447
 9926TIP3    H251270   1.532   0.828  16.047  0.7708  0.3520 -0.2801
 9927TIP3   OH251271   0.164   1.007   2.572  0.0299  0.8229 -0.4827
 9927TIP3    H151272   0.191   1.025   2.482 -1.0696 -1.2657 -1.3100
 9927TIP3    H251273   0.133   0.916   2.570 -2.2774  1.4645  1.4793
 9928TIP3   OH251274   5.315   3.515   3.253  0.1250  0.3511  0.1724
 9928TIP3    H151275   5.325   3.420   3.245  0.2952  0.2093  1.7382
 9928TIP3    H251276   5.349   3.535   3.340  1.6855  2.0927 -0.7733
 9929TIP3   OH251277   1.450   5.510  11.954 -0.1267 -0.4546  0.1920
 9929TIP3    H151278   1.436   5.581  11.891  3.6346 -0.8916 -1.3900
 9929TIP3    H251279   1.363   5.490  11.987 -1.9810  1.5554 -2.9688
 9930TIP3   OH251280   1.327   1.225   5.557 -0.3516 -0.0586  0.1892
 9930TIP3    H151281   1.259   1.292   5.564 -0.6412 -0.3635  0.3476
 9930TIP3    H251282   1.367   1.223   5.644 -0.1727  0.0876  0.1098
 9931TIP3   OH251283   6.107   2.526   4.990 -0.1861 -0.1553  0.4976
 9931TIP3    H151284   6.169   2.454   4.988 -0.6064 -0.5620 -2.3605
 9931TIP3    H251285   6.021   2.484   4.984 -0.6150  0.5050  1.6716
 9932TIP3   OH251286   3.822   3.479  11.392 -0.0560 -0.2251 -0.0059
 9932TIP3    H151287   3.851   3.553  11.340  0.3463  1.1209  2.0043
 9932TIP3    H251288   3.861   3.403  11.350  0.2145  0.7822 -1.6455
 9933TIP3   OH251289   3.880   5.719   0.572  0.2810  0.5392 -0.2548
 9933TIP3    H151290   3.841   5.805   0.559 -0.8981 -0.0824 -0.9950
 9933TIP3    H251291   3.807   5.663   0.601  1.5239  0.3548  2.8717
 9934TIP3   OH251292   6.445   1.934   4.180  0.0910 -0.0249 -0.3403
 9934TIP3    H151293   6.468   1.852   4.223 -0.2872 -1.6435 -2.9873
 9934TIP3    H251294   6.490   1.930   4.095 -2.9918  0.6367 -2.1494
 9935TIP3   OH251295   4.364   3.458   2.750  0.2824 -0.3290 -0.4814
 9935TIP3    H151296   4.383   3.479   2.841  1.2658 -1.6862 -0.3458
 9935TIP3    H251297   4.395   3.368   2.739  0.9963  0.0962 -2.3822
 9936TIP3   OH251298   0.247   1.257  14.754  0.5397  0.4134 -0.0831
 9936TIP3    H151299   0.322   1.310  14.728 -0.4412  1.6576 -0.5208
 9936TIP3    H251300   0.220   1.211  14.674  0.8538 -0.0615  0.0821
 9937TIP3   OH251301   5.144   2.196   0.124 -0.1407 -0.3171 -0.1525
 9937TIP3    H151302   5.172   2.178   0.035  1.1014  0.6607  0.0150
 9937TIP3    H251303   5.208   2.258   0.158 -0.9766 -0.1346  1.1964
 9938TIP3   OH251304   0.784   0.031  13.166  0.0839 -0.1837  0.0130
 9938TIP3    H151305   0.868  -0.007  13.140  0.2897 -1.4671  2.2603
 9938TIP3    H251306   0.722  -0.041  13.158 -0.2725  0.0252  0.7878
 9939TIP3   OH251307   3.571   6.490   2.070  0.2922 -0.0488 -0.4287
 9939TIP3    H151308   3.597   6.551   2.001  0.8809  0.1695 -0.0215
 9939TIP3    H251309   3.610   6.526   2.150 -1.2774  0.2911  0.2249
 9940TIP3   OH251310   2.301   4.995  12.803  0.4651 -0.2272 -0.3176
 9940TIP3    H151311   2.338   5.084  12.797 -1.0037  0.4370  0.0865
 9940TIP3    H251312   2.265   4.979  12.717  0.9646 -0.5538 -0.4698
 9941TIP3   OH251313   4.313   4.006  15.693  0.4923  0.4931  0.5125
 9941TIP3    H151314   4.396   4.053  15.701  0.3446  0.6920  0.9511
 9941TIP3    H251315   4.247   4.071  15.717  0.2913  0.0338  1.2361
 9942TIP3   OH251316   4.630   4.906   0.646  0.2151  0.5571 -0.1114
 9942TIP3    H151317   4.669   4.823   0.673 -0.5827  0.2493  0.1318
 9942TIP3    H251318   4.636   4.906   0.551  0.5440  0.3901 -0.0934
 9943TIP3   OH251319   1.443   6.413   0.085 -0.3185 -0.0489 -0.3087
 9943TIP3    H151320   1.414   6.475   0.152  2.0105 -0.2567  0.9977
 9943TIP3    H251321   1.481   6.468   0.017 -0.3157  0.0730 -0.2105
 9944TIP3   OH251322   1.875   5.877  12.179  0.2597 -0.3870  0.4597
 9944TIP3    H151323   1.832   5.823  12.246 -2.2058  1.2303  0.2608
 9944TIP3    H251324   1.873   5.966  12.214  1.9574  0.0097 -0.3416
 9945TIP3   OH251325   2.223   1.245   4.283  0.2198 -0.0400  0.2383
 9945TIP3    H151326   2.257   1.311   4.344  2.6150 -2.9913  2.3974
 9945TIP3    H251327   2.281   1.252   4.207  1.7274 -0.7768  1.2500
 9946TIP3   OH251328   4.402   3.574   4.679 -0.4457  0.4541 -0.4540
 9946TIP3    H151329   4.431   3.500   4.732 -1.9934 -0.2145 -0.4778
 9946TIP3    H251330   4.473   3.590   4.618  0.3149 -0.3911  0.1825
 9947TIP3   OH251331   3.061   1.113  17.217 -0.0048 -0.4643 -0.2688
 9947TIP3    H151332   3.074   1.208  17.228 -0.3386 -0.4051 -0.3782
 9947TIP3    H251333   3.149   1.079  17.200  0.5007 -0.4994  2.1008
 9948TIP3   OH251334   0.502   0.701   5.987  0.2858  0.4346  0.5684
 9948TIP3    H151335   0.562   0.751   6.042  0.4116  1.2346 -0.2741
 9948TIP3    H251336   0.557   0.635   5.945  0.1849 -0.1960  1.4025
 9949TIP3   OH251337   1.920   3.039  15.023  0.6258 -0.1116 -0.2518
 9949TIP3    H151338   1.918   3.038  15.119  0.0882  1.0573 -0.2290
 9949TIP3    H251339   2.003   3.083  15.002  0.5543 -0.0042 -0.3109
 9950TIP3   OH251340   3.347   5.048  16.287  0.1979  1.0960  0.1660
 9950TIP3    H151341   3.255   5.048  16.261  0.7202  1.8900 -1.8535
 9950TIP3    H251342   3.355   5.123  16.346 -0.4524  1.0085  0.3702
 9951TIP3   OH251343   5.875   0.208  13.823 -0.4503  0.3260 -0.3990
 9951TIP3    H151344   5.836   0.258  13.752 -0.2508 -1.6634 -1.9893
 9951TIP3    H251345   5.818   0.131  13.833 -0.8846  0.8935  2.1144
 9952TIP3   OH251346   2.069   5.355  11.208 -0.2242  0.7718  0.0322
 9952TIP3    H151347   2.042   5.349  11.300 -0.5689  0.8908 -0.0558
 9952TIP3    H251348   1.986   5.363  11.160 -0.1360 -0.8014 -0.4257
 9953TIP3   OH251349   4.391   6.080   6.096  0.0279 -0.1419  0.3336
 9953TIP3    H151350   4.342   6.132   6.160  1.2116  0.8954  0.4309
 9953TIP3    H251351   4.395   5.992   6.135 -0.6860  0.0628  0.8941
 9954TIP3   OH251352   5.025   3.120   3.960 -0.2288 -0.1276  0.6972
 9954TIP3    H151353   5.095   3.055   3.953  0.4293  0.6157 -0.0399
 9954TIP3    H251354   5.071   3.204   3.948 -1.4450  0.3042 -1.5278
 9955TIP3   OH251355   0.744   6.165  11.756 -0.4881  0.2857  0.5833
 9955TIP3    H151356   0.832   6.189  11.726 -1.0526  1.2476 -0.3885
 9955TIP3    H251357   0.752   6.073  11.782  0.2721 -0.3561 -1.6896
 9956TIP3   OH251358   1.165   4.404   6.318  0.0116 -0.1347  0.1858
 9956TIP3    H151359   1.107   4.429   6.246  0.9610  2.1237  0.1404
 9956TIP3    H251360   1.145   4.466   6.388  0.9032 -0.6673  0.9360
 9957TIP3   OH251361   3.000   1.819   4.662  0.2046 -0.2457  0.4257
 9957TIP3    H151362   3.043   1.809   4.747 -0.9785  0.1604  1.0869
 9957TIP3    H251363   2.909   1.796   4.678 -0.6836  2.5191 -0.0469
 9958TIP3   OH251364   3.048   4.462  13.870 -0.1706  0.4214 -0.3380
 9958TIP3    H151365   3.018   4.462  13.779  1.0314  0.4518 -0.7512
 9958TIP3    H251366   2.974   4.494  13.920 -1.8304 -2.1223 -0.9620
 9959TIP3   OH251367   5.696   2.777   0.854 -0.2924  0.4510  0.1182
 9959TIP3    H151368   5.683   2.870   0.870  0.2981  0.3579  1.2203
 9959TIP3    H251369   5.787   2.770   0.823 -0.3926  0.2616 -0.1396
 9960TIP3   OH251370   6.197   1.352  14.087 -0.0873  0.2016  0.2681
 9960TIP3    H151371   6.172   1.409  14.015  0.9272 -0.6924 -0.8572
 9960TIP3    H251372   6.171   1.399  14.166 -0.1530  1.7578 -0.6408
 9961TIP3   OH251373   1.461   4.518   5.214 -0.2565  0.3669  0.5354
 9961TIP3    H151374   1.548   4.554   5.194 -0.9449  1.1989 -1.1416
 9961TIP3    H251375   1.470   4.483   5.303  2.0181 -0.2988  0.1223
 9962TIP3   OH251376   4.975   2.124   3.803  0.5999  1.1731  0.4328
 9962TIP3    H151377   5.047   2.169   3.759  2.2769 -1.5083  0.1625
 9962TIP3    H251378   4.897   2.149   3.754  2.0624  0.2217 -2.6220
 9963TIP3   OH251379   2.218   6.264  16.961 -0.3051 -0.2045  0.0994
 9963TIP3    H151380   2.276   6.209  16.909 -2.0813 -0.8893 -1.2447
 9963TIP3    H251381   2.215   6.221  17.047  0.9614 -0.2709  0.1311
 9964TIP3   OH251382   0.476   4.338   5.708  0.2636  0.1329  0.2639
 9964TIP3    H151383   0.487   4.323   5.802 -1.9259 -1.3838  0.3453
 9964TIP3    H251384   0.436   4.258   5.675  1.2192  0.5270 -2.0449
 9965TIP3   OH251385   0.581   2.166  15.813 -0.5676 -0.3651  0.0394
 9965TIP3    H151386   0.527   2.184  15.889  1.8635  1.5554  1.4611
 9965TIP3    H251387   0.671   2.184  15.842  0.6662 -1.4464 -2.7282
 9966TIP3   OH251388   6.677   3.871   6.244  0.0928  0.6782  0.0899
 9966TIP3    H151389   6.686   3.852   6.150  0.8057  1.1221  0.0652
 9966TIP3    H251390   6.622   3.950   6.247 -2.6818 -1.1107  0.1842
 9967TIP3   OH251391   3.443   3.055   5.382 -0.3618 -0.3884 -0.3578
 9967TIP3    H151392   3.404   3.007   5.308  2.9332 -1.2936 -1.7306
 9967TIP3    H251393   3.441   3.147   5.355 -0.7179 -0.5290 -0.8230
 9968TIP3   OH251394   2.363   4.787  17.100 -0.3024  0.2628 -0.1093
 9968TIP3    H151395   2.327   4.708  17.059 -0.1507  0.2083 -0.1360
 9968TIP3    H251396   2.342   4.777  17.193 -0.8935  0.5179 -0.2078
 9969TIP3   OH251397   6.791   4.824  16.083 -0.3122 -0.1161  0.4080
 9969TIP3    H151398   6.700   4.798  16.100 -0.6800  0.3770 -0.7321
 9969TIP3    H251399   6.796   4.833  15.988  1.3994 -1.8216  0.2854
 9970TIP3   OH251400   3.741   6.136  11.421  0.0311  0.3931 -0.1445
 9970TIP3    H151401   3.809   6.101  11.479 -0.2816 -1.9356 -1.0693
 9970TIP3    H251402   3.789   6.179  11.351  0.5219  0.1245  0.0173
 9971TIP3   OH251403   4.567   2.813  15.248  0.0197  0.4016 -0.1514
 9971TIP3    H151404   4.511   2.888  15.233 -1.7444 -0.8186  0.0801
 9971TIP3    H251405   4.546   2.785  15.337  0.2157 -0.7345 -0.4516
 9972TIP3   OH251406   0.251   1.932   6.551  0.0186  1.0346  0.5894
 9972TIP3    H151407   0.169   1.953   6.506 -0.9659 -0.1220  1.7672
 9972TIP3    H251408   0.254   1.837   6.551  0.5373  1.0297  1.9902
 9973TIP3   OH251409   2.347   0.840  15.584 -0.0872  0.3020 -0.0541
 9973TIP3    H151410   2.314   0.750  15.582  0.8673 -0.0457 -1.7641
 9973TIP3    H251411   2.437   0.833  15.555 -0.4324  1.9761 -1.6901
 9974TIP3   OH251412   2.556   3.135   3.407 -0.7959  0.7639  0.3688
 9974TIP3    H151413   2.627   3.131   3.343 -1.1156 -0.6023  0.0704
 9974TIP3    H251414   2.484   3.177   3.361 -1.0193 -0.1986 -0.1878
 9975TIP3   OH251415   4.443   0.605   6.162  0.1102 -0.1231  0.1393
 9975TIP3    H151416   4.447   0.688   6.115  1.2221 -0.1949  0.0918
 9975TIP3    H251417   4.401   0.627   6.246  1.7952  0.8185  0.7883
 9976TIP3   OH251418   4.236   2.966   0.217 -0.3812  0.1703  0.0739
 9976TIP3    H151419   4.173   2.894   0.216 -1.7250  1.3038 -0.7946
 9976TIP3    H251420   4.206   3.022   0.290  0.2636  0.1793  0.3341
 9977TIP3   OH251421   4.853   4.991   2.666 -0.5430  0.4531  0.7308
 9977TIP3    H151422   4.923   4.937   2.629  0.1791  1.3426  0.7661
 9977TIP3    H251423   4.795   5.009   2.592  0.3543  1.3862  0.2390
 9978TIP3   OH251424   5.323   6.154   5.994  0.1868  0.4148 -0.4059
 9978TIP3    H151425   5.265   6.223   5.963  0.4915  1.4411  1.2011
 9978TIP3    H251426   5.404   6.199   6.020  0.5604 -0.5837  0.2495
 9979TIP3   OH251427   5.618   2.308   0.598 -0.2646  0.7494  0.5599
 9979TIP3    H151428   5.665   2.372   0.545  0.6520 -1.2091 -1.1257
 9979TIP3    H251429   5.610   2.349   0.684  1.7986  2.4138  0.0356
 9980TIP3   OH251430   4.787   0.323  15.527 -0.4070 -0.6228  0.7917
 9980TIP3    H151431   4.772   0.401  15.582  0.0739 -0.9473  1.4062
 9980TIP3    H251432   4.788   0.250  15.590  1.8524 -0.8214  0.6024
 9981TIP3   OH251433   4.808   2.524   3.124  0.4251 -0.0451 -0.7167
 9981TIP3    H151434   4.724   2.569   3.121  1.5351  2.4587  1.6690
 9981TIP3    H251435   4.865   2.577   3.067  1.1826  0.2901  0.3222
 9982TIP3   OH251436   0.127   4.185   4.762 -0.1414  0.2422  0.3526
 9982TIP3    H151437   0.076   4.115   4.803 -0.7353  0.2027 -0.4364
 9982TIP3    H251438   0.162   4.146   4.683  0.3799  0.5366  0.4374
 9983TIP3   OH251439   2.276   5.781   3.669  0.8991  0.0541  0.4558
 9983TIP3    H151440   2.227   5.853   3.630  2.1992  0.8055  0.1435
 9983TIP3    H251441   2.286   5.717   3.598  0.1867 -0.2246  0.5926
 9984TIP3   OH251442   5.532   4.160   0.787  0.1172  0.2446  0.1119
 9984TIP3    H151443   5.459   4.155   0.847  1.0673 -3.7177  1.2829
 9984TIP3    H251444   5.610   4.156   0.843  1.0783 -0.7674 -1.2129
 9985TIP3   OH251445   3.920   6.703  16.725  0.5303 -0.2532 -0.1893
 9985TIP3    H151446   3.982   6.669  16.790  0.5724 -0.4008 -0.3066
 9985TIP3    H251447   3.845   6.644  16.731  0.2419  0.1525  0.2220
 9986TIP3   OH251448   2.012   5.559  15.849  0.2940 -0.1156 -0.0286
 9986TIP3    H151449   2.019   5.490  15.783  1.6285  2.0815 -2.4090
 9986TIP3    H251450   1.928   5.601  15.829  0.4099  0.1631  0.0692
 9987TIP3   OH251451   4.903   1.158  12.259  0.0659  0.5729 -0.1819
 9987TIP3    H151452   4.847   1.126  12.189 -0.0552  1.4412 -0.4865
 9987TIP3    H251453   4.842   1.194  12.324  0.0172 -1.9119  1.3192
 9988TIP3   OH251454   5.350   2.944  12.059  0.5246  0.4146 -0.1297
 9988TIP3    H151455   5.297   2.882  12.008  1.2497 -0.0808 -0.2916
 9988TIP3    H251456   5.399   2.993  11.994 -0.8270  1.9394 -0.0754
 9989TIP3   OH251457   1.665   2.527  13.983 -0.2989 -0.3077 -0.7273
 9989TIP3    H151458   1.671   2.594  13.915  0.4696  0.5947  0.2129
 9989TIP3    H251459   1.737   2.546  14.042 -1.7061 -0.2919  1.0579
 9990TIP3   OH251460   5.160   2.533   0.608  0.4102 -0.2036  0.0052
 9990TIP3    H151461   5.182   2.519   0.700  1.5686 -1.8168 -0.4524
 9990TIP3    H251462   5.122   2.449   0.580  1.9237 -0.4611 -1.4373
 9991TIP3   OH251463   3.666   1.125   0.350 -0.3770  0.3099 -0.3013
 9991TIP3    H151464   3.740   1.145   0.407  0.4113 -0.0257 -1.1912
 9991TIP3    H251465   3.705   1.083   0.273 -1.4443  0.5196 -0.9768
 9992TIP3   OH251466   6.281   6.222   4.178 -0.2399  0.3908 -0.1054
 9992TIP3    H151467   6.301   6.139   4.134 -0.7901  0.6034 -0.7671
 9992TIP3    H251468   6.189   6.239   4.157 -0.5819  0.4110  1.2793
 9993TIP3   OH251469   5.482   4.102   3.846  0.3471  0.1367  0.1899
 9993TIP3    H151470   5.434   4.100   3.764 -2.1020 -0.7995  1.5443
 9993TIP3    H251471   5.550   4.035   3.836  0.2413  0.2183 -1.1522
 9994TIP3   OH251472   3.743   6.808   4.556 -0.4253  0.0692 -0.0287
 9994TIP3    H151473   3.837   6.822   4.547  0.1394 -3.3592 -1.0156
 9994TIP3    H251474   3.708   6.824   4.469 -0.5495  0.0418  0.0167
 9995TIP3   OH251475   2.899   2.357   2.893  0.1784 -0.4175  0.1898
 9995TIP3    H151476   2.988   2.379   2.868  0.2289 -0.3417  0.4350
 9995TIP3    H251477   2.898   2.262   2.899 -0.2277 -0.5727 -1.5893
 9996TIP3   OH251478   4.967   0.572   2.959 -0.3746 -0.1234 -0.2507
 9996TIP3    H151479   4.906   0.570   2.886 -0.6071  0.5361 -0.0873
 9996TIP3    H251480   4.911   0.578   3.037 -0.1073  0.9768 -0.1249
 9997TIP3   OH251481   4.211   6.318   0.731 -0.2626 -0.0337 -0.2602
 9997TIP3    H151482   4.205   6.298   0.638 -0.8174  0.8229 -0.4277
 9997TIP3    H251483   4.287   6.270   0.761  1.3695  1.4892 -1.6755
 9998TIP3   OH251484   2.291   5.214   3.434 -0.0819 -0.6019  0.0879
 9998TIP3    H151485   2.209   5.250   3.399 -1.0031 -1.9268  0.7648
 9998TIP3    H251486   2.357   5.281   3.415 -1.4547  0.8452  0.1820
 9999TIP3   OH251487   2.965   0.361   3.507 -0.4487  0.1591 -0.0897
 9999TIP3    H151488   2.999   0.449   3.493 -1.0367  0.3798 -0.1678
 9999TIP3    H251489   2.942   0.329   3.419 -0.1985 -0.0921 -0.0675
10000TIP3   OH251490   4.586   0.205   3.711  0.1570 -0.1878 -0.2299
10000TIP3    H151491   4.533   0.193   3.633 -0.0748 -2.2191  0.1889
10000TIP3    H251492   4.560   0.291   3.745 -0.4273  0.2951 -1.8362
10001TIP3   OH251493   4.248   3.824  17.183  0.5437  0.2656 -0.5802
10001TIP3    H151494   4.235   3.919  17.185  0.4494  0.2337  0.4669
10001TIP3    H251495   4.273   3.800  17.272  0.6963 -0.6820 -0.8585
10002TIP3   OH251496   1.537   3.153  15.506  0.4011  0.3927 -0.0979
10002TIP3    H151497   1.481   3.227  15.531  2.0354  0.6766  3.2712
10002TIP3    H251498   1.612   3.193  15.463  0.8684  0.6423  0.9272
10003TIP3   OH251499   4.018   3.604  11.780 -0.4079 -0.1463 -0.0803
10003TIP3    H151500   4.047   3.666  11.848 -0.0028  2.2117 -2.2533
10003TIP3    H251501   3.933   3.636  11.753 -0.8873 -1.4953 -0.2313
10004TIP3   OH251502   4.839   6.105   4.436  0.4423 -0.0908 -0.8767
10004TIP3    H151503   4.767   6.061   4.480 -0.4057  0.5421 -1.6076
10004TIP3    H251504   4.890   6.033   4.396  1.0313 -0.6440  0.7789
10005TIP3   OH251505   0.080   1.947   0.791  0.0105  0.1412 -0.5267
10005TIP3    H151506   0.028   1.866   0.787 -1.2372  0.7563  1.4701
10005TIP3    H251507   0.161   1.922   0.834 -0.9614  0.1418  1.4276
10006TIP3   OH251508   6.804   4.033   2.090 -0.5000 -0.0158  0.3049
10006TIP3    H151509   6.767   4.088   2.021  0.1128 -0.8524 -0.7210
10006TIP3    H251510   6.769   4.070   2.171  0.3175  2.2124 -0.2768
10007TIP3   OH251511   4.345   0.198   3.510  0.4768  0.2513  0.2907
10007TIP3    H151512   4.359   0.285   3.474  2.7335 -0.6101 -1.1178
10007TIP3    H251513   4.297   0.151   3.442  0.9833 -0.1591  0.2141
10008TIP3   OH251514   3.766   4.716   4.554  0.6174  0.5702  0.0842
10008TIP3    H151515   3.729   4.716   4.643  1.6064  2.0996  0.5250
10008TIP3    H251516   3.759   4.806   4.525  0.9689  0.2194 -1.1293
10009TIP3   OH251517   5.061   4.975   1.360  0.0348  0.3505 -0.5299
10009TIP3    H151518   5.144   5.000   1.320  1.4805 -1.6995  0.9422
10009TIP3    H251519   5.020   4.916   1.297  1.1113 -0.8915 -0.1088
10010TIP3   OH251520   3.943   4.280  12.876  0.2962  0.7850 -0.1960
10010TIP3    H151521   3.974   4.279  12.966 -0.7556  0.8486  0.1826
10010TIP3    H251522   3.848   4.266  12.883  0.5173 -1.7517 -1.4532
10011TIP3   OH251523   1.906   3.513   3.824 -0.1523  0.1591 -0.0164
10011TIP3    H151524   1.956   3.582   3.780  0.7852  0.6268  1.7153
10011TIP3    H251525   1.815   3.534   3.805 -0.0921  3.4380  2.5250
10012TIP3   OH251526   4.383   1.003  12.396  0.2695 -0.2789  0.2073
10012TIP3    H151527   4.297   1.043  12.384  0.1789  0.2773  2.3273
10012TIP3    H251528   4.444   1.063  12.353 -0.4002 -1.0971 -2.0495
10013TIP3   OH251529   2.904   0.946   4.190 -0.3968  0.0060 -0.3168
10013TIP3    H151530   2.826   0.920   4.142 -0.5329  0.0814 -0.1381
10013TIP3    H251531   2.885   1.035   4.220 -1.1234 -0.7222  1.5482
10014TIP3   OH251532   3.783   6.238   2.724  0.1884  0.2018  0.1986
10014TIP3    H151533   3.813   6.147   2.719  0.4044  0.1436  1.9202
10014TIP3    H251534   3.851   6.288   2.679  0.2267 -0.4397 -0.4792
10015TIP3   OH251535   4.547   0.101   3.984 -0.0950  0.5409 -0.4308
10015TIP3    H151536   4.451   0.105   3.988 -0.2258 -1.7688  0.7672
10015TIP3    H251537   4.567   0.099   3.891 -1.3209  0.0423 -0.7073
10016TIP3   OH251538   3.401   3.965  12.364  0.2373 -0.2253 -0.5806
10016TIP3    H151539   3.358   3.987  12.446  0.4514  0.8554 -0.7429
10016TIP3    H251540   3.418   4.049  12.322  2.6339 -0.5637 -0.4684
10017TIP3   OH251541   3.634   1.157   5.056 -0.2461 -0.1941  0.3141
10017TIP3    H151542   3.623   1.072   5.013  0.0183 -1.2938  2.3087
10017TIP3    H251543   3.569   1.158   5.126  0.2130  0.9812  0.7542
10018TIP3   OH251544   4.978   1.256  12.834 -0.3008  0.7698 -0.1298
10018TIP3    H151545   4.951   1.175  12.878  1.2209  1.0704  1.4529
10018TIP3    H251546   4.896   1.293  12.800 -1.0080 -1.4939 -1.0894
10019TIP3   OH251547   6.556   6.682   0.484  0.2179 -0.3269 -0.3345
10019TIP3    H151548   6.527   6.757   0.432 -2.0271 -1.3648 -0.6993
10019TIP3    H251549   6.620   6.719   0.545 -1.7324  2.2107  0.3785
10020TIP3   OH251550   3.939   1.432  13.043  0.2738 -0.0115 -0.4967
10020TIP3    H151551   4.023   1.412  13.002 -0.6821 -2.0507 -1.6345
10020TIP3    H251552   3.895   1.491  12.982  1.0175  1.3905  0.3003
10021TIP3   OH251553   5.443   2.722  17.004  0.0676 -0.1455  0.0911
10021TIP3    H151554   5.427   2.809  17.042  0.1793 -1.3343  3.1313
10021TIP3    H251555   5.356   2.684  16.992  0.0608 -0.0364 -0.2263
10022TIP3   OH251556   5.502   3.798  16.202 -1.1770 -0.1311  0.4301
10022TIP3    H151557   5.447   3.792  16.280 -2.8454 -0.3751 -0.7316
10022TIP3    H251558   5.523   3.707  16.181  0.4254 -0.0089  1.3458
10023TIP3   OH251559   0.084   2.849  11.502 -0.6288  0.2001  0.1318
10023TIP3    H151560   0.001   2.803  11.487 -0.6658  0.4244 -0.3741
10023TIP3    H251561   0.066   2.939  11.478 -0.9171  0.7861  2.2940
10024TIP3   OH251562   2.159   5.106  11.534  0.2854 -0.6231  0.0001
10024TIP3    H151563   2.222   5.175  11.553  0.4028 -0.2654 -1.5371
10024TIP3    H251564   2.207   5.043  11.479 -0.2123 -1.2306  0.2408
10025TIP3   OH251565   0.826   5.845  16.253  0.3918 -0.0186 -0.3713
10025TIP3    H151566   0.915   5.847  16.287 -0.7446 -0.1463  3.0473
10025TIP3    H251567   0.806   5.936  16.231  0.1211  0.8646  2.9426
10026TIP3   OH251568   6.142   5.278   2.877 -0.5142 -0.2336 -0.6813
10026TIP3    H151569   6.101   5.199   2.841 -1.1141 -0.1757 -0.1464
10026TIP3    H251570   6.078   5.348   2.862 -0.8600 -0.2349  0.6058
10027TIP3   OH251571   5.862   5.986   4.790  0.6015 -0.3012 -1.0061
10027TIP3    H151572   5.766   5.987   4.786  0.6008 -0.7226 -1.2101
10027TIP3    H251573   5.882   6.011   4.880  0.3278  0.6167 -1.1901
10028TIP3   OH251574   6.211   0.809   3.311 -0.5358  0.2272 -0.1268
10028TIP3    H151575   6.262   0.800   3.230 -1.5407 -1.2064 -0.6293
10028TIP3    H251576   6.251   0.884   3.355  2.1648 -0.9205 -0.3838
10029TIP3   OH251577   2.964   0.703   2.983 -0.0256 -0.5842 -0.4960
10029TIP3    H151578   2.910   0.625   2.967 -1.0798 -0.2974  1.3197
10029TIP3    H251579   2.905   0.777   2.965  0.7697 -0.2008 -1.5893
10030TIP3   OH251580   2.641   2.384   1.444  0.3218  0.0764  0.4371
10030TIP3    H151581   2.585   2.333   1.385  0.4006  1.1855 -0.6329
10030TIP3    H251582   2.722   2.397   1.395  1.2945 -0.9462  1.7150
10031TIP3   OH251583   1.096   5.198   1.067 -0.5059  0.7948  0.0381
10031TIP3    H151584   1.160   5.264   1.041  0.8338 -0.4915 -0.0630
10031TIP3    H251585   1.092   5.137   0.993  0.7658 -1.0209  1.3678
10032TIP3   OH251586   6.142   2.704  14.719  0.3943 -0.6262  0.4913
10032TIP3    H151587   6.190   2.641  14.666 -0.0412  1.1257 -2.1828
10032TIP3    H251588   6.069   2.654  14.756  0.6386 -1.9101 -0.6872
10033TIP3   OH251589   6.196   4.392   2.959 -0.2876 -0.2869 -0.3541
10033TIP3    H151590   6.259   4.323   2.938 -1.3949 -1.2259 -0.7021
10033TIP3    H251591   6.127   4.382   2.894 -0.1439  1.6293 -0.8449
10034TIP3   OH251592   5.828   4.447   1.705 -0.7052  0.0446  0.3843
10034TIP3    H151593   5.858   4.471   1.617 -0.6719 -1.6383 -0.1030
10034TIP3    H251594   5.738   4.479   1.710 -1.2489 -1.1716 -0.8733
10035TIP3   OH251595   3.494   5.466   6.672 -0.0107  0.2370  0.4450
10035TIP3    H151596   3.470   5.539   6.615  0.1328  0.3009  0.4662
10035TIP3    H251597   3.580   5.438   6.641 -0.8347 -1.0945 -0.7244
10036TIP3   OH251598   0.398   2.017  10.855 -0.0387 -0.7336  0.6352
10036TIP3    H151599   0.440   2.088  10.903  0.7502 -0.1033 -0.9131
10036TIP3    H251600   0.304   2.036  10.861  0.2123  1.2956 -0.9600
10037TIP3   OH251601   6.079   1.290   6.104  0.1383 -0.2593  0.5185
10037TIP3    H151602   6.160   1.293   6.154  0.6408  0.9628 -0.3009
10037TIP3    H251603   6.028   1.364   6.137  1.8051  2.6829 -2.7604
10038TIP3   OH251604   2.395   2.891   1.947 -0.0082 -0.1605 -0.1155
10038TIP3    H151605   2.366   2.884   2.038 -0.7782 -1.8687 -0.4574
10038TIP3    H251606   2.450   2.814   1.934  0.1528  0.1124 -1.0897
10039TIP3   OH251607   2.864   0.850  12.365  0.0212  0.0119 -0.3846
10039TIP3    H151608   2.927   0.788  12.402  0.0254 -0.5393 -1.2748
10039TIP3    H251609   2.886   0.933  12.406  1.1287 -0.2342 -0.4249
10040TIP3   OH251610   2.588   6.161  12.461 -1.2518  0.2138  0.1017
10040TIP3    H151611   2.646   6.195  12.529 -1.8801  0.7164  0.3945
10040TIP3    H251612   2.588   6.228  12.393 -2.8427  1.0546  0.8788
10041TIP3   OH251613   2.367   5.927   0.005  0.3358  0.1383 -0.2927
10041TIP3    H151614   2.386   5.833   0.010 -0.7459 -0.0975 -0.4285
10041TIP3    H251615   2.302   5.935  -0.064 -0.8090  0.7744  0.8178
10042TIP3   OH251616   5.305   3.647  14.384 -0.0043 -0.0610 -0.3277
10042TIP3    H151617   5.378   3.590  14.407 -0.6417  0.1409  2.6035
10042TIP3    H251618   5.340   3.736  14.393 -0.2984  0.0317 -0.1065
10043TIP3   OH251619   0.180   6.163   4.205  0.0230  0.6152 -0.3358
10043TIP3    H151620   0.110   6.131   4.262 -0.0258 -0.5836 -1.0259
10043TIP3    H251621   0.138   6.231   4.151  0.2016  2.1381  1.3586
10044TIP3   OH251622   1.490   4.892  16.156 -0.6376 -0.1411 -0.2181
10044TIP3    H151623   1.515   4.800  16.164 -1.8856 -0.4651  0.2369
10044TIP3    H251624   1.552   4.939  16.211 -0.1590 -0.7330 -0.2393
10045TIP3   OH251625   0.441   3.655  14.812 -0.2848  0.2445  0.8992
10045TIP3    H151626   0.406   3.640  14.900  0.5593  3.0191  1.8167
10045TIP3    H251627   0.375   3.709  14.769 -0.2419 -0.2862  0.1525
10046TIP3   OH251628   4.177   0.168   2.674  0.3177 -0.9280 -0.2090
10046TIP3    H151629   4.244   0.204   2.617 -0.0881 -1.0376 -0.7631
10046TIP3    H251630   4.142   0.093   2.626  0.2393 -1.2622  0.3554
10047TIP3   OH251631   6.032   6.114  12.326 -0.3798 -0.0275  0.1324
10047TIP3    H151632   6.070   6.037  12.282  0.3955 -0.9831  2.3463
10047TIP3    H251633   5.938   6.106  12.311 -0.3024 -1.3800  0.2293
10048TIP3   OH251634   0.681   1.713   2.142  0.0089  0.2488  0.4313
10048TIP3    H151635   0.743   1.701   2.071  1.4972 -0.1225  1.7263
10048TIP3    H251636   0.637   1.795   2.122  0.0349 -0.0974 -1.1453
10049TIP3   OH251637   2.911   1.137   2.729  0.0020 -0.3637  0.6725
10049TIP3    H151638   2.845   1.150   2.662  0.4214 -1.2118  0.0746
10049TIP3    H251639   2.931   1.044   2.726 -0.7371 -0.6409  2.7152
10050TIP3   OH251640   1.171   6.517  16.488  0.1817 -0.1251 -0.1950
10050TIP3    H151641   1.200   6.598  16.528  0.5595 -0.4729  0.2484
10050TIP3    H251642   1.083   6.503  16.522  1.9016 -2.6176  4.1171
10051TIP3   OH251643   5.400   5.618  17.116 -0.0203  0.5770 -0.4305
10051TIP3    H151644   5.424   5.620  17.023 -0.0171  0.3200 -0.4362
10051TIP3    H251645   5.404   5.526  17.139  1.0977  0.7479  0.1203
10052TIP3   OH251646   6.562   0.963  13.017 -0.2857 -1.0679  0.0522
10052TIP3    H151647   6.482   0.940  12.969 -0.4228 -2.2874  0.8202
10052TIP3    H251648   6.551   0.921  13.103 -0.9546  2.6717  1.9749
10053TIP3   OH251649   2.145   6.324  14.933  0.2604 -0.2798  0.3201
10053TIP3    H151650   2.081   6.309  14.863  0.0480 -0.9967  0.6582
10053TIP3    H251651   2.093   6.358  15.006  0.3885 -0.0957  0.3255
10054TIP3   OH251652   3.541   6.752   3.458 -0.3475 -0.1859 -0.2917
10054TIP3    H151653   3.500   6.680   3.410 -0.9098  1.0927 -1.8030
10054TIP3    H251654   3.573   6.811   3.391  0.5103  0.7838  0.9161
10055TIP3   OH251655   4.680   5.736   3.489 -0.4074 -0.0812 -0.0795
10055TIP3    H151656   4.612   5.793   3.527 -0.9586  0.6193 -2.0083
10055TIP3    H251657   4.641   5.704   3.408  1.4172  0.0056 -1.0314
10056TIP3   OH251658   2.094   0.965   1.732  0.3209  0.2642 -0.4223
10056TIP3    H151659   2.080   0.918   1.650  1.1979  0.3287 -0.6243
10056TIP3    H251660   2.008   0.997   1.757 -0.1437 -0.6824 -0.7527
10057TIP3   OH251661   3.120   0.528   3.710  0.3979  0.4390 -0.7977
10057TIP3    H151662   3.131   0.450   3.765  0.2414  0.7709 -0.2896
10057TIP3    H251663   3.047   0.575   3.750 -0.0674  0.4216 -1.6078
10058TIP3   OH251664   5.321   2.195  12.343 -0.1832 -0.0661 -0.3977
10058TIP3    H151665   5.351   2.130  12.407 -0.2129  0.0329 -0.2814
10058TIP3    H251666   5.235   2.223  12.375  0.2031  0.6577  0.0239
10059TIP3   OH251667   4.241   6.699   5.034 -0.1645 -0.4011  0.5381
10059TIP3    H151668   4.157   6.660   5.060 -1.0121  1.0757  0.1672
10059TIP3    H251669   4.236   6.789   5.066  1.3853 -0.3370  0.6821
10060TIP3   OH251670   3.705   0.904  12.760  0.2741 -0.1017 -0.5398
10060TIP3    H151671   3.787   0.894  12.809  0.4687 -0.3557 -0.9099
10060TIP3    H251672   3.671   0.989  12.788  0.1820 -0.4179  0.3206
10061TIP3   OH251673   6.812   5.167   6.044  0.0531  0.1301 -0.3972
10061TIP3    H151674   6.842   5.193   6.131  0.5431 -0.6206 -0.3340
10061TIP3    H251675   6.720   5.143   6.056  0.3081 -0.6602  0.0766
10062TIP3   OH251676   1.974   3.513   4.463  0.8082 -0.1435  0.2972
10062TIP3    H151677   1.920   3.434   4.457 -0.8090  0.9686 -0.7020
10062TIP3    H251678   1.915   3.580   4.499  1.6407  1.0019 -0.3893
10063TIP3   OH251679   2.378   5.484  12.604 -0.3587 -0.0768  0.3009
10063TIP3    H151680   2.337   5.551  12.550  1.9499 -0.3059 -1.9125
10063TIP3    H251681   2.307   5.451  12.659 -2.5688  1.1296 -1.6507
10064TIP3   OH251682   6.521   5.779   1.034 -0.5719 -0.2552 -0.1424
10064TIP3    H151683   6.440   5.727   1.033 -0.4144 -0.6778  2.1364
10064TIP3    H251684   6.494   5.865   1.004 -2.0384 -0.2296  1.1017
10065TIP3   OH251685   0.590   3.192   2.973 -0.2362  0.0850 -0.3634
10065TIP3    H151686   0.621   3.219   3.059 -0.6188  1.1290 -0.5404
10065TIP3    H251687   0.620   3.102   2.964  2.8776  1.0427 -0.5973
10066TIP3   OH251688   4.568   6.144  11.523 -0.0633 -0.4678 -0.3847
10066TIP3    H151689   4.616   6.106  11.450  2.2101 -1.4514  1.4818
10066TIP3    H251690   4.497   6.083  11.541  1.0788 -1.7319 -0.0256
10067TIP3   OH251691   0.348   6.540   5.645 -0.1371  0.1691  0.6522
10067TIP3    H151692   0.387   6.627   5.654 -1.9150  0.8125  2.7576
10067TIP3    H251693   0.268   6.554   5.595 -1.1276  0.0019  2.1412
10068TIP3   OH251694   4.031   2.382   2.537 -0.6362  0.1944  0.3507
10068TIP3    H151695   3.935   2.386   2.531 -0.5752 -0.2959 -2.4067
10068TIP3    H251696   4.059   2.473   2.537 -1.0798  0.3329 -0.0587
10069TIP3   OH251697   1.015   3.158   5.925 -0.5645 -0.1716 -0.0125
10069TIP3    H151698   1.034   3.175   6.017 -2.5098 -0.5497  0.5035
10069TIP3    H251699   0.968   3.236   5.894  1.2763  0.5603 -1.1149
10070TIP3   OH251700   2.266   6.464   6.041 -0.4412  0.3258 -0.4892
10070TIP3    H151701   2.329   6.397   6.068  1.8694  2.6426  0.2080
10070TIP3    H251702   2.188   6.446   6.094  0.8235 -0.5985  1.1429
10071TIP3   OH251703   5.691   0.791  14.119  0.1160  0.0386  0.4229
10071TIP3    H151704   5.778   0.802  14.158 -1.4425  0.3124  4.1926
10071TIP3    H251705   5.653   0.879  14.118 -0.8754 -0.3649  0.8622
10072TIP3   OH251706   0.912   1.161  16.725 -0.1354 -0.1363  0.5987
10072TIP3    H151707   0.923   1.251  16.694 -0.0242 -0.5302 -0.5572
10072TIP3    H251708   0.993   1.117  16.701 -0.4645 -0.7148  0.5247
10073TIP3   OH251709   2.883   2.780  13.982 -0.3721  0.7410  0.7308
10073TIP3    H151710   2.906   2.754  14.071  3.0200  1.5651  0.2074
10073TIP3    H251711   2.844   2.867  13.991  2.3578  1.9941  1.3086
10074TIP3   OH251712   1.507   0.694  12.123  0.1430  0.0639 -0.0805
10074TIP3    H151713   1.473   0.776  12.158  1.2333  0.2264  0.6245
10074TIP3    H251714   1.474   0.692  12.033  1.2989  2.0114 -0.6110
10075TIP3   OH251715   4.951   0.921   0.319  0.0927 -0.3317 -0.0043
10075TIP3    H151716   4.919   0.872   0.244  0.4762 -2.3998  1.1137
10075TIP3    H251717   5.046   0.906   0.318  0.1078 -0.3041  0.8288
10076TIP3   OH251718   4.977   6.285  12.716  0.0213  0.0058 -0.1739
10076TIP3    H151719   5.033   6.329  12.651  0.4910  0.8270  0.7643
10076TIP3    H251720   4.895   6.268  12.668  0.7219 -0.3751 -1.2876
10077TIP3   OH251721   3.189   0.969   6.074 -0.1542  0.2059  0.0864
10077TIP3    H151722   3.107   1.019   6.078 -0.5391 -0.4152 -0.0024
10077TIP3    H251723   3.235   0.993   6.155 -0.1062  1.0893 -0.1903
10078TIP3   OH251724   3.930   0.002   3.158 -0.1063  0.0874  0.2754
10078TIP3    H151725   3.899  -0.048   3.082 -0.9991  0.0763  0.6316
10078TIP3    H251726   3.958  -0.063   3.221 -1.6292 -0.0258  0.8934
10079TIP3   OH251727   6.805   4.066  13.394 -0.1371 -0.1982  0.0056
10079TIP3    H151728   6.897   4.040  13.383 -0.5409 -1.7910  0.0965
10079TIP3    H251729   6.786   4.045  13.486 -0.4231  0.7415  0.1707
10080TIP3   OH251730   1.171   1.870  12.047 -0.0292 -0.1500 -0.1398
10080TIP3    H151731   1.192   1.777  12.048  1.7051  0.2174  1.3578
10080TIP3    H251732   1.089   1.875  11.997  1.1024 -2.1780 -2.3932
10081TIP3   OH251733   1.296   4.283  15.090  0.0386  0.4809 -0.2843
10081TIP3    H151734   1.360   4.339  15.133  0.4103  0.0345 -0.2494
10081TIP3    H251735   1.298   4.310  14.998  0.2032  0.5395 -0.2631
10082TIP3   OH251736   6.507   5.053  12.008  0.4117 -0.1951 -0.1884
10082TIP3    H151737   6.415   5.080  12.008  0.7936  1.2866 -1.9436
10082TIP3    H251738   6.504   4.958  12.002 -0.9822 -0.2442  0.8025
10083TIP3   OH251739   5.053   5.588  11.227  0.5202 -0.1948  0.2826
10083TIP3    H151740   5.141   5.570  11.261  0.3366 -1.6069  0.0312
10083TIP3    H251741   5.031   5.512  11.174 -0.9184  0.0694  0.4567
10084TIP3   OH251742   0.896   0.099  16.846  0.5151 -0.4322  0.1921
10084TIP3    H151743   0.988   0.094  16.869  0.5450  1.0683  0.4828
10084TIP3    H251744   0.891   0.059  16.759  1.6499  0.4909 -0.3280
10085TIP3   OH251745   4.803   5.719  14.512 -0.3922  0.0245  0.5637
10085TIP3    H151746   4.757   5.774  14.448 -2.6807 -1.5366  0.7533
10085TIP3    H251747   4.820   5.637  14.465 -3.1916 -1.6125  2.1825
10086TIP3   OH251748   0.572   0.075  16.614 -0.1207  0.0739  0.0755
10086TIP3    H151749   0.588   0.115  16.700  0.4421 -0.4647  0.2275
10086TIP3    H251750   0.593   0.145  16.551  0.9056  0.0241  0.3415
10087TIP3   OH251751   4.582   0.239  13.500 -0.0963 -0.3956 -0.3112
10087TIP3    H151752   4.575   0.211  13.408 -0.8838 -0.0009 -0.3773
10087TIP3    H251753   4.496   0.220  13.537  0.8144 -2.4797  0.9223
10088TIP3   OH251754   6.803   2.538  13.127 -0.1484 -0.3027 -0.4533
10088TIP3    H151755   6.803   2.629  13.096 -0.0720 -0.5772 -1.2842
10088TIP3    H251756   6.788   2.545  13.221 -0.1132  0.5739 -0.5022
10089TIP3   OH251757   0.670   4.622   4.538  0.0340  0.7308 -0.5219
10089TIP3    H151758   0.662   4.684   4.465 -0.0597  0.7684 -0.4800
10089TIP3    H251759   0.765   4.608   4.547  0.0118  0.1833 -1.1024
10090TIP3   OH251760   4.472   0.649   4.039  0.1452  0.1678  0.0375
10090TIP3    H151761   4.535   0.578   4.051  0.8196  0.6646 -0.4184
10090TIP3    H251762   4.388   0.611   4.062  0.4052 -0.9529 -0.7355
10091TIP3   OH251763   3.740   5.433   3.247  0.1876 -0.0951 -0.0120
10091TIP3    H151764   3.671   5.444   3.181 -1.1485  2.7973  1.6515
10091TIP3    H251765   3.695   5.393   3.321 -0.1527  2.8930  1.5231
10092TIP3   OH251766   4.700   0.470  16.958  0.3444 -0.7004 -0.1668
10092TIP3    H151767   4.705   0.420  17.040  0.5999 -1.7073 -0.7748
10092TIP3    H251768   4.791   0.487  16.935  0.2651 -0.1656 -0.1033
10093TIP3   OH251769   3.764   0.646  14.214  0.2968  0.4941  0.2279
10093TIP3    H151770   3.710   0.612  14.285  0.8422  0.8671  0.8359
10093TIP3    H251771   3.796   0.731  14.246  0.9961  0.4194 -0.2297
10094TIP3   OH251772   6.486   2.433   4.820  0.7038  0.1050  0.3665
10094TIP3    H151773   6.512   2.362   4.878  0.3083 -0.5894 -0.2969
10094TIP3    H251774   6.551   2.432   4.750  1.1121  0.8654  0.7160
10095TIP3   OH251775   2.658   0.420  12.452  0.0949 -0.0044 -0.0734
10095TIP3    H151776   2.672   0.332  12.487  0.0313  0.0926  0.1943
10095TIP3    H251777   2.567   0.440  12.474 -0.0876 -0.1245 -0.6950
10096TIP3   OH251778   1.916   6.337  14.039  1.1408 -0.2740 -0.5294
10096TIP3    H151779   1.919   6.244  14.019  0.8276 -0.3823 -0.0835
10096TIP3    H251780   1.827   6.352  14.071  1.7999 -0.2734  1.4601
10097TIP3   OH251781   4.647   6.272   3.780  0.2560 -0.3123 -0.0353
10097TIP3    H151782   4.700   6.299   3.855 -0.6857 -0.7553  0.8106
10097TIP3    H251783   4.616   6.185   3.803 -1.0525  0.0380 -0.3968
10098TIP3   OH251784   3.949   6.263   1.972  0.5380 -0.1697  0.3003
10098TIP3    H151785   3.870   6.228   1.931 -0.9286  1.0960  1.8934
10098TIP3    H251786   3.955   6.353   1.939  0.7591  0.0546  0.9438
10099TIP3   OH251787   0.501   1.807   1.220 -0.5783  0.1201  0.0038
10099TIP3    H151788   0.550   1.785   1.299  0.2942  1.0712 -0.2550
10099TIP3    H251789   0.434   1.869   1.250 -0.2278  0.5053 -0.0019
10100TIP3   OH251790   2.746   1.294  13.597  0.0382 -0.0120  0.3101
10100TIP3    H151791   2.816   1.248  13.643 -0.8013 -1.1180  0.5238
10100TIP3    H251792   2.784   1.379  13.575  1.3759 -0.5042  0.5973
10101TIP3   OH251793   2.428   4.325   3.908 -0.0282  0.7925  0.7956
10101TIP3    H151794   2.440   4.393   3.974 -0.2152  0.2856  1.3692
10101TIP3    H251795   2.502   4.266   3.921  0.6313  1.3526 -0.2998
10102TIP3   OH251796   5.202   3.236   0.137  0.0172 -0.3330  0.4150
10102TIP3    H151797   5.284   3.197   0.109 -0.8796 -1.2627 -1.0636
10102TIP3    H251798   5.142   3.162   0.146 -0.9806  0.4378  0.3081
10103TIP3   OH251799   0.198   4.601   1.566  0.8307 -0.8219  0.3533
10103TIP3    H151800   0.249   4.672   1.606 -0.7967 -1.3616  3.7054
10103TIP3    H251801   0.135   4.646   1.509  0.4648  0.4028  1.6718
10104TIP3   OH251802   4.644   6.294  15.145  0.5523  0.6752  0.0459
10104TIP3    H151803   4.650   6.199  15.144  4.2566  0.7327  1.4079
10104TIP3    H251804   4.657   6.320  15.053 -4.0907 -0.0104 -1.0476
10105TIP3   OH251805   3.578   5.112  15.877  0.4468 -0.0929 -0.1217
10105TIP3    H151806   3.501   5.065  15.911  0.4419 -0.5906 -0.7986
10105TIP3    H251807   3.554   5.204  15.882 -0.5408 -0.2751 -1.1066
10106TIP3   OH251808   6.712   0.726   5.120  0.0349  0.0922 -0.2868
10106TIP3    H151809   6.737   0.639   5.089 -0.2749  0.0939 -0.5488
10106TIP3    H251810   6.770   0.743   5.195 -0.4848 -0.6948  0.3073
10107TIP3   OH251811   0.243   6.642   5.383  0.1578  0.0564  0.7102
10107TIP3    H151812   0.150   6.632   5.366 -0.1294  1.5855  1.1741
10107TIP3    H251813   0.270   6.559   5.421 -0.1459 -1.8465 -2.8267
10108TIP3   OH251814   1.611   0.222  16.930 -0.1298  0.1252  0.6042
10108TIP3    H151815   1.670   0.298  16.933 -0.3561  0.4100 -1.1485
10108TIP3    H251816   1.636   0.170  17.007  0.9222  1.3143  1.1131
10109TIP3   OH251817   4.838   6.337  16.772 -0.2118 -0.0041 -0.2813
10109TIP3    H151818   4.747   6.322  16.796  0.3662 -1.4297  1.2138
10109TIP3    H251819   4.841   6.429  16.746 -2.3359 -0.2748 -1.7648
10110TIP3   OH251820   4.657   4.262  11.069  0.5165 -0.1875  0.2249
10110TIP3    H151821   4.671   4.234  10.979 -0.2617 -2.5359  0.7646
10110TIP3    H251822   4.575   4.221  11.094  1.3249 -0.6094  2.3763
10111TIP3   OH251823   4.819   2.705   0.515  0.0224 -0.4139 -0.1560
10111TIP3    H151824   4.812   2.742   0.603  0.9504 -0.5223 -0.0284
10111TIP3    H251825   4.744   2.646   0.508  1.4911 -2.6927  1.6983
10112TIP3   OH251826   0.783   5.343  15.718 -0.0547  0.5662  0.4383
10112TIP3    H151827   0.791   5.319  15.810 -0.2591  0.6454  0.4763
10112TIP3    H251828   0.704   5.298  15.688  1.9287 -2.4776 -0.6578
10113TIP3   OH251829   0.336   3.048   0.638  0.5159 -0.0227 -0.2475
10113TIP3    H151830   0.315   2.996   0.715 -0.7836  0.3372 -0.3397
10113TIP3    H251831   0.284   3.009   0.568 -1.4588  2.0717 -0.0695
10114TIP3   OH251832   3.092   4.822   3.099  0.0427 -0.2487 -0.4985
10114TIP3    H151833   3.113   4.908   3.062  0.0392 -0.3108 -0.6443
10114TIP3    H251834   3.073   4.840   3.191  0.1099 -0.1026 -0.5127
10115TIP3   OH251835   0.852   4.401  14.457  0.1000 -0.1470 -0.1043
10115TIP3    H151836   0.760   4.406  14.482 -0.1930  2.1056 -1.3739
10115TIP3    H251837   0.857   4.326  14.398 -0.9038 -0.2834 -0.0365
10116TIP3   OH251838   3.461   3.208  14.477  0.2708  0.1744  0.2712
10116TIP3    H151839   3.553   3.220  14.500  0.4762 -0.9555  0.0814
10116TIP3    H251840   3.433   3.130  14.525 -0.0493 -0.6121 -1.1267
10117TIP3   OH251841   1.009   3.759  16.533  0.3180 -0.2985  0.2902
10117TIP3    H151842   0.958   3.681  16.552  1.1379 -0.2469  3.3051
10117TIP3    H251843   0.953   3.832  16.562  0.2854  0.1037 -0.7599
10118TIP3   OH251844   1.890   1.793   0.285  0.1880 -0.3834  0.1362
10118TIP3    H151845   1.985   1.791   0.280  0.2924  0.9756  1.1582
10118TIP3    H251846   1.869   1.878   0.324 -1.4990 -0.1670 -1.1341
10119TIP3   OH251847   2.491   1.163   5.838 -0.3713 -0.1396 -0.8048
10119TIP3    H151848   2.496   1.141   5.931 -1.4976 -0.0371 -0.7079
10119TIP3    H251849   2.575   1.204   5.819 -0.1901 -0.0047  0.2153
10120TIP3   OH251850   5.788   4.416  11.665  0.4356 -0.1293 -0.1410
10120TIP3    H151851   5.830   4.478  11.724 -1.9940  0.1077  1.4818
10120TIP3    H251852   5.771   4.339  11.719 -1.8885  0.1059 -0.4387
10121TIP3   OH251853   1.046   5.393  15.709 -0.5950 -0.0163  0.2700
10121TIP3    H151854   1.078   5.321  15.764 -1.4236  0.1636  1.0083
10121TIP3    H251855   0.951   5.381  15.707 -0.6630  0.5649 -0.3046
10122TIP3   OH251856   4.567   3.070   3.687 -0.2408  0.0203  0.4203
10122TIP3    H151857   4.508   3.137   3.652  1.5695  0.5909 -1.7066
10122TIP3    H251858   4.640   3.119   3.725 -0.3386 -0.7090  1.6056
10123TIP3   OH251859   5.623   5.130  11.931  0.0045  0.1842  0.3437
10123TIP3    H151860   5.548   5.157  11.879 -0.3313  0.2693  0.8681
10123TIP3    H251861   5.620   5.185  12.009  0.4005 -0.0642  0.5408
10124TIP3   OH251862   1.727   6.547  14.175 -0.5605 -0.4466 -0.5769
10124TIP3    H151863   1.734   6.457  14.209 -0.1096 -0.9030 -1.7990
10124TIP3    H251864   1.638   6.553  14.140 -0.1292 -0.9438 -1.8282
10125TIP3   OH251865   0.738   3.273   0.893  0.1993 -0.0842 -0.3148
10125TIP3    H151866   0.675   3.207   0.864 -1.6766  1.1439  0.7871
10125TIP3    H251867   0.763   3.244   0.981  1.2851 -0.6166 -0.7839
10126TIP3   OH251868   1.854   2.504   4.384  0.1712 -0.2774  0.9757
10126TIP3    H151869   1.882   2.590   4.351 -1.2201  0.3319  1.3084
10126TIP3    H251870   1.931   2.448   4.373  0.5751  0.5733 -0.8103
10127TIP3   OH251871   5.374   1.791   3.026 -0.0194 -0.3238 -0.7211
10127TIP3    H151872   5.282   1.813   3.039 -0.2357 -2.4277  2.2006
10127TIP3    H251873   5.372   1.711   2.973  0.2100 -0.0269 -1.1926
10128TIP3   OH251874   0.289   6.070  16.120  0.7582  0.2043 -0.5015
10128TIP3    H151875   0.221   6.105  16.062  0.3719  0.2398 -0.0365
10128TIP3    H251876   0.291   6.130  16.194 -0.0030 -0.8012  0.3735
10129TIP3   OH251877   4.801   4.935   3.819 -0.4507 -0.2820  0.2102
10129TIP3    H151878   4.752   5.012   3.792  2.8443  0.8416 -3.4752
10129TIP3    H251879   4.744   4.861   3.797 -2.7353  0.9410  1.6794
10130TIP3   OH251880   6.036   3.234  16.754 -0.1954 -0.3199 -0.5348
10130TIP3    H151881   6.036   3.275  16.840 -1.3841 -0.9392 -0.2092
10130TIP3    H251882   5.979   3.289  16.700 -0.6255 -0.7135 -0.4995
10131TIP3   OH251883   3.198   3.595  12.459 -0.3745 -0.0523 -0.5120
10131TIP3    H151884   3.164   3.611  12.371 -1.7453 -3.7351 -0.8025
10131TIP3    H251885   3.265   3.528  12.447 -0.0047 -0.0289  1.1905
10132TIP3   OH251886   3.431   4.296  15.930 -0.4484  0.0280 -0.4090
10132TIP3    H151887   3.492   4.302  15.856  0.4636 -0.0902  0.3171
10132TIP3    H251888   3.408   4.203  15.934 -0.0676 -0.0600 -0.2107
10133TIP3   OH251889   4.223   0.605   0.774  0.0564  0.2730  0.3895
10133TIP3    H151890   4.259   0.516   0.783 -0.2695  0.2989  2.5131
10133TIP3    H251891   4.293   0.654   0.731  0.6071 -0.8027  0.0067
10134TIP3   OH251892   3.158   3.786   4.002 -0.4941 -0.4483  0.5105
10134TIP3    H151893   3.177   3.862   4.057  0.1601 -0.6702  0.6008
10134TIP3    H251894   3.167   3.711   4.061 -3.1539 -0.5017  0.9462
10135TIP3   OH251895   3.407   4.107   3.767 -0.5527 -0.4477 -0.2131
10135TIP3    H151896   3.482   4.145   3.722 -2.0622  1.0893 -1.5826
10135TIP3    H251897   3.343   4.092   3.697 -1.7987 -1.0152  1.0126
10136TIP3   OH251898   4.678   0.962   6.320 -0.7472 -0.2014 -0.0497
10136TIP3    H151899   4.595   0.916   6.332 -0.9460 -0.1705 -1.1576
10136TIP3    H251900   4.675   1.034   6.384 -0.5899 -1.4651  1.4347
10137TIP3   OH251901   5.236   2.829   4.333 -0.6727  0.2456  0.5675
10137TIP3    H151902   5.244   2.831   4.429  0.6470  2.6461  0.4713
10137TIP3    H251903   5.184   2.750   4.316 -0.1855 -0.7711  3.1859
10138TIP3   OH251904   5.263   4.661   3.897 -0.1121  0.0870 -0.1109
10138TIP3    H151905   5.244   4.650   3.990 -0.8246 -1.6882 -0.4179
10138TIP3    H251906   5.184   4.700   3.860  0.1590  0.7625 -0.0001
10139TIP3   OH251907   4.463   1.810  11.989 -0.4954  0.2414 -0.2227
10139TIP3    H151908   4.485   1.766  11.907  0.4143  1.2071 -0.5154
10139TIP3    H251909   4.547   1.828  12.030 -0.8417  1.7293 -0.1321
10140TIP3   OH251910   5.067   2.243  11.946  0.2838 -1.1602 -0.2708
10140TIP3    H151911   5.148   2.193  11.934  0.8601 -0.6964  1.3971
10140TIP3    H251912   5.085   2.300  12.020 -0.9941  0.2152 -0.9591
10141TIP3   OH251913   4.060   5.370  15.511 -0.8637  0.1588  0.1511
10141TIP3    H151914   4.013   5.302  15.560 -0.4766 -0.4206 -0.2735
10141TIP3    H251915   4.023   5.366  15.423 -0.8629  0.5259  0.1320
10142TIP3   OH251916   5.502   5.210  12.621 -0.0687  0.4484 -0.3984
10142TIP3    H151917   5.466   5.297  12.641 -0.5009  0.6063 -1.7320
10142TIP3    H251918   5.590   5.211  12.658 -0.4212  1.0912  0.4626
10143TIP3   OH251919   2.738   4.067   0.243  0.6307  0.2075 -0.2064
10143TIP3    H151920   2.652   4.107   0.257  1.3552  2.5344 -1.7408
10143TIP3    H251921   2.728   4.013   0.165  0.7276  1.1780 -0.9096
10144TIP3   OH251922   3.431   1.570  16.513 -0.3424 -0.1598 -0.1902
10144TIP3    H151923   3.361   1.523  16.558 -1.4408  2.3782  0.9396
10144TIP3    H251924   3.392   1.596  16.429 -0.6298  0.8904  0.2614
10145TIP3   OH251925   4.973   4.029   4.158 -0.1354 -0.5461  0.3332
10145TIP3    H151926   4.977   3.971   4.234  3.1679 -0.4144  0.3962
10145TIP3    H251927   4.978   4.118   4.195 -1.8971 -0.2900  0.0595
10146TIP3   OH251928   5.514   0.640  16.425  0.3673 -0.3980  0.5648
10146TIP3    H151929   5.505   0.730  16.393  0.7101  0.4553  2.7098
10146TIP3    H251930   5.437   0.595  16.391 -0.9502  1.2889  1.1590
10147TIP3   OH251931   3.101   6.457   1.264 -0.6447  0.3827  0.3901
10147TIP3    H151932   3.147   6.396   1.321 -0.0693  0.6898  0.2564
10147TIP3    H251933   3.102   6.416   1.178  0.0470  0.7307  0.2249
10148TIP3   OH251934   2.902   2.798  11.953  0.7755 -0.3836  0.0569
10148TIP3    H151935   2.870   2.883  11.984 -0.6682 -0.4623 -1.1130
10148TIP3    H251936   2.969   2.820  11.888  1.8779 -0.1977  1.2108
10149TIP3   OH251937   2.859   2.977   2.751  0.7247 -0.0040 -0.1966
10149TIP3    H151938   2.803   2.972   2.828  1.5741  0.0948  0.4338
10149TIP3    H251939   2.936   3.027   2.779 -0.3698  2.9382 -1.9723
10150TIP3   OH251940   1.073   3.646  13.391 -0.0522  0.3441 -0.0868
10150TIP3    H151941   1.070   3.639  13.487 -3.1181  0.3316 -0.0916
10150TIP3    H251942   1.080   3.556  13.360 -2.0818  0.0455  0.1722
10151TIP3   OH251943   1.267   5.747   0.692 -0.5017 -0.2164 -0.1782
10151TIP3    H151944   1.239   5.830   0.652 -0.4540 -0.8576 -1.6082
10151TIP3    H251945   1.189   5.714   0.737 -1.5546 -1.0088 -2.4381
10152TIP3   OH251946   2.511   5.829  10.788 -0.4255 -0.0843 -0.2087
10152TIP3    H151947   2.420   5.840  10.759 -0.2938 -0.1827 -0.6650
10152TIP3    H251948   2.516   5.738  10.816  0.2281 -0.9011 -2.7530
10153TIP3   OH251949   2.598   0.587   5.903 -0.6509  0.3164 -0.0626
10153TIP3    H151950   2.598   0.602   5.808 -1.3386 -0.3952 -0.1931
10153TIP3    H251951   2.667   0.643   5.936 -0.1589  0.3151 -1.0346
10154TIP3   OH251952   3.247   3.822  12.618 -0.0023  0.0861 -0.5411
10154TIP3    H151953   3.290   3.779  12.693  0.3826  0.7655 -0.3564
10154TIP3    H251954   3.233   3.752  12.555 -1.7799 -0.8177  0.7912
10155TIP3   OH251955   3.927   4.444  14.609 -0.3673  0.4633  0.2128
10155TIP3    H151956   3.870   4.421  14.682  0.8169  1.4856  1.4997
10155TIP3    H251957   3.878   4.511  14.561  0.1730  2.2220  1.9886
10156TIP3   OH251958   1.709   2.745   2.488 -0.2751 -0.1073  0.3381
10156TIP3    H151959   1.626   2.718   2.527 -0.0699 -0.7027  0.3776
10156TIP3    H251960   1.684   2.808   2.420 -0.6453  0.8163  1.3069
10157TIP3   OH251961   2.122   0.282   0.584 -0.3258 -0.1648 -0.0594
10157TIP3    H151962   2.093   0.190   0.587 -0.4340 -0.1142  0.8708
10157TIP3    H251963   2.133   0.300   0.491 -0.5338 -1.0531 -0.2748
10158TIP3   OH251964   6.417   0.220  13.447 -0.3848  0.6286 -0.0878
10158TIP3    H151965   6.431   0.178  13.363  0.0160  0.8276 -0.1265
10158TIP3    H251966   6.365   0.298  13.427 -0.0620  0.8190 -0.1896
10159TIP3   OH251967   3.234   4.331   2.775 -0.2889  0.2230 -0.7321
10159TIP3    H151968   3.299   4.275   2.818  1.4748  1.7119 -1.3369
10159TIP3    H251969   3.281   4.371   2.702 -2.2320  0.4986 -1.9013
10160TIP3   OH251970   5.553   4.631  11.614 -0.4292  0.1309 -0.5199
10160TIP3    H151971   5.537   4.642  11.708 -0.8742  2.4843 -0.8205
10160TIP3    H251972   5.622   4.565  11.609 -0.3026  0.0556  1.4588
10161TIP3   OH251973   6.102   0.235   3.903  0.2507 -0.4137  0.2857
10161TIP3    H151974   6.008   0.218   3.913  0.4902 -1.0339  1.6459
10161TIP3    H251975   6.142   0.148   3.908  0.9696 -0.0665  0.6612
10162TIP3   OH251976   2.770   1.213  12.890 -0.1108 -1.2585 -0.5522
10162TIP3    H151977   2.738   1.124  12.873  0.5044 -1.7214  0.6273
10162TIP3    H251978   2.773   1.220  12.985  0.8652 -0.3416 -0.6307
10163TIP3   OH251979   4.248   0.434  12.289 -0.1644 -0.3478  0.1570
10163TIP3    H151980   4.314   0.386  12.239 -0.1310 -0.1460  0.0017
10163TIP3    H251981   4.198   0.367  12.335  0.5807 -0.4646  0.8186
10164TIP3   OH251982   4.623   4.253  13.512  0.6979  0.0111 -0.1457
10164TIP3    H151983   4.587   4.164  13.517  1.5501 -0.4261 -1.2631
10164TIP3    H251984   4.559   4.307  13.558 -1.6423 -0.6520 -2.3616
10165TIP3   OH251985   0.528   1.603   5.373  0.0762  0.9254  0.1095
10165TIP3    H151986   0.495   1.693   5.381 -1.1651  0.4967 -0.0018
10165TIP3    H251987   0.621   1.610   5.395 -0.2569  2.0461  1.3167
10166TIP3   OH251988   5.372   0.818  11.696 -0.5553 -0.1370 -0.6616
10166TIP3    H151989   5.391   0.911  11.682 -2.4967  0.7949  2.0434
10166TIP3    H251990   5.349   0.785  11.609 -0.6827  2.1410 -1.5580
10167TIP3   OH251991   6.064   5.649   4.195 -0.7110 -0.4900  0.0506
10167TIP3    H151992   6.124   5.602   4.253 -0.9860 -0.1210  0.6447
10167TIP3    H251993   6.070   5.603   4.111 -0.9511 -1.5666  0.6078
10168TIP3   OH251994   0.937   1.406   0.738 -0.0233 -1.0493 -0.2134
10168TIP3    H151995   0.964   1.386   0.649  3.5704 -1.1082  0.7357
10168TIP3    H251996   0.927   1.502   0.739  1.4027 -0.8853 -0.3666
10169TIP3   OH251997   5.602   6.774  14.310  0.0207  0.0464 -0.4627
10169TIP3    H151998   5.637   6.827  14.381  0.2741  1.0940 -1.3330
10169TIP3    H251999   5.550   6.835  14.257  0.6751 -0.4498 -1.7389
10170TIP3   OH252000   0.822   6.029   2.758 -0.0793 -0.0707  0.6032
10170TIP3    H152001   0.843   5.948   2.710  1.5297 -0.1536  1.3829
10170TIP3    H252002   0.902   6.081   2.753 -0.3588  0.5281  1.9818
10171TIP3   OH252003   6.698   4.791   3.757 -0.2293  0.5790  0.7323
10171TIP3    H152004   6.716   4.861   3.694 -1.1386  0.6244  0.5099
10171TIP3    H252005   6.690   4.836   3.841  0.7818  0.5404  0.8707
10172TIP3   OH252006   4.776   6.264   4.204 -0.0729 -0.1170 -0.5637
10172TIP3    H152007   4.822   6.218   4.274 -0.2976 -1.5894 -1.3440
10172TIP3    H252008   4.708   6.314   4.250 -1.1387 -2.1479  0.2456
10173TIP3   OH252009   4.283   3.145  11.258  0.3324  0.4056 -0.1945
10173TIP3    H152010   4.279   3.230  11.216 -0.0985  1.0349  1.0776
10173TIP3    H252011   4.316   3.086  11.190  1.4336  1.7224 -0.8520
10174TIP3   OH252012   2.433   4.923  11.116 -0.4246 -0.0870  0.5167
10174TIP3    H152013   2.374   4.848  11.121 -1.5146  0.6798 -0.2708
10174TIP3    H252014   2.391   4.983  11.054  1.5031  0.2400 -0.5582
10175TIP3   OH252015   5.451   2.025   3.374 -0.4100 -0.4624 -0.2869
10175TIP3    H152016   5.371   1.977   3.353  0.0226 -0.6484 -1.6193
10175TIP3    H252017   5.421   2.108   3.410 -1.1937 -0.5400 -0.7437
10176TIP3   OH252018   1.969   5.787   4.255 -0.2592  0.3851 -0.3687
10176TIP3    H152019   2.057   5.755   4.239 -0.2022  0.2675  0.1630
10176TIP3    H252020   1.915   5.708   4.260 -0.1375  0.3613  0.8291
10177TIP3   OH252021   0.303   3.466  13.697  0.2440  0.2307  0.8514
10177TIP3    H152022   0.343   3.404  13.636  1.4291  0.9202  0.8999
10177TIP3    H252023   0.210   3.445  13.695  0.2302  0.2839 -1.2372
10178TIP3   OH252024   1.540   1.015  11.187  1.2569 -0.3088  0.1175
10178TIP3    H152025   1.495   1.065  11.120 -2.6008  0.7391  3.1015
10178TIP3    H252026   1.575   1.080  11.247 -1.4868 -0.8827  2.6193
10179TIP3   OH252027   0.814   1.224   5.143  0.1891 -0.1177  0.6348
10179TIP3    H152028   0.745   1.288   5.157 -0.1362 -0.2970 -0.1411
10179TIP3    H252029   0.768   1.142   5.123  0.6102 -0.4403  0.9562
10180TIP3   OH252030   5.918   1.141   2.876  0.5741  0.5244  0.7626
10180TIP3    H152031   5.834   1.179   2.900  0.6642  0.6007  0.9591
10180TIP3    H252032   5.899   1.088   2.799  0.6725  1.9469 -0.2692
10181TIP3   OH252033   4.901   4.609  16.100 -0.0793  0.1549  0.3257
10181TIP3    H152034   4.889   4.640  16.010  1.6542  1.3863  0.4540
10181TIP3    H252035   4.813   4.590  16.131 -0.7666  0.2189 -1.4546
10182TIP3   OH252036   0.627   5.944  12.883  0.8277  0.3877 -0.2612
10182TIP3    H152037   0.638   6.038  12.898  0.2421  0.4280 -0.0764
10182TIP3    H252038   0.533   5.929  12.888  1.0288 -0.5893  2.0421
10183TIP3   OH252039   1.587   3.473   5.791  0.1503 -0.5952 -0.2505
10183TIP3    H152040   1.505   3.517   5.816 -1.0226 -3.1928  0.8269
10183TIP3    H252041   1.591   3.396   5.847  3.4129 -0.5578 -0.2403
10184TIP3   OH252042   2.236   6.010  13.856 -0.3262 -0.1942  0.3259
10184TIP3    H152043   2.165   5.968  13.808  1.0816 -1.9807 -0.3455
10184TIP3    H252044   2.241   5.962  13.938  1.1915 -1.3622 -0.3768
10185TIP3   OH252045   5.239   1.841  11.813 -0.1813  0.0390 -0.3298
10185TIP3    H152046   5.268   1.784  11.742 -2.2672 -0.9841 -0.4541
10185TIP3    H252047   5.273   1.927  11.790 -1.4379 -0.0691 -3.0877
10186TIP3   OH252048   2.412   4.893   4.320 -0.0350 -0.3865  0.3386
10186TIP3    H152049   2.506   4.907   4.332  0.2811 -2.2215  0.2949
10186TIP3    H252050   2.381   4.859   4.404 -0.0858 -2.3624 -0.4245
10187TIP3   OH252051   3.593   4.343  15.732 -0.0524 -0.2771  0.4396
10187TIP3    H152052   3.543   4.364  15.654 -0.1570  0.7072  0.7568
10187TIP3    H252053   3.647   4.268  15.707 -0.1215 -0.0078 -0.5509
10188TIP3   OH252054   1.912   0.364  17.184  0.4185 -0.3451 -0.0966
10188TIP3    H152055   1.989   0.421  17.185 -1.0986  1.8300  0.1359
10188TIP3    H252056   1.948   0.276  17.191  2.9109  0.5305 -0.6408
10189TIP3   OH252057   1.876   5.591   5.276 -0.6428 -0.0918 -0.1080
10189TIP3    H152058   1.972   5.586   5.274 -0.4698  1.6581  1.0668
10189TIP3    H252059   1.854   5.659   5.213 -0.9974  0.3822  0.5118
10190TIP3   OH252060   1.376   1.063   0.675 -0.3195  0.0905 -0.1942
10190TIP3    H152061   1.336   0.997   0.618  4.0192 -1.6218 -1.6908
10190TIP3    H252062   1.423   1.121   0.616  4.3136 -1.6971  1.2495
10191TIP3   OH252063   1.628   1.122   5.492  0.3616 -0.0943 -0.1809
10191TIP3    H152064   1.609   1.213   5.516  1.8244  0.3663 -0.6698
10191TIP3    H252065   1.560   1.100   5.428 -1.1150  0.0104  1.2792
10192TIP3   OH252066   4.513   6.424   4.136 -0.1985 -0.1700 -0.3635
10192TIP3    H152067   4.494   6.412   4.043 -2.3819 -3.1318  0.3371
10192TIP3    H252068   4.433   6.398   4.181  1.4817 -0.9717  2.4331
10193TIP3   OH252069   1.063   1.047   2.328  0.2711 -0.0356 -0.5578
10193TIP3    H152070   1.114   1.005   2.260 -1.3922 -1.2103 -1.1373
10193TIP3    H252071   0.999   1.100   2.281  0.1857  0.4768  0.1208
10194TIP3   OH252072   1.261   1.102   1.772  0.1653 -0.0842 -0.1971
10194TIP3    H152073   1.349   1.080   1.744  0.0596  0.2432 -0.7980
10194TIP3    H252074   1.222   1.149   1.698 -0.1355  0.7509  0.4580
10195TIP3   OH252075   4.916   1.226   6.158 -0.3513  0.5643  0.6625
10195TIP3    H152076   4.897   1.232   6.252 -3.7182 -1.8452  0.3184
10195TIP3    H252077   4.830   1.223   6.116  1.0445  0.7300 -2.4624
10196TIP3   OH252078   4.443   6.445   1.641  0.2659  0.6180 -0.2866
10196TIP3    H152079   4.427   6.470   1.550 -0.8056 -0.3865 -0.4091
10196TIP3    H252080   4.396   6.511   1.692 -0.4449  0.3156 -0.5261
10197TIP3   OH252081   6.064   2.976  16.181 -0.0495  0.3225 -0.3390
10197TIP3    H152082   6.070   2.881  16.193  0.3735  0.2647 -0.9979
10197TIP3    H252083   6.046   3.010  16.269 -3.1715 -0.5887 -0.4943
10198TIP3   OH252084   0.547   1.174  11.567 -0.0735 -0.1881 -0.7499
10198TIP3    H152085   0.623   1.231  11.555 -0.3668  0.2115 -0.7085
10198TIP3    H252086   0.472   1.228  11.543 -0.6404  0.4783  2.1734
10199TIP3   OH252087   1.820   1.124  10.990 -0.4325  0.2130 -0.2623
10199TIP3    H152088   1.743   1.149  10.939 -0.8553 -0.5227 -0.0076
10199TIP3    H252089   1.886   1.188  10.967 -1.0896  0.7936 -0.5729
10200TIP3   OH252090   0.914   2.388   2.505 -0.4055 -0.0716 -0.2684
10200TIP3    H152091   0.882   2.441   2.578  2.0160  0.7474  0.2755
10200TIP3    H252092   1.006   2.372   2.525 -0.2055 -1.5884 -2.1423
10201TIP3   OH252093   6.694   5.631  12.956  0.2615  0.7274 -0.0462
10201TIP3    H152094   6.639   5.649  12.880  0.1624 -1.0438 -0.4513
10201TIP3    H252095   6.632   5.618  13.027  0.1885 -0.0941 -0.2436
10202TIP3   OH252096   3.170   5.029   1.088  0.3942  0.5711  0.1769
10202TIP3    H152097   3.221   5.110   1.081  0.3807  0.6151  0.5683
10202TIP3    H252098   3.208   4.971   1.023  0.3905  0.9008 -0.1229
10203TIP3   OH252099   1.710   1.768  12.569 -0.0376  0.0628 -0.0943
10203TIP3    H152100   1.619   1.748  12.591 -0.2406  0.3253 -0.6795
10203TIP3    H252101   1.761   1.723  12.637 -0.6746  1.6871  1.5483
10204TIP3   OH252102   5.263   2.095  12.103 -0.6383 -0.2858  0.5170
10204TIP3    H152103   5.286   2.126  12.191 -1.3574 -1.0657  0.9888
10204TIP3    H252104   5.250   2.001  12.113  1.6684 -0.8453 -0.9177
10205TIP3   OH252105   6.728   5.197   5.759 -0.4325  0.3478 -0.4904
10205TIP3    H152106   6.649   5.251   5.762  0.5376  1.8573 -1.0828
10205TIP3    H252107   6.769   5.211   5.845  0.2772  1.3036 -0.9689
10206TIP3   OH252108   1.993   4.855  16.633 -0.2028 -0.6997  0.0243
10206TIP3    H152109   2.004   4.935  16.582 -0.7283 -0.2797  0.5797
10206TIP3    H252110   2.082   4.834  16.663  0.4884 -1.9753 -2.5613
10207TIP3   OH252111   2.814   3.464  13.626 -0.4736 -0.2392  0.9141
10207TIP3    H152112   2.780   3.536  13.679 -3.0383  0.8980 -1.9451
10207TIP3    H252113   2.741   3.401  13.622 -0.4148 -0.2498 -1.1646
10208TIP3   OH252114   4.555   5.600  14.044  0.1807 -0.1161 -0.2872
10208TIP3    H152115   4.544   5.505  14.040 -0.8404 -0.0516  0.6454
10208TIP3    H252116   4.566   5.627  13.953 -0.4092 -1.0299 -0.6395
10209TIP3   OH252117   5.979   2.155  15.495  0.2792  0.4390  0.0795
10209TIP3    H152118   5.940   2.095  15.559 -1.0720  0.6413 -0.5024
10209TIP3    H252119   6.066   2.119  15.478  0.1889 -0.3101  1.1022
10210TIP3   OH252120   6.773   5.089   2.245 -0.2709  0.6679  0.0618
10210TIP3    H152121   6.804   5.042   2.323 -0.9439  1.4120  0.7933
10210TIP3    H252122   6.767   5.021   2.178  0.0391 -0.0470  0.7374
10211TIP3   OH252123   4.430   4.355  11.481 -0.2738 -0.3152 -0.4420
10211TIP3    H152124   4.444   4.445  11.511 -0.0839 -0.5274  0.1128
10211TIP3    H252125   4.336   4.339  11.494  0.0680 -0.9628  1.6551
10212TIP3   OH252126   0.195   4.160  14.543 -0.5374 -0.1930 -0.1519
10212TIP3    H152127   0.174   4.067  14.551  0.8905 -0.5789 -0.5422
10212TIP3    H252128   0.270   4.172  14.600 -0.6644  0.7106 -0.1652
10213TIP3   OH252129   3.846   3.852  13.926 -0.0273  0.2592  0.0444
10213TIP3    H152130   3.900   3.868  13.848  0.2371  1.0721  0.3826
10213TIP3    H252131   3.836   3.757  13.929  0.5886  0.1653 -0.5573
10214TIP3   OH252132   3.544   1.998  13.802 -0.5515 -0.0919 -0.3399
10214TIP3    H152133   3.471   1.937  13.802 -0.0834 -0.6843  0.7576
10214TIP3    H252134   3.544   2.037  13.890  0.1384  0.2702 -0.4897
10215TIP3   OH252135   4.544   0.206   5.132  0.0713 -0.0289 -0.0733
10215TIP3    H152136   4.533   0.296   5.102  1.1334  0.0728 -0.2107
10215TIP3    H252137   4.508   0.205   5.220  0.4525  0.6450  0.0970
10216TIP3   OH252138   5.609   1.564  16.223  0.5416  0.2762  0.5892
10216TIP3    H152139   5.525   1.520  16.212  0.1156  0.9012  1.2279
10216TIP3    H252140   5.652   1.556  16.138 -0.1507 -0.0665  0.2638
10217TIP3   OH252141   1.976   0.838   4.016 -0.4767 -0.2856 -0.0503
10217TIP3    H152142   2.038   0.905   4.046 -0.3800 -0.6616  0.6117
10217TIP3    H252143   1.916   0.885   3.958  1.1101 -0.1257 -1.6726
10218TIP3   OH252144   6.610   3.780   2.030  0.0755  0.0243  0.0081
10218TIP3    H152145   6.679   3.714   2.038 -0.0970 -0.0897  0.6323
10218TIP3    H252146   6.642   3.839   1.962 -0.0188 -0.9896 -0.9409
10219TIP3   OH252147   3.570   3.382  13.940 -0.1483  0.7935 -0.2434
10219TIP3    H152148   3.620   3.411  13.863 -1.2444  0.4584 -1.1070
10219TIP3    H252149   3.510   3.316  13.906  0.4295 -0.5379  1.2120
10220TIP3   OH252150   1.723   3.365  11.219  0.2030 -0.1882 -0.3921
10220TIP3    H152151   1.653   3.320  11.172 -0.0307  0.2041 -0.4220
10220TIP3    H252152   1.779   3.294  11.252 -1.3661 -0.6404  1.4728
10221TIP3   OH252153   5.920   6.394  17.050 -0.1383 -0.0316 -0.0968
10221TIP3    H152154   5.875   6.459  17.102 -1.8494 -0.5259 -0.8804
10221TIP3    H252155   6.004   6.434  17.028  0.3447  0.4671  2.3551
10222TIP3   OH252156   0.765   2.337  13.721  0.1579  0.1865 -0.1180
10222TIP3    H152157   0.763   2.432  13.732 -0.3354  0.1435  0.2159
10222TIP3    H252158   0.677   2.308  13.745  0.4804 -0.4154  0.3794
10223TIP3   OH252159   4.849   1.034   2.905  0.2249  0.6398  0.5501
10223TIP3    H152160   4.779   0.969   2.902  1.0303 -0.2797  1.2451
10223TIP3    H252161   4.920   0.991   2.952  0.7343  2.0627  1.1343
10224TIP3   OH252162   5.162   1.544  12.249  0.0920 -0.0907 -0.1531
10224TIP3    H152163   5.187   1.520  12.338  0.8503 -1.0325 -0.5947
10224TIP3    H252164   5.240   1.524  12.196 -0.0311  1.2767 -0.9079
10225TIP3   OH252165   1.009   2.956   0.907  0.3763 -0.6538 -0.3541
10225TIP3    H152166   1.065   3.031   0.888  0.1960 -0.5272 -0.3933
10225TIP3    H252167   1.034   2.890   0.842  2.1987 -1.5237  1.1614
10226TIP3   OH252168   4.616   2.191   4.196 -0.0971 -0.3297  0.2053
10226TIP3    H152169   4.708   2.174   4.220 -0.0307 -1.1637 -0.6101
10226TIP3    H252170   4.570   2.111   4.219 -0.2593 -0.6637 -1.2130
10227TIP3   OH252171   6.732   2.688   0.496  0.4419  0.3385 -0.3060
10227TIP3    H152172   6.699   2.699   0.585  1.2663  3.0044 -0.2350
10227TIP3    H252173   6.658   2.711   0.439 -0.2296 -1.8169 -0.3949
10228TIP3   OH252174   6.046   2.365  12.599  0.0056 -0.6923 -0.3474
10228TIP3    H152175   6.101   2.438  12.570 -0.4143 -0.5300 -0.7522
10228TIP3    H252176   6.091   2.287  12.566  1.1787 -0.7322  1.2410
10229TIP3   OH252177   3.551   5.261   0.392  0.0889 -0.9549  0.2646
10229TIP3    H152178   3.502   5.266   0.473 -0.3338 -0.3256 -0.0205
10229TIP3    H252179   3.488   5.282   0.323  0.7002 -0.2867 -0.1192
10230TIP3   OH252180   4.306   1.830  16.696 -0.4637 -0.1621 -0.0347
10230TIP3    H152181   4.390   1.815  16.739 -1.3487  0.5159  2.0465
10230TIP3    H252182   4.287   1.748  16.650  1.2595 -0.3476 -0.4796
10231TIP3   OH252183   5.781   1.952   4.750  0.7583  0.3866 -1.1003
10231TIP3    H152184   5.717   2.017   4.776 -0.3397  0.5641 -3.8778
10231TIP3    H252185   5.742   1.868   4.775  1.5239  0.6422  1.1709
10232TIP3   OH252186   0.522   6.127   0.016 -0.4458 -0.3323  0.3532
10232TIP3    H152187   0.575   6.154   0.091 -1.1181  1.4768  0.2141
10232TIP3    H252188   0.562   6.169  -0.059 -0.2884 -1.4438 -0.2098
10233TIP3   OH252189   4.019   4.127  10.436  0.3513  0.0462  0.9464
10233TIP3    H152190   3.929   4.158  10.448  0.8172  0.4053  4.5611
10233TIP3    H252191   4.010   4.032  10.423 -0.5638  0.2913 -0.5013
10234TIP3   OH252192   2.091   1.614   4.501  0.2079 -0.4532 -0.6661
10234TIP3    H152193   2.013   1.607   4.445 -0.7712  0.9360  0.4598
10234TIP3    H252194   2.061   1.589   4.588  1.3432 -1.1043 -0.4407
10235TIP3   OH252195   3.201   0.126  12.081  0.0683  0.1859  0.3779
10235TIP3    H152196   3.291   0.094  12.095  0.0511  0.2826  0.7117
10235TIP3    H252197   3.210   0.221  12.074 -0.0256  0.2100  0.5692
10236TIP3   OH252198   2.714   6.640  14.218 -0.3157 -0.3110 -0.5575
10236TIP3    H152199   2.807   6.660  14.231  0.0280 -0.8433 -2.0076
10236TIP3    H252200   2.675   6.723  14.192  0.4885 -0.7500 -3.4574
10237TIP3   OH252201   1.354   2.803   2.839 -0.0750  0.2193  0.1117
10237TIP3    H152202   1.367   2.827   2.931 -1.1616 -1.0225  0.6300
10237TIP3    H252203   1.375   2.882   2.790 -0.0159  1.0766  1.4736
10238TIP3   OH252204   1.576   0.171  15.348 -0.3687  0.2066 -0.0472
10238TIP3    H152205   1.521   0.240  15.312  1.0592  0.8192 -1.1772
10238TIP3    H252206   1.525   0.133  15.420 -1.7779  1.4465 -0.3633
10239TIP3   OH252207   3.479   3.471   2.988 -0.0449  0.4856  0.3237
10239TIP3    H152208   3.405   3.483   3.047 -0.3945  0.7546 -0.1669
10239TIP3    H252209   3.442   3.482   2.901  0.6354  0.9333  0.0880
10240TIP3   OH252210   4.521   1.329   4.426  0.0465  0.3876 -0.8233
10240TIP3    H152211   4.459   1.259   4.401  0.9796 -2.2690  3.3238
10240TIP3    H252212   4.466   1.396   4.466 -0.5191 -0.0484 -0.8509
10241TIP3   OH252213   5.524   0.466   2.575 -0.4527 -0.1657  0.0981
10241TIP3    H152214   5.430   0.479   2.576 -0.4877 -0.3773 -0.5069
10241TIP3    H252215   5.540   0.402   2.506  0.1818  0.2619 -0.1686
10242TIP3   OH252216   1.484   6.322  16.932  0.5781 -0.0642 -0.9630
10242TIP3    H152217   1.414   6.284  16.985  0.7056  0.3123 -0.5168
10242TIP3    H252218   1.455   6.310  16.841 -1.1655  2.1013 -0.7759
10243TIP3   OH252219   4.898   2.330   0.823 -0.1501  0.2494 -0.1310
10243TIP3    H152220   4.978   2.289   0.855  1.3221  3.6338  0.9816
10243TIP3    H252221   4.929   2.395   0.759 -1.4531  3.9588  2.6586
10244TIP3   OH252222   1.427   0.984  13.212 -0.0645 -0.1904 -0.0461
10244TIP3    H152223   1.360   1.048  13.188 -0.8478 -0.0436  2.3058
10244TIP3    H252224   1.411   0.909  13.154 -1.6359  0.2301 -0.1896
10245TIP3   OH252225   3.100   2.439  10.850 -0.2652  0.1189  1.0152
10245TIP3    H152226   3.012   2.471  10.869  0.2346  0.5873  2.7686
10245TIP3    H252227   3.090   2.345  10.839 -1.4089  0.4860 -1.9233
10246TIP3   OH252228   5.726   0.439   2.296 -0.1958  0.2202 -0.4576
10246TIP3    H152229   5.763   0.350   2.295 -1.6126 -0.4063 -1.9495
10246TIP3    H252230   5.764   0.480   2.374  0.9058 -1.5151 -0.0279
10247TIP3   OH252231   2.543   0.935  14.147  0.4287 -0.0093 -0.3812
10247TIP3    H152232   2.625   0.894  14.174  1.0369  0.6975 -1.1012
10247TIP3    H252233   2.481   0.862  14.137  0.6067 -0.4267  1.3826
10248TIP3   OH252234   3.534   1.501   2.060  0.4338  0.2804 -0.2409
10248TIP3    H152235   3.476   1.427   2.041  1.6698 -0.7027 -0.3589
10248TIP3    H252236   3.621   1.462   2.062  1.2102  1.8931 -1.1088
10249TIP3   OH252237   3.574   1.070  15.124  0.7508 -0.2008  0.0171
10249TIP3    H152238   3.480   1.065  15.143  1.1348 -1.0556  1.9090
10249TIP3    H252239   3.580   1.057  15.029 -0.9578 -1.5763  0.0438
10250TIP3   OH252240   1.339   2.541  15.193 -0.3399 -0.5385  0.2642
10250TIP3    H152241   1.424   2.564  15.154  0.1732  3.5528  3.1496
10250TIP3    H252242   1.276   2.594  15.146 -0.5452  0.0239  1.1482
10251TIP3   OH252243   2.986   0.538   2.211  0.4166  0.8279  0.5229
10251TIP3    H152244   3.023   0.507   2.129 -0.1176  0.0764  0.5503
10251TIP3    H252245   3.014   0.473   2.276  0.4141  1.1395  0.8357
10252TIP3   OH252246   5.353   6.170  14.511  0.2357  0.7615 -0.0838
10252TIP3    H152247   5.366   6.109  14.583 -1.1486 -0.0723 -0.4995
10252TIP3    H252248   5.284   6.229  14.541  0.7575  1.4078 -0.1314
10253TIP3   OH252249   4.353   0.672  12.667 -0.0198 -0.3123  0.2502
10253TIP3    H152250   4.340   0.614  12.592  0.2445  0.8142 -0.6950
10253TIP3    H252251   4.442   0.652  12.698 -1.3566 -3.3825  2.6378
10254TIP3   OH252252   4.647   6.026  15.160 -0.3988  0.0079 -0.5470
10254TIP3    H152253   4.573   6.009  15.218  0.2562  0.3622  0.4071
10254TIP3    H252254   4.660   5.944  15.113  0.1034 -0.8238  1.0031
10255TIP3   OH252255   2.836   2.127   1.111  0.4100  0.0239  0.1676
10255TIP3    H152256   2.915   2.106   1.160 -0.2588 -0.6531  0.9974
10255TIP3    H252257   2.765   2.091   1.164 -0.6070  2.1414  0.3306
10256TIP3   OH252258   5.864   1.845   2.793 -0.0874 -0.0590 -0.0862
10256TIP3    H152259   5.867   1.935   2.761  0.3752  0.4857  1.3873
10256TIP3    H252260   5.935   1.801   2.746  1.0310  0.8864  0.6436
10257TIP3   OH252261   6.020   1.592  12.552 -0.2819 -0.0267  0.0822
10257TIP3    H152262   5.986   1.530  12.487 -0.6826  0.5606 -0.2833
10257TIP3    H252263   6.114   1.574  12.555 -0.5877 -1.6434  1.0743
10258TIP3   OH252264   2.144   5.679   2.442  0.3497  0.3785  0.4337
10258TIP3    H152265   2.184   5.599   2.474 -0.2791 -0.3107 -0.4316
10258TIP3    H252266   2.056   5.680   2.481 -0.0120  0.1051 -0.3349
10259TIP3   OH252267   2.518   5.884   3.471  0.0204  0.0454 -0.1774
10259TIP3    H152268   2.499   5.791   3.478  1.6522 -0.3707 -0.7361
10259TIP3    H252269   2.498   5.920   3.557 -1.3891 -0.6499 -0.1957
10260TIP3   OH252270   4.176   5.997   0.953  0.4354 -0.3173  0.6277
10260TIP3    H152271   4.110   5.934   0.984  0.4138  0.0507  1.3510
10260TIP3    H252272   4.132   6.045   0.882  0.5486 -1.2994 -0.1318
10261TIP3   OH252273   5.976   0.359   4.930  0.0887 -0.1568  0.3504
10261TIP3    H152274   5.939   0.398   4.851 -0.9266 -1.4578  0.1385
10261TIP3    H252275   6.007   0.433   4.981 -0.2094  0.7891 -0.7897
10262TIP3   OH252276   0.205   1.807  12.764 -0.6186 -0.2511 -0.8039
10262TIP3    H152277   0.196   1.730  12.707  1.2572 -1.1839  0.1059
10262TIP3    H252278   0.260   1.867  12.714 -0.8578 -0.0997 -0.8916
10263TIP3   OH252279   4.280   5.988   5.527 -0.3047 -0.0467  0.3506
10263TIP3    H152280   4.215   5.988   5.456  0.4608  0.0733 -0.3710
10263TIP3    H252281   4.252   5.917   5.585 -0.8386 -0.2725 -0.1668
10264TIP3   OH252282   0.200   4.193  11.685 -0.4523  0.1315  0.1442
10264TIP3    H152283   0.275   4.230  11.733 -0.3581  0.0544  0.0568
10264TIP3    H252284   0.131   4.184  11.751 -0.5823  0.7645  0.0971
10265TIP3   OH252285   0.781   2.273   4.240  0.4788 -0.3207 -0.2557
10265TIP3    H152286   0.839   2.272   4.164  2.3748 -0.8513  1.1034
10265TIP3    H252287   0.766   2.180   4.259 -0.7114 -0.1845 -0.4893
10266TIP3   OH252288   5.852   4.918   1.610  0.1385 -0.2929 -0.4208
10266TIP3    H152289   5.918   4.984   1.629  0.4310 -0.0179 -2.2373
10266TIP3    H252290   5.842   4.921   1.515 -2.8809  0.0777 -0.1991
10267TIP3   OH252291   1.014   2.394  16.595 -0.1930 -0.4655  0.1621
10267TIP3    H152292   0.957   2.414  16.520 -0.4659 -1.0170  0.2194
10267TIP3    H252293   1.072   2.470  16.601  0.2107 -0.6722 -0.9595
10268TIP3   OH252294   6.797   4.042  11.462 -0.7449 -0.4240  0.1835
10268TIP3    H152295   6.830   4.122  11.421  0.8645 -0.6952  0.8703
10268TIP3    H252296   6.875   3.995  11.489 -1.6239 -2.6010 -0.8219
10269TIP3   OH252297   4.222   0.610   1.653 -0.3499  0.5880 -0.8570
10269TIP3    H152298   4.203   0.576   1.566  0.7479 -0.6364 -0.6529
10269TIP3    H252299   4.302   0.564   1.680 -1.6905 -0.4691  1.5703
10270TIP3   OH252300   1.503   4.553   4.653  0.6672  0.1278  0.4344
10270TIP3    H152301   1.586   4.587   4.688  0.8003  1.3945 -1.0180
10270TIP3    H252302   1.486   4.606   4.575 -1.2310 -0.4919  0.3743
10271TIP3   OH252303   1.196   0.063   3.623  0.5224 -0.4890 -0.5313
10271TIP3    H152304   1.260   0.091   3.688  0.3563  2.0446 -1.3205
10271TIP3    H252305   1.153  -0.013   3.662  0.2335  1.0609  2.4719
10272TIP3   OH252306   0.058   6.082   5.435 -0.5749 -0.3395  0.2030
10272TIP3    H152307   0.031   6.044   5.519  0.0053 -0.4548  0.3415
10272TIP3    H252308   0.054   6.177   5.449 -1.0359 -0.3480  0.1726
10273TIP3   OH252309   5.997   3.407  16.400 -0.0088  0.5074  0.0616
10273TIP3    H152310   6.059   3.468  16.361 -0.6894 -0.1013 -2.1464
10273TIP3    H252311   5.957   3.455  16.471  0.2736  2.2545 -0.9089
10274TIP3   OH252312   5.614   1.638  11.969  0.5255  0.0646  0.1107
10274TIP3    H152313   5.644   1.573  11.906 -0.4045 -2.3551  2.0178
10274TIP3    H252314   5.692   1.658  12.022  0.8381  0.6322 -0.5473
10275TIP3   OH252315   3.108   5.633   4.663  0.1911  0.2724 -0.1439
10275TIP3    H152316   3.171   5.568   4.694  0.7348  0.0839 -1.5507
10275TIP3    H252317   3.045   5.583   4.610 -0.6730  0.5849  0.5584
10276TIP3   OH252318   4.850   0.456   4.190 -0.8084 -0.0986  0.0491
10276TIP3    H152319   4.935   0.427   4.156 -0.3043 -0.5044  1.5737
10276TIP3    H252320   4.841   0.546   4.158  0.5112  0.1814  0.3864
10277TIP3   OH252321   1.870   0.545  15.578  1.0461  0.1503  0.5337
10277TIP3    H152322   1.835   0.631  15.554  0.6920  0.1791  1.1416
10277TIP3    H252323   1.952   0.539  15.529 -0.3029 -0.3919 -1.7764
10278TIP3   OH252324   5.686   5.964  11.138  0.8447 -0.6514 -0.1235
10278TIP3    H152325   5.763   5.984  11.191  0.0106  0.4733  0.7366
10278TIP3    H252326   5.694   6.021  11.061  0.9231 -0.5867 -0.0674
10279TIP3   OH252327   4.388   3.875  14.736 -0.4870 -0.3905 -0.1844
10279TIP3    H152328   4.303   3.860  14.776 -0.4362 -0.6115 -0.1581
10279TIP3    H252329   4.397   3.970  14.734 -0.8056 -0.3646 -0.3416
10280TIP3   OH252330   3.993   0.897   1.504 -0.2650 -0.1937  0.2671
10280TIP3    H152331   4.086   0.872   1.513 -0.3106 -0.0153  1.2897
10280TIP3    H252332   3.995   0.978   1.452  0.0720 -0.7488 -0.6114
10281TIP3   OH252333   6.788   6.055  15.256  0.5657  0.7962  0.1827
10281TIP3    H152334   6.762   6.030  15.167  1.1373 -1.0623  0.4862
10281TIP3    H252335   6.861   6.115  15.245  1.7604 -0.7336 -0.6455
10282TIP3   OH252336   0.174   4.411  17.066  0.0311 -0.1991 -1.0609
10282TIP3    H152337   0.225   4.352  17.119 -1.0447  0.2429  0.5418
10282TIP3    H252338   0.215   4.497  17.078  0.9651 -0.3869 -2.5617
10283TIP3   OH252339   6.523   5.764   4.426  0.3982 -0.3979 -0.0603
10283TIP3    H152340   6.513   5.859   4.437 -2.0800 -0.5861 -0.1826
10283TIP3    H252341   6.525   5.731   4.516 -3.4752 -0.5378  0.1352
10284TIP3   OH252342   1.919   1.398   4.759 -0.3218 -0.0175  0.6687
10284TIP3    H152343   1.954   1.337   4.695 -1.5295  0.1072 -0.1613
10284TIP3    H252344   1.824   1.385   4.755 -0.3951 -0.6623  3.1253
10285TIP3   OH252345   6.658   1.980  14.196  0.2240  0.2669 -0.0593
10285TIP3    H152346   6.629   1.922  14.125 -2.6098  0.4699  0.8184
10285TIP3    H252347   6.665   2.066  14.155  1.4209 -0.0961 -0.6761
10286TIP3   OH252348   4.411   4.153  12.777  0.4674  0.4410  0.2526
10286TIP3    H152349   4.402   4.214  12.704  1.7320  0.0098 -0.3002
10286TIP3    H252350   4.414   4.208  12.855 -1.5392  0.8792  0.0869
10287TIP3   OH252351   5.957   6.181   2.203  0.2785  0.3892  0.5985
10287TIP3    H152352   5.884   6.142   2.155  1.3884 -2.4505  1.0622
10287TIP3    H252353   5.925   6.192   2.292  0.2360 -0.3063  0.6687
10288TIP3   OH252354   0.337   0.081  13.060  1.0133 -0.5750  0.4219
10288TIP3    H152355   0.289  -0.000  13.078  0.3351 -0.6897 -1.6308
10288TIP3    H252356   0.270   0.142  13.030  1.8417 -0.0236 -0.3556
10289TIP3   OH252357   2.476   1.332  14.974  0.2237 -0.3957 -0.0287
10289TIP3    H152358   2.473   1.246  15.016  1.8054 -1.3292 -1.6888
10289TIP3    H252359   2.504   1.391  15.043 -0.3657 -1.2888  1.0167
10290TIP3   OH252360   0.562   4.561   6.214 -0.4398 -0.2428  0.6637
10290TIP3    H152361   0.497   4.510   6.167 -0.9271  0.8070  0.1662
10290TIP3    H252362   0.646   4.521   6.190 -0.6546  0.3351 -1.2308
10291TIP3   OH252363   6.792   5.409  13.231 -0.4953  0.1542 -0.1557
10291TIP3    H152364   6.757   5.466  13.300 -1.9058  1.1252 -1.5933
10291TIP3    H252365   6.883   5.395  13.256 -0.7893  0.9937  1.5623
10292TIP3   OH252366   1.229   3.167   3.136 -1.0109 -0.2123 -0.1278
10292TIP3    H152367   1.312   3.151   3.091 -0.2629  0.2801  1.0115
10292TIP3    H252368   1.253   3.171   3.229 -2.1527  0.9846  0.1441
10293TIP3   OH252369   0.546   5.403  13.616 -0.4746 -0.1008 -0.0833
10293TIP3    H152370   0.620   5.411  13.676 -0.4166 -2.5427  0.3053
10293TIP3    H252371   0.585   5.405  13.529  0.1087 -1.4388  0.1181
10294TIP3   OH252372   2.633   1.609   2.381  0.0109 -0.3922  0.2798
10294TIP3    H152373   2.594   1.524   2.404 -0.7197 -0.2422 -0.3524
10294TIP3    H252374   2.718   1.587   2.345 -0.6101 -0.9670 -0.9082
10295TIP3   OH252375   6.138   4.561   2.611  0.4186  0.4175 -0.5707
10295TIP3    H152376   6.131   4.585   2.704 -0.7882 -0.0275 -0.5280
10295TIP3    H252377   6.047   4.552   2.582  0.7725 -1.8416 -1.1722
10296TIP3   OH252378   0.307   4.749  12.546 -0.4169  0.8810  0.4110
10296TIP3    H152379   0.355   4.709  12.473 -0.6898 -1.3435  1.3687
10296TIP3    H252380   0.215   4.743  12.520 -0.7181 -1.8708  1.6808
10297TIP3   OH252381   1.772   3.688   5.797 -0.0425 -0.5120  0.1906
10297TIP3    H152382   1.784   3.678   5.702 -0.7293 -2.8382  0.2719
10297TIP3    H252383   1.717   3.613   5.821  0.6483 -0.3194  2.5334
10298TIP3   OH252384   4.780   3.903  17.047  0.3102 -0.0669 -0.2069
10298TIP3    H152385   4.710   3.863  17.098 -0.5427  2.3376  0.6565
10298TIP3    H252386   4.825   3.960  17.109  1.9423 -0.2596 -1.1730
10299TIP3   OH252387   5.322   0.350  16.954  0.0369 -0.4401 -0.4077
10299TIP3    H152388   5.407   0.329  16.994  0.4170 -0.7549 -1.3499
10299TIP3    H252389   5.306   0.440  16.980  0.2039 -0.6729  0.5582
10300TIP3   OH252390   4.554   1.765   5.170  0.3271  0.3607  0.2832
10300TIP3    H152391   4.480   1.717   5.135 -0.2550  0.8550  0.8158
10300TIP3    H252392   4.620   1.698   5.189 -0.5092 -0.2486  1.1353
10301TIP3   OH252393   5.213   2.365  12.884  0.4545 -0.5655  0.2976
10301TIP3    H152394   5.241   2.365  12.792 -0.0146 -0.9200  0.1500
10301TIP3    H252395   5.127   2.322  12.883 -0.0429  0.3853  0.7617
10302TIP3   OH252396   4.401   2.435   0.606  0.2875  0.1515 -0.3100
10302TIP3    H152397   4.322   2.488   0.619 -0.6599 -0.9974 -1.1156
10302TIP3    H252398   4.423   2.404   0.694  0.2649  1.0504  0.0245
10303TIP3   OH252399   5.878   4.886  16.935 -0.7655 -0.7767  0.1369
10303TIP3    H152400   5.788   4.902  16.905 -0.2976 -0.9423 -1.4772
10303TIP3    H252401   5.899   4.799  16.903  1.0203  0.4505 -2.4041
10304TIP3   OH252402   6.536   3.236  13.862  0.4352  0.0653  0.0069
10304TIP3    H152403   6.495   3.322  13.850 -1.0610 -0.4788  0.9961
10304TIP3    H252404   6.475   3.174  13.822  2.1118 -0.4839 -1.8628
10305TIP3   OH252405   1.466   2.909  16.393 -0.4148 -0.1034 -0.0302
10305TIP3    H152406   1.403   2.861  16.340  0.3584 -1.4558  0.2149
10305TIP3    H252407   1.427   2.995  16.405 -1.9657 -0.7296 -0.3190
10306TIP3   OH252408   5.488   6.183  16.941 -0.0823 -0.4299  0.3851
10306TIP3    H152409   5.583   6.175  16.930  0.2789  2.2211  0.9125
10306TIP3    H252410   5.455   6.205  16.854 -0.3801 -2.2353  0.0082
10307TIP3   OH252411   0.731   5.678   0.934  0.1458  0.3138  0.2053
10307TIP3    H152412   0.667   5.610   0.914  1.5598 -0.7088 -1.1069
10307TIP3    H252413   0.724   5.740   0.861  1.8138 -0.7574 -0.9575
10308TIP3   OH252414   3.311   6.518   0.682  0.3077  0.6126  0.3401
10308TIP3    H152415   3.216   6.521   0.673  0.3567  0.7271 -0.2276
10308TIP3    H252416   3.343   6.567   0.606  0.7942  1.8894  1.3370
10309TIP3   OH252417   4.806   5.273   2.572 -0.5393  0.3251 -0.8809
10309TIP3    H152418   4.833   5.192   2.615  2.7525  3.0431  3.0290
10309TIP3    H252419   4.882   5.300   2.521 -0.6628  2.0182 -0.2222
10310TIP3   OH252420   0.555   5.120  16.216  0.4005 -0.1552 -0.3540
10310TIP3    H152421   0.474   5.171  16.215  0.2728 -0.3513 -0.0108
10310TIP3    H252422   0.544   5.058  16.288  1.0989  0.2166  0.0795
10311TIP3   OH252423   5.237   6.802   0.416  0.2808 -0.1897  0.3534
10311TIP3    H152424   5.290   6.725   0.396  1.1910  0.4884  0.0829
10311TIP3    H252425   5.158   6.767   0.457  0.3931 -1.3059 -0.3548
10312TIP3   OH252426   1.600   2.706  11.552  0.0822  0.1348  0.5052
10312TIP3    H152427   1.668   2.762  11.588 -0.4640  1.3016 -0.2010
10312TIP3    H252428   1.647   2.638  11.504  0.7614  1.1779 -0.3474
10313TIP3   OH252429   0.122   5.728  16.571 -0.5254  0.3625 -0.1168
10313TIP3    H152430   0.063   5.720  16.497 -0.2208  0.5429 -0.3827
10313TIP3    H252431   0.065   5.724  16.648 -0.7570 -0.6451 -0.3258
10314TIP3   OH252432   1.116   6.162  15.007 -0.0258  1.1333 -0.2852
10314TIP3    H152433   1.211   6.159  15.008 -0.0255 -0.0477 -1.6374
10314TIP3    H252434   1.094   6.224  14.938 -0.2258  0.6145 -0.6984
10315TIP3   OH252435   2.454   0.208  11.845 -0.0627  0.2849  0.6442
10315TIP3    H152436   2.368   0.168  11.830 -0.0455  0.8163 -1.0950
10315TIP3    H252437   2.495   0.153  11.912 -0.1175 -2.5822 -1.4859
10316TIP3   OH252438   4.691   6.770   2.192  0.7046 -0.6230 -0.3364
10316TIP3    H152439   4.624   6.763   2.123  1.2003 -0.3038 -0.8589
10316TIP3    H252440   4.770   6.734   2.152  0.4282 -2.7662  0.8897
10317TIP3   OH252441   4.104   5.231  13.786  0.1483 -0.4384 -0.0465
10317TIP3    H152442   4.013   5.202  13.785  0.5677 -1.8283 -0.6021
10317TIP3    H252443   4.100   5.324  13.767 -1.1603 -0.4796 -0.0559
10318TIP3   OH252444   0.717   2.743  14.624 -0.3877  0.3107 -0.6812
10318TIP3    H152445   0.761   2.674  14.674  0.0159 -0.1782 -1.6742
10318TIP3    H252446   0.683   2.803  14.690  1.4030  0.4768  0.1423
10319TIP3   OH252447   4.865   3.104   6.147 -0.5018  0.3092  0.1775
10319TIP3    H152448   4.875   3.042   6.219 -0.8549  0.3524  0.2678
10319TIP3    H252449   4.901   3.186   6.181  1.1940 -0.1542 -0.4048
10320TIP3   OH252450   4.493   3.353  16.750  0.1151  0.1495 -0.1291
10320TIP3    H152451   4.585   3.371  16.769 -0.3123  1.1415  1.1448
10320TIP3    H252452   4.446   3.432  16.778 -1.2202 -0.6756  0.0714
10321TIP3   OH252453   4.405   1.260  17.067 -0.0645 -0.4356  0.4069
10321TIP3    H152454   4.480   1.224  17.114 -1.1269 -2.2470  0.8122
10321TIP3    H252455   4.371   1.328  17.125  0.5808 -0.3720  0.7243
10322TIP3   OH252456   6.816   4.407  16.154  0.2477 -0.1969  0.3044
10322TIP3    H152457   6.784   4.455  16.078 -1.4157 -2.1611 -0.3143
10322TIP3    H252458   6.765   4.441  16.227 -0.0452 -0.1585  0.0830
10323TIP3   OH252459   2.399   2.706  13.771  0.5667  0.2341  0.1644
10323TIP3    H152460   2.423   2.729  13.861  0.3998 -1.9351  0.8321
10323TIP3    H252461   2.481   2.710  13.722  1.4336 -2.0216  1.2666
10324TIP3   OH252462   4.580   6.457   3.246  0.8170  0.3384  0.2241
10324TIP3    H152463   4.512   6.510   3.204 -0.0384 -0.3699  0.6891
10324TIP3    H252464   4.543   6.434   3.332  0.6345 -2.0068 -0.4202
10325TIP3   OH252465   4.597   6.781   0.354  0.0291  0.3736 -0.4563
10325TIP3    H152466   4.609   6.775   0.448  2.0537  0.3137 -0.6710
10325TIP3    H252467   4.518   6.730   0.336  0.3228 -0.6668  1.0626
10326TIP3   OH252468   4.250   1.763   5.399  0.4863  0.4045 -0.4150
10326TIP3    H152469   4.238   1.669   5.411  0.2529  0.4521 -0.2685
10326TIP3    H252470   4.340   1.779   5.426 -0.2198  0.6236  2.0557
10327TIP3   OH252471   5.309   1.384  12.875 -0.5458  0.0220  0.5527
10327TIP3    H152472   5.330   1.449  12.941  0.5823 -0.8814  1.1240
10327TIP3    H252473   5.293   1.303  12.924  1.5029 -0.9721 -0.2756
10328TIP3   OH252474   3.834   0.684   1.486 -0.1252 -0.4494 -0.4757
10328TIP3    H152475   3.900   0.753   1.493  0.2176 -0.7376 -0.7780
10328TIP3    H252476   3.808   0.666   1.576  0.5070 -0.6073 -0.3193
10329TIP3   OH252477   1.722   1.318  12.743  0.2220 -0.2685  0.2841
10329TIP3    H152478   1.742   1.257  12.814 -1.8147 -0.5298  0.6919
10329TIP3    H252479   1.631   1.342  12.757 -0.2562 -0.3076 -2.2352
10330TIP3   OH252480   3.242   0.163  15.441 -0.2911 -0.2007 -0.5879
10330TIP3    H152481   3.242   0.141  15.534  1.2237 -0.6632 -0.6819
10330TIP3    H252482   3.202   0.250  15.437  0.5565  0.2560  0.6015
10331TIP3   OH252483   4.148   5.995  13.359  0.1443 -0.1184  0.5530
10331TIP3    H152484   4.083   6.048  13.314  1.1226  1.4147  0.8850
10331TIP3    H252485   4.098   5.938  13.417 -0.9421  0.1292 -0.1227
10332TIP3   OH252486   5.365   4.278   2.082 -0.4513 -0.3218  0.1885
10332TIP3    H152487   5.430   4.210   2.098  0.0616 -0.4603 -2.1864
10332TIP3    H252488   5.289   4.232   2.047  0.1899  0.3249 -2.2122
10333TIP3   OH252489   3.255   0.091   5.813  0.2982  0.2577  0.0843
10333TIP3    H152490   3.275   0.029   5.883 -1.3486 -0.9305 -0.4395
10333TIP3    H252491   3.266   0.041   5.732  0.9218  1.2379 -0.4478
10334TIP3   OH252492   0.432   1.196   5.365  0.3495 -0.1569  0.0625
10334TIP3    H152493   0.372   1.225   5.297 -0.7060  1.6160  1.6644
10334TIP3    H252494   0.407   1.104   5.381 -0.8197  0.0552 -0.4463
10335TIP3   OH252495   0.269   5.518  15.933  0.0891 -0.3408 -0.1746
10335TIP3    H152496   0.295   5.596  15.983  0.1311 -1.6752  2.0032
10335TIP3    H252497   0.251   5.551  15.845 -0.4158  2.2238  0.7977
10336TIP3   OH252498   0.332   1.816   3.498  0.1891 -0.0482  0.2597
10336TIP3    H152499   0.259   1.761   3.469  0.6674  0.2307 -1.6053
10336TIP3    H252500   0.292   1.902   3.514  0.0653  0.0920 -0.7124
10337TIP3   OH252501   1.185   1.604  15.675 -0.2752 -0.4004  1.5374
10337TIP3    H152502   1.145   1.691  15.676 -1.0104 -0.6163 -0.9481
10337TIP3    H252503   1.276   1.619  15.650 -0.6225 -0.3516  0.2104
10338TIP3   OH252504   4.105   2.434   0.500 -0.0105  0.2460  0.1485
10338TIP3    H152505   4.038   2.434   0.568 -0.8383 -1.0002 -0.6088
10338TIP3    H252506   4.056   2.449   0.418  0.5263 -1.1947 -0.4731
10339TIP3   OH252507   5.457   1.072   5.196 -0.0973 -0.5438  0.0593
10339TIP3    H152508   5.427   1.147   5.247  0.2690 -0.4560  0.1479
10339TIP3    H252509   5.552   1.071   5.208  0.1889  0.3760 -1.8319
10340TIP3   OH252510   1.939   4.683  17.114  0.3823 -0.3843 -0.0097
10340TIP3    H152511   1.989   4.714  17.189  0.6332  0.6038 -0.5723
10340TIP3    H252512   2.001   4.683  17.042 -0.2371  0.1790 -0.5607
10341TIP3   OH252513   4.851   1.595   5.154  0.2439 -0.2487 -0.3266
10341TIP3    H152514   4.792   1.521   5.170  1.5649 -1.1116  0.8058
10341TIP3    H252515   4.860   1.598   5.059 -2.0233  0.2673 -0.5713
10342TIP3   OH252516   0.183   2.503  15.445  0.2140  0.2629 -0.2258
10342TIP3    H152517   0.259   2.480  15.498 -0.4153 -0.8088  0.2503
10342TIP3    H252518   0.107   2.480  15.499 -0.4588 -1.3877 -1.7651
10343TIP3   OH252519   1.386   1.506  10.859 -0.1139  0.2645 -0.2246
10343TIP3    H152520   1.456   1.506  10.924 -1.4734 -0.7875  1.3567
10343TIP3    H252521   1.429   1.488  10.776  1.3865 -1.4583  0.8554
10344TIP3   OH252522   0.395   1.623  17.073  0.1263  0.3065 -0.2184
10344TIP3    H152523   0.424   1.684  17.141 -0.2518  0.7092 -0.4118
10344TIP3    H252524   0.336   1.675  17.018  1.0092  0.1975 -1.2989
10345TIP3   OH252525   0.192   2.913   1.577  0.0807 -0.2419  0.6181
10345TIP3    H152526   0.123   2.874   1.631 -0.9566  0.6624 -0.0150
10345TIP3    H252527   0.270   2.910   1.632 -0.7585 -0.0867  1.8510
10346TIP3   OH252528   4.132   5.379   0.602  0.1157 -0.4019 -0.4971
10346TIP3    H152529   4.106   5.289   0.584 -1.1618 -0.0454 -0.5647
10346TIP3    H252530   4.058   5.432   0.572  0.2396  0.5806  0.7997
10347TIP3   OH252531   5.733   5.096  12.868 -0.4460 -0.2529 -0.0067
10347TIP3    H152532   5.732   5.001  12.881 -1.2686 -0.3644 -0.7591
10347TIP3    H252533   5.684   5.130  12.943 -0.8926 -0.4958 -0.1817
10348TIP3   OH252534   4.734   3.744   6.429  0.3671  0.1406  0.2490
10348TIP3    H152535   4.669   3.675   6.413  0.3930  0.2736 -0.4642
10348TIP3    H252536   4.818   3.701   6.414  0.3694  0.4247 -0.6480
10349TIP3   OH252537   6.398   0.956  11.908  0.1597  0.0874  0.0681
10349TIP3    H152538   6.389   0.942  12.002 -0.9446  1.3448  0.1835
10349TIP3    H252539   6.468   1.022  11.901  0.9109 -0.7006 -0.0756
10350TIP3   OH252540   6.564   1.944   3.239 -0.3078  0.1573  0.6915
10350TIP3    H152541   6.468   1.938   3.241 -0.2681 -0.3923  1.7495
10350TIP3    H252542   6.589   1.949   3.331  0.7119 -0.1936  0.4412
10351TIP3   OH252543   1.132   4.681   6.456  0.6224 -0.3794  0.2362
10351TIP3    H152544   1.042   4.649   6.458  0.6963 -0.6560 -0.5722
10351TIP3    H252545   1.135   4.739   6.380  1.3177 -0.9683 -0.1925
10352TIP3   OH252546   1.722   4.966  16.301 -0.3946  0.5197 -0.4087
10352TIP3    H152547   1.778   4.990  16.228 -4.2071  3.4342 -2.7792
10352TIP3    H252548   1.746   5.026  16.371  1.5150 -0.5233 -0.1046
10353TIP3   OH252549   5.555   4.743  11.877  0.5737 -0.4885 -0.1656
10353TIP3    H152550   5.590   4.822  11.837  0.3602 -0.2097  0.1922
10353TIP3    H252551   5.578   4.751  11.970  3.1898 -2.2626 -0.5637
10354TIP3   OH252552   1.124   3.528  11.413 -0.1779  0.6015 -0.0830
10354TIP3    H152553   1.126   3.567  11.500 -0.3725 -0.0355  0.2073
10354TIP3    H252554   1.146   3.436  11.427  0.0954  0.5582 -0.7447
10355TIP3   OH252555   0.109   5.457  16.962 -0.2356 -0.0221 -0.1630
10355TIP3    H152556   0.037   5.444  16.901  0.5302  0.1955 -1.1487
10355TIP3    H252557   0.160   5.376  16.957  1.0161  0.7951 -1.4829
10356TIP3   OH252558   6.582   5.272  13.966 -0.3298 -0.5095 -0.1734
10356TIP3    H152559   6.664   5.287  14.012 -0.8294  2.3310 -0.0216
10356TIP3    H252560   6.515   5.311  14.023 -1.0624  2.4023 -2.7178
10357TIP3   OH252561   1.652   6.088   5.837 -0.0077 -0.0070 -0.1822
10357TIP3    H152562   1.653   6.181   5.857 -0.0059 -0.0556  0.0436
10357TIP3    H252563   1.624   6.084   5.745  0.6110  0.2499 -0.3863
10358TIP3   OH252564   6.320   2.281  16.657 -0.2443  0.0408 -0.5346
10358TIP3    H152565   6.345   2.235  16.577  1.0938 -0.4040  0.1107
10358TIP3    H252566   6.347   2.223  16.728 -0.2032  1.0160  0.2710
10359TIP3   OH252567   1.628   5.728   5.527  0.3103 -0.1912  0.0302
10359TIP3    H152568   1.548   5.780   5.521  0.0931 -0.2534  1.7868
10359TIP3    H252569   1.693   5.787   5.565  0.4184 -0.8075  0.8408
10360TIP3   OH252570   6.649   1.007   5.607 -0.0688  0.6366  0.1610
10360TIP3    H152571   6.558   1.031   5.623 -0.1083  0.0254  0.9167
10360TIP3    H252572   6.685   1.081   5.559  0.0306  2.6427  3.0388
10361TIP3   OH252573   2.501   4.907   0.793 -0.2277  0.2289 -0.4816
10361TIP3    H152574   2.447   4.889   0.870  0.8933 -0.4185  0.1912
10361TIP3    H252575   2.478   4.838   0.731 -0.4585  0.1923 -0.3580
10362TIP3   OH252576   3.916   4.725  11.141 -0.0690  0.8011 -0.2334
10362TIP3    H152577   3.957   4.640  11.157 -1.4902  0.2292  0.5568
10362TIP3    H252578   3.823   4.706  11.134 -0.3749  2.2514 -0.4127
10363TIP3   OH252579   5.783   5.719  13.312 -0.3297  0.5464 -0.3282
10363TIP3    H152580   5.878   5.713  13.309 -0.3035  0.1460  0.8972
10363TIP3    H252581   5.758   5.678  13.394 -1.6127  0.1782 -0.8698
10364TIP3   OH252582   4.815   3.901   3.912  0.0427  0.3071  0.0873
10364TIP3    H152583   4.843   3.812   3.936  1.2401  1.1503  2.0346
10364TIP3    H252584   4.893   3.940   3.871  0.0246  0.9394  0.6434
10365TIP3   OH252585   4.434   3.635   6.396 -0.0964 -0.2398 -0.3698
10365TIP3    H152586   4.357   3.581   6.413  2.6021 -3.8050  1.9817
10365TIP3    H252587   4.447   3.685   6.476  0.4548 -0.2265 -0.4624
10366TIP3   OH252588   1.061   5.433  12.440 -0.0443 -0.2710 -0.1682
10366TIP3    H152589   1.108   5.513  12.415 -1.3750  0.3254 -0.8579
10366TIP3    H252590   1.047   5.386  12.358 -1.4742  0.0370 -0.1123
10367TIP3   OH252591   1.903   2.354  12.443 -0.5322 -0.0200  0.2952
10367TIP3    H152592   1.852   2.289  12.492 -1.5613  0.2093 -0.4410
10367TIP3    H252593   1.849   2.433  12.445  0.3425  0.5881  0.5027
10368TIP3   OH252594   1.696   4.796  11.257 -0.3864  0.2350 -0.0668
10368TIP3    H152595   1.657   4.869  11.305 -1.3104  0.7031 -1.4567
10368TIP3    H252596   1.628   4.770  11.194  0.0851 -1.5533  0.0980
10369TIP3   OH252597   3.467   2.438   2.377 -0.5123  0.0431  0.1511
10369TIP3    H152598   3.490   2.477   2.462  1.2182 -1.0064  0.2074
10369TIP3    H252599   3.452   2.513   2.320 -0.7225  0.7770  1.1373
10370TIP3   OH252600   0.295   6.537  15.186  0.1165 -0.3490 -0.2719
10370TIP3    H152601   0.221   6.527  15.246 -0.4183 -0.6078 -0.9643
10370TIP3    H252602   0.305   6.632  15.176 -1.1924 -0.2970 -1.4406
10371TIP3   OH252603   6.563   1.054   2.219  0.4406 -0.0689 -0.0979
10371TIP3    H152604   6.555   1.122   2.152 -0.7731 -0.7415 -0.6641
10371TIP3    H252605   6.648   1.071   2.260  1.2637  0.3119 -1.8573
10372TIP3   OH252606   1.579   5.448   3.982 -0.2215  0.1923 -0.7301
10372TIP3    H152607   1.574   5.419   4.074 -1.4072  1.7560 -0.2656
10372TIP3    H252608   1.526   5.384   3.935 -2.2470  1.1224  0.1797
10373TIP3   OH252609   4.820   1.210  15.742 -0.6876  0.0821 -0.0133
10373TIP3    H152610   4.868   1.244  15.666  2.9109 -0.5680  1.7232
10373TIP3    H252611   4.787   1.125  15.714 -0.2282  0.2563 -1.1363
10374TIP3   OH252612   6.638   0.469  12.160 -0.0466 -0.5312  0.2534
10374TIP3    H152613   6.701   0.536  12.186 -0.2481  0.3214 -1.3773
10374TIP3    H252614   6.584   0.456  12.238 -1.1335  2.5011  0.1137
10375TIP3   OH252615   2.365   5.241   2.557 -0.3231  0.4169  0.0057
10375TIP3    H152616   2.365   5.235   2.462  0.4345 -0.9208  0.0726
10375TIP3    H252617   2.457   5.252   2.581 -0.5075  0.7818  0.5932
10376TIP3   OH252618   0.304   3.849  14.569  0.0633  0.3540  0.5274
10376TIP3    H152619   0.267   3.854  14.481 -0.0689 -0.5186  0.5243
10376TIP3    H252620   0.397   3.866  14.557  0.0477  0.2225  0.2146
10377TIP3   OH252621   6.601   1.179  13.991 -0.6881 -0.3181 -1.0320
10377TIP3    H152622   6.616   1.138  14.077 -2.1257  1.1497 -0.0182
10377TIP3    H252623   6.688   1.207  13.962 -0.4589  2.1962  1.5935
10378TIP3   OH252624   6.368   3.370  15.582 -0.0176  0.5825  0.8579
10378TIP3    H152625   6.453   3.412  15.570  0.0874  0.6831  1.8612
10378TIP3    H252626   6.388   3.277  15.592  0.0398  0.6692  1.6357
10379TIP3   OH252627   3.365   0.792  13.582  0.3087  0.4005 -0.3572
10379TIP3    H152628   3.447   0.797  13.630 -0.0389 -0.4596  0.3603
10379TIP3    H252629   3.347   0.698  13.576  0.6676  0.4301 -2.7612
10380TIP3   OH252630   2.019   3.601  13.724 -0.7940  0.0797  0.0385
10380TIP3    H152631   2.062   3.665  13.781 -1.1048 -0.2270  0.6194
10380TIP3    H252632   1.959   3.654  13.670  1.0128  0.6536 -1.5041
10381TIP3   OH252633   2.898   2.340   0.946  0.6211 -1.0130 -0.5590
10381TIP3    H152634   2.867   2.260   0.987 -1.2753  0.7342  1.6736
10381TIP3    H252635   2.959   2.377   1.009  3.3430 -1.7088 -2.5776
10382TIP3   OH252636   4.105   5.474  11.901  0.5046  0.2134  0.0672
10382TIP3    H152637   4.160   5.411  11.947  0.2644  0.0599  0.1527
10382TIP3    H252638   4.096   5.437  11.813  0.3588  0.1213  0.1193
10383TIP3   OH252639   6.260   3.138   0.315 -0.2972  0.1551  0.0207
10383TIP3    H152640   6.194   3.161   0.249 -1.0381 -0.7657  0.4121
10383TIP3    H252641   6.311   3.068   0.276 -0.5542 -0.1959  0.3077
10384TIP3   OH252642   5.878   1.987  15.718  0.5724 -0.6134  0.1063
10384TIP3    H152643   5.869   2.044  15.794  0.0796 -1.0703  0.3990
10384TIP3    H252644   5.790   1.983  15.681  0.9081  0.0096 -0.7912
10385TIP3   OH252645   2.328   2.379  12.889  0.1743  0.0160 -0.0709
10385TIP3    H152646   2.259   2.444  12.900 -0.0176 -0.1777 -0.1120
10385TIP3    H252647   2.344   2.375  12.795  2.3756  2.2469  0.1120
10386TIP3   OH252648   3.890   2.320   3.556 -0.4625  0.1117  0.1178
10386TIP3    H152649   3.924   2.354   3.639 -2.0272 -0.0143  0.8477
10386TIP3    H252650   3.860   2.232   3.576 -1.0284  0.1432 -0.5382
10387TIP3   OH252651   5.634   2.136  15.630  0.1309 -0.4664 -0.3409
10387TIP3    H152652   5.596   2.205  15.683  1.4024 -0.9901  1.3282
10387TIP3    H252653   5.559   2.087  15.596 -0.7180  0.2657  0.4411
10388TIP3   OH252654   5.088   6.115  13.643  0.7839 -0.8548  0.1390
10388TIP3    H152655   5.155   6.135  13.708  0.8663  0.5284 -0.3257
10388TIP3    H252656   5.126   6.145  13.560  1.4441 -4.2183 -0.9166
10389TIP3   OH252657   0.589   0.213  16.352  0.2667 -0.1664  0.1032
10389TIP3    H152658   0.503   0.232  16.312  0.1335  0.7478  0.7849
10389TIP3    H252659   0.648   0.277  16.312  0.3323  0.1233  0.6550
10390TIP3   OH252660   1.532   0.709  11.015  0.1855  0.3964 -0.0718
10390TIP3    H152661   1.587   0.735  10.941 -0.9246  0.9205 -0.7453
10390TIP3    H252662   1.506   0.619  10.995  1.5746 -0.2131  0.7472
10391TIP3   OH252663   3.245   6.378  16.562 -0.0689 -0.6246 -0.1269
10391TIP3    H152664   3.209   6.342  16.481  0.9692 -0.0093 -0.8956
10391TIP3    H252665   3.179   6.439  16.594  0.1336  0.2595 -1.3409
10392TIP3   OH252666   5.322   2.500  13.921  0.2169  0.2420  0.3676
10392TIP3    H152667   5.298   2.590  13.901  0.0308  0.7320  2.5247
10392TIP3    H252668   5.403   2.507  13.971 -0.6539 -0.6317  1.9806
10393TIP3   OH252669   2.576   3.872   2.827  0.6759  0.2522 -0.2393
10393TIP3    H152670   2.493   3.915   2.846  0.3375 -0.6831  0.5130
10393TIP3    H252671   2.607   3.912   2.746  0.9703  2.7236  1.0095
10394TIP3   OH252672   0.134   4.467  11.996 -0.3003  0.3053  0.0246
10394TIP3    H152673   0.183   4.387  11.978  1.7578  1.5657 -0.2806
10394TIP3    H252674   0.164   4.529  11.930 -0.8795  1.7253  1.0367
10395TIP3   OH252675   4.761   5.477   4.876  0.1432 -0.5576  0.0354
10395TIP3    H152676   4.699   5.423   4.925 -2.2947  1.8814 -0.1216
10395TIP3    H252677   4.780   5.426   4.797 -0.9795 -1.7583  0.4962
10396TIP3   OH252678   0.390   5.851  16.446 -0.4240  0.3733  0.4130
10396TIP3    H152679   0.302   5.826  16.418 -0.4533 -0.4136  1.1891
10396TIP3    H252680   0.449   5.793  16.397 -0.0036  3.4096 -3.1368
10397TIP3   OH252681   3.175   0.295  13.056 -0.4226  0.2410  0.3464
10397TIP3    H152682   3.161   0.244  12.976  1.4933 -0.0035  0.1087
10397TIP3    H252683   3.262   0.334  13.044 -1.0593  2.0970  1.3198
10398TIP3   OH252684   4.957   0.108  16.081  0.0673 -0.4859 -0.0847
10398TIP3    H152685   5.019   0.045  16.118  1.8806  0.3071 -1.6089
10398TIP3    H252686   4.956   0.180  16.144  2.6728  0.5974 -1.1577
10399TIP3   OH252687   6.566   1.782   4.938  0.1066 -0.4101  0.7052
10399TIP3    H152688   6.494   1.812   4.992 -1.2442  0.8582 -1.6438
10399TIP3    H252689   6.538   1.696   4.906  0.0708 -0.3366  0.5394
10400TIP3   OH252690   4.793   1.018   2.013  0.0280  0.0152 -0.2368
10400TIP3    H152691   4.725   1.068   2.059 -0.4476  1.5742 -2.4583
10400TIP3    H252692   4.746   0.945   1.974  0.4004 -1.2020  1.4599
10401TIP3   OH252693   3.096   5.911  16.249  0.2444  0.0475  0.0500
10401TIP3    H152694   3.129   5.829  16.286  0.5463 -0.0104 -0.3317
10401TIP3    H252695   3.132   5.913  16.160  2.6574  1.9197  0.9262
10402TIP3   OH252696   4.869   1.801   1.367  0.9639  0.4736  0.0242
10402TIP3    H152697   4.793   1.811   1.310  0.7933  1.3523  0.3922
10402TIP3    H252698   4.916   1.884   1.360  1.6263  0.1188  0.1796
10403TIP3   OH252699   4.096   0.824  13.919 -0.0016  0.3477 -0.4132
10403TIP3    H152700   4.086   0.798  14.010  0.8505  0.7697 -0.1970
10403TIP3    H252701   4.165   0.890  13.919  0.5833 -0.2277 -1.4654
10404TIP3   OH252702   5.885   1.865  13.690 -0.2090  0.2815 -0.7548
10404TIP3    H152703   5.851   1.954  13.683  0.2250  0.4468 -0.7843
10404TIP3    H252704   5.899   1.852  13.784  1.3870  0.8869 -0.8719
10405TIP3   OH252705   0.545   6.417  14.521 -0.8797  0.3134 -0.2870
10405TIP3    H152706   0.468   6.474  14.531  0.2897  1.7434  1.1283
10405TIP3    H252707   0.576   6.403  14.610  0.8381  0.2678 -0.8655
10406TIP3   OH252708   5.657   3.369  14.695 -0.4392  0.0051 -0.0354
10406TIP3    H152709   5.692   3.457  14.706  3.4554 -1.4094  0.3886
10406TIP3    H252710   5.725   3.322  14.647 -3.1191 -2.3829 -1.7866
10407TIP3   OH252711   2.055   2.288  12.688 -0.5360 -0.2058 -0.1771
10407TIP3    H152712   2.083   2.327  12.605  0.7829  0.7575  0.6773
10407TIP3    H252713   1.962   2.310  12.694 -0.6143 -0.1403 -1.3049
10408TIP3   OH252714   4.564   1.362   3.287  0.4816  0.1658 -0.0034
10408TIP3    H152715   4.514   1.341   3.208  0.1193 -0.6888  0.4298
10408TIP3    H252716   4.590   1.453   3.276 -2.7205  1.2849  0.5309
10409TIP3   OH252717   3.465   3.924   3.072  0.6970 -0.4016 -0.2782
10409TIP3    H152718   3.547   3.972   3.062  1.2798 -1.0624  1.0154
10409TIP3    H252719   3.418   3.972   3.141  0.6392 -0.8441 -0.0038
10410TIP3   OH252720   0.954   2.021  17.085  0.2369 -0.0811 -0.2425
10410TIP3    H152721   0.956   2.112  17.055  1.2722  0.2686  0.7822
10410TIP3    H252722   1.043   1.989  17.070  0.3831 -0.3397  1.0318
10411TIP3   OH252723   0.082   0.593   1.311 -0.3077 -0.8048 -0.1107
10411TIP3    H152724   0.061   0.674   1.359 -1.3262 -0.4790 -1.0604
10411TIP3    H252725   0.006   0.578   1.255  0.8763 -1.1042 -1.7061
10412TIP3   OH252726   3.148   0.715   0.777 -0.4069 -0.4034  0.0049
10412TIP3    H152727   3.143   0.761   0.693 -0.4475 -1.3334 -0.5147
10412TIP3    H252728   3.188   0.778   0.837 -1.2416  0.6155 -0.4655
10413TIP3   OH252729   2.618   3.668   3.278  0.0848 -0.5644 -0.2329
10413TIP3    H152730   2.537   3.637   3.237 -0.8893  1.1611  0.2877
10413TIP3    H252731   2.640   3.748   3.230  1.3397 -0.8559 -0.1830
10414TIP3   OH252732   0.418   2.280  11.415  0.0757  0.1881 -0.0933
10414TIP3    H152733   0.454   2.192  11.417 -1.9414 -0.6932  1.3398
10414TIP3    H252734   0.363   2.282  11.337  2.7748  1.4203 -2.0916
10415TIP3   OH252735   0.801   4.146   0.774  0.5197 -0.0226 -0.0582
10415TIP3    H152736   0.742   4.155   0.700 -0.5642  2.2212  0.9924
10415TIP3    H252737   0.746   4.160   0.851  1.9647 -0.3713  1.0906
10416TIP3   OH252738   4.505   1.295   4.072  0.1833 -0.1650  0.0569
10416TIP3    H152739   4.440   1.234   4.107 -0.9674  0.4990 -0.8265
10416TIP3    H252740   4.453   1.362   4.027  1.4531  0.8831  0.0755
10417TIP3   OH252741   2.559   1.124   6.139  0.0609  0.7648 -0.2188
10417TIP3    H152742   2.545   1.184   6.212  0.5683 -0.1352  0.6297
10417TIP3    H252743   2.605   1.050   6.177 -0.8751 -0.3417 -1.1724
10418TIP3   OH252744   6.163   5.175  17.076  0.4584 -0.0549  0.8908
10418TIP3    H152745   6.254   5.150  17.090 -0.0268 -0.9157  2.8876
10418TIP3    H252746   6.127   5.105  17.021  1.1196  0.6007 -0.4103
10419TIP3   OH252747   4.148   5.497  16.910 -0.4723 -0.5902  0.3635
10419TIP3    H152748   4.235   5.518  16.877 -0.9961 -0.4289 -0.9919
10419TIP3    H252749   4.129   5.565  16.974  2.3146 -3.2355  4.4616
10420TIP3   OH252750   3.394   2.448   0.816 -0.1687  0.0575 -0.0633
10420TIP3    H152751   3.302   2.468   0.830 -0.3323 -1.0877  0.6488
10420TIP3    H252752   3.437   2.473   0.897  0.3163  1.3915 -0.6992
10421TIP3   OH252753   5.695   3.933  10.815  0.7760 -0.5356  0.0614
10421TIP3    H152754   5.726   3.845  10.790  1.5030 -0.6606  1.3132
10421TIP3    H252755   5.727   3.945  10.905 -0.8802  0.2786  0.5812
10422TIP3   OH252756   5.370   1.260   5.388 -0.1453 -0.2694  0.4130
10422TIP3    H152757   5.373   1.339   5.441  1.1448  0.4512 -0.6681
10422TIP3    H252758   5.413   1.193   5.441  1.9279  0.6605 -0.0073
10423TIP3   OH252759   3.749   2.088  13.623  0.0056 -0.4321 -0.6805
10423TIP3    H152760   3.833   2.060  13.659 -0.2199 -0.5849 -0.2622
10423TIP3    H252761   3.684   2.050  13.682 -0.3209  0.6179 -0.3502
10424TIP3   OH252762   1.743   3.429  12.823  0.4639 -0.1915  0.6663
10424TIP3    H152763   1.649   3.422  12.808  0.7178 -1.6587 -0.4182
10424TIP3    H252764   1.752   3.439  12.917 -0.6904 -2.3394  1.0530
10425TIP3   OH252765   3.578   3.458   0.876 -0.4786 -0.2517  0.8131
10425TIP3    H152766   3.489   3.482   0.850 -0.3609  0.6178  1.1738
10425TIP3    H252767   3.634   3.526   0.836 -0.0691 -0.2694  1.3413
10426TIP3   OH252768   2.633   5.991   0.317 -0.0215 -0.5184  0.6363
10426TIP3    H152769   2.588   5.970   0.398 -0.8350 -0.5860  0.1759
10426TIP3    H252770   2.707   6.045   0.344 -1.3847  1.1191  1.2483
10427TIP3   OH252771   5.442   5.290  11.771 -0.0313 -0.2664  0.2303
10427TIP3    H152772   5.434   5.357  11.838  0.4696 -0.3061  0.3328
10427TIP3    H252773   5.467   5.337  11.692 -3.2317  0.1447 -0.6423
10428TIP3   OH252774   4.287   0.048   3.932  0.3904  0.2217 -0.3255
10428TIP3    H152775   4.202   0.014   3.960  1.6297 -3.3223 -0.4205
10428TIP3    H252776   4.268   0.136   3.899 -3.0461 -0.0968  0.4587
10429TIP3   OH252777   0.719   0.537  14.466 -0.0703 -0.1434  0.2422
10429TIP3    H152778   0.650   0.601  14.486  0.5072  0.5897 -0.0404
10429TIP3    H252779   0.690   0.456  14.507 -1.5712 -0.1076 -0.6852
10430TIP3   OH252780   1.951   0.927   2.724 -0.1857  0.0469 -0.5091
10430TIP3    H152781   1.898   0.879   2.788  1.3113 -0.2984  0.5306
10430TIP3    H252782   1.962   0.865   2.651 -0.6640 -0.1029 -0.4640
10431TIP3   OH252783   2.377   0.729  16.007  0.0181 -0.2544  0.7475
10431TIP3    H152784   2.361   0.803  15.948 -0.1425  0.2180  1.3688
10431TIP3    H252785   2.445   0.678  15.964  1.4399  1.2126  1.1320
10432TIP3   OH252786   4.449   4.683   1.758 -0.3214 -0.2022 -0.0706
10432TIP3    H152787   4.490   4.654   1.839 -1.0225  0.8343  0.6846
10432TIP3    H252788   4.470   4.776   1.753 -1.7961  0.1546 -0.1219
10433TIP3   OH252789   6.520   1.547   5.522 -0.2187  0.2172  0.3751
10433TIP3    H152790   6.532   1.633   5.563  1.2236  0.1241  0.2069
10433TIP3    H252791   6.447   1.508   5.570  0.0614  0.9505  1.4382
10434TIP3   OH252792   6.577   5.655  12.060 -0.4318 -0.5554  0.7304
10434TIP3    H152793   6.587   5.746  12.032 -2.3971 -0.7055 -0.7159
10434TIP3    H252794   6.649   5.608  12.017 -0.4800  0.0361 -0.0196
10435TIP3   OH252795   3.732   4.466  14.820 -0.2842  0.2084 -0.2240
10435TIP3    H152796   3.806   4.434  14.872 -0.3901  0.9625  0.4016
10435TIP3    H252797   3.714   4.554  14.854 -1.2529  0.1692 -0.5933
10436TIP3   OH252798   1.039   1.094   5.627  0.0663 -0.1259 -0.4947
10436TIP3    H152799   1.080   1.166   5.578  0.5181  1.1096  1.5795
10436TIP3    H252800   1.111   1.034   5.645  0.0235 -0.2741 -0.8160
10437TIP3   OH252801   4.903   3.664   3.977  0.1423  0.2174  0.2201
10437TIP3    H152802   4.995   3.645   3.958 -0.6528 -0.2559 -4.1941
10437TIP3    H252803   4.858   3.581   3.962 -1.1688  0.6817  1.3361
10438TIP3   OH252804   4.116   3.846   5.789  0.7867 -0.2052  0.3090
10438TIP3    H152805   4.173   3.886   5.724  0.1502  1.1627  0.5539
10438TIP3    H252806   4.086   3.765   5.748  1.7254 -0.2047 -0.4045
10439TIP3   OH252807   2.073   2.475   1.776  0.3805 -0.3007 -0.5610
10439TIP3    H152808   2.102   2.429   1.855 -2.1659 -0.0128  0.6341
10439TIP3    H252809   2.122   2.557   1.776  1.8914 -1.1752 -0.4274
10440TIP3   OH252810   3.014   0.476   6.860  0.0449  0.4826  0.0261
10440TIP3    H152811   3.046   0.464   6.950 -0.4598  0.3521  0.1889
10440TIP3    H252812   2.949   0.546   6.868 -0.1722  0.3048 -0.2010
10441TIP3   OH252813   3.306   1.487   2.517  0.0899 -0.7996 -0.2314
10441TIP3    H152814   3.338   1.550   2.582  2.4601 -1.6982 -0.4315
10441TIP3    H252815   3.297   1.538   2.437 -0.3012 -0.2462  0.1526
10442TIP3   OH252816   1.851   5.412   4.054 -0.1126  0.2426  0.2442
10442TIP3    H152817   1.887   5.407   3.966 -1.5437  1.8532 -0.4776
10442TIP3    H252818   1.758   5.428   4.042 -0.5315 -0.5249  2.0716
10443TIP3   OH252819   1.252   2.658  14.894  0.7622 -0.0356 -0.3137
10443TIP3    H152820   1.167   2.665  14.849  1.2409  1.1567 -1.0946
10443TIP3    H252821   1.306   2.725  14.852  1.5094  0.5591  1.4932
10444TIP3   OH252822   5.977   5.429  16.802  0.2323  0.6375  0.0435
10444TIP3    H152823   6.032   5.439  16.724  1.4667  0.1903  0.8184
10444TIP3    H252824   6.036   5.446  16.875 -0.1824 -1.5747  0.9995
10445TIP3   OH252825   4.159   1.149   0.342  0.6812 -0.2004  0.0708
10445TIP3    H152826   4.254   1.138   0.346  0.6674 -1.9199 -2.3512
10445TIP3    H252827   4.145   1.208   0.268 -0.1546 -1.2394 -0.6302
10446TIP3   OH252828   2.488   4.350   5.765  0.1217 -0.1654  0.2514
10446TIP3    H152829   2.524   4.301   5.839 -2.4516 -2.9848 -0.1994
10446TIP3    H252830   2.414   4.397   5.801  0.6450  0.8710  0.0112
10447TIP3   OH252831   5.396   2.435   0.007  0.1229  0.0929  0.0992
10447TIP3    H152832   5.430   2.479   0.084 -1.2787 -1.0524  1.4387
10447TIP3    H252833   5.404   2.342   0.027  2.8708 -0.4005 -2.5833
10448TIP3   OH252834   2.638   5.127   3.889  0.8538  0.0644 -0.3970
10448TIP3    H152835   2.652   5.049   3.943 -1.0272 -1.6910 -2.2864
10448TIP3    H252836   2.557   5.166   3.924  1.0551  0.4274 -0.3241
10449TIP3   OH252837   2.637   3.569  14.989 -0.0903  0.4160  0.4956
10449TIP3    H152838   2.638   3.610  15.076 -0.2689  1.0460  0.2062
10449TIP3    H252839   2.724   3.587  14.954 -0.5337  1.5522 -0.0801
10450TIP3   OH252840   3.997   6.763   4.496 -1.1688  0.0593  0.6696
10450TIP3    H152841   4.075   6.794   4.449 -2.3251 -0.3672 -1.6803
10450TIP3    H252842   4.032   6.706   4.565  0.6137  0.0860 -0.1442
10451TIP3   OH252843   5.641   1.417   1.296  0.3860 -0.4340  0.4111
10451TIP3    H152844   5.665   1.432   1.388  1.6070 -3.9126  0.7976
10451TIP3    H252845   5.573   1.350   1.299 -0.2208  0.0488 -1.2361
10452TIP3   OH252846   3.260   2.178   1.035 -0.4512  0.8158  0.4216
10452TIP3    H152847   3.326   2.208   1.098  0.0381 -0.0903  0.3564
10452TIP3    H252848   3.237   2.090   1.064  0.8058 -0.1868 -1.4510
10453TIP3   OH252849   6.186   5.017   3.226 -0.3552  0.4956 -0.1176
10453TIP3    H152850   6.099   4.996   3.259  0.3318 -1.4649  0.6012
10453TIP3    H252851   6.216   5.089   3.282 -0.6905 -0.2446  1.0414
10454TIP3   OH252852   5.067   5.092  11.805  0.4707 -0.2822  0.1998
10454TIP3    H152853   5.018   5.012  11.821 -0.4145  0.5247  1.6878
10454TIP3    H252854   5.150   5.062  11.768  0.3200 -1.9180  1.1043
10455TIP3   OH252855   5.924   5.504   3.699 -0.6844  0.4081  0.8566
10455TIP3    H152856   5.877   5.586   3.683 -1.0289  0.4515  2.0063
10455TIP3    H252857   6.012   5.520   3.667 -1.2156  0.6242 -0.5526
10456TIP3   OH252858   6.738   4.210  13.132 -0.2319  0.6080 -0.8687
10456TIP3    H152859   6.694   4.199  13.216  0.9092 -0.6127 -0.4016
10456TIP3    H252860   6.831   4.217  13.154  0.2034 -0.9158 -2.0910
10457TIP3   OH252861   3.807   1.788   0.446 -0.3725 -0.1443 -0.0568
10457TIP3    H152862   3.751   1.821   0.375 -0.7904  2.1483  1.2347
10457TIP3    H252863   3.790   1.694   0.448  1.0103 -0.6717 -4.1105
10458TIP3   OH252864   1.078   2.844  10.395  0.2604  0.7333 -0.0971
10458TIP3    H152865   1.153   2.880  10.348  1.4915  1.1139  2.0473
10458TIP3    H252866   1.100   2.752  10.408  0.6631  0.9766  1.0415
10459TIP3   OH252867   4.974   6.587  11.508  0.2278  0.0947  0.1949
10459TIP3    H152868   4.977   6.507  11.560  0.2372 -0.1577 -0.1891
10459TIP3    H252869   5.051   6.581  11.451 -0.4203 -0.1945 -0.6619
10460TIP3   OH252870   5.025   2.828  11.884  0.0472 -0.0794  0.4952
10460TIP3    H152871   5.083   2.788  11.948 -0.2444 -0.0002  0.8122
10460TIP3    H252872   5.076   2.832  11.803  1.0720  1.4827  1.1677
10461TIP3   OH252873   5.645   0.574  11.097 -0.6287 -0.1932  0.2694
10461TIP3    H152874   5.590   0.651  11.084 -0.3725  0.1093  0.9600
10461TIP3    H252875   5.662   0.542  11.009 -0.6930  0.5715 -0.0283
10462TIP3   OH252876   6.604   5.420   3.664  0.4374 -0.0542  0.1650
10462TIP3    H152877   6.556   5.386   3.739  0.4010  0.9315  0.5984
10462TIP3    H252878   6.579   5.363   3.592 -1.7718  0.6919  0.2597
10463TIP3   OH252879   0.207   2.711  12.466 -0.0121  0.0821 -0.2970
10463TIP3    H152880   0.163   2.766  12.401 -1.3943 -2.2635 -1.4781
10463TIP3    H252881   0.151   2.716  12.544 -0.6150 -0.3102 -0.6954
10464TIP3   OH252882   3.271   1.631   4.670 -0.1532 -0.2115  0.0131
10464TIP3    H152883   3.200   1.671   4.719  2.3621  0.5497  3.4374
10464TIP3    H252884   3.282   1.545   4.709  3.2185  1.1531  2.5887
10465TIP3   OH252885   1.398   2.278  16.578  0.6834 -0.0497 -0.0706
10465TIP3    H152886   1.326   2.217  16.586  1.3972 -0.7886  0.8511
10465TIP3    H252887   1.361   2.352  16.529 -0.9142 -0.0431  1.0748
10466TIP3   OH252888   2.388   2.357  14.758  0.0160  0.8316 -0.4662
10466TIP3    H152889   2.401   2.417  14.832  0.5206  1.5706 -1.1302
10466TIP3    H252890   2.324   2.401  14.702 -0.9669 -0.0901 -0.0942
10467TIP3   OH252891   0.333   0.736  14.316 -0.3366 -0.1348  0.3290
10467TIP3    H152892   0.397   0.720  14.247 -2.6299  0.7161 -2.1885
10467TIP3    H252893   0.253   0.693  14.284 -1.5237  0.4087  2.4127
10468TIP3   OH252894   2.336   0.948  12.682  0.2723 -0.4733  0.3421
10468TIP3    H152895   2.380   0.863  12.680  0.5180 -0.3574  0.9376
10468TIP3    H252896   2.384   0.999  12.746 -0.0405  0.0314  0.1767
10469TIP3   OH252897   1.665   3.278  15.929  0.2030 -0.5194 -0.1529
10469TIP3    H152898   1.733   3.214  15.906 -1.8120 -2.8104 -0.1473
10469TIP3    H252899   1.677   3.293  16.023  1.2156 -0.1970 -0.3190
10470TIP3   OH252900   0.981   4.583   4.058  0.0768 -0.1752 -0.3154
10470TIP3    H152901   0.915   4.537   4.110 -0.1259  0.5403  0.0714
10470TIP3    H252902   1.051   4.604   4.120  1.6670 -2.7006 -1.0949
10471TIP3   OH252903   1.389   6.500  11.534 -0.3897  0.0959  0.3059
10471TIP3    H152904   1.351   6.473  11.618 -0.0610  1.8428  1.0726
10471TIP3    H252905   1.451   6.430  11.512 -2.2444 -1.6045  0.2447
10472TIP3   OH252906   0.764   3.387  13.552 -0.1130  0.1756 -0.2550
10472TIP3    H152907   0.754   3.292  13.560  0.1979  0.2297  0.8966
10472TIP3    H252908   0.732   3.407  13.464 -0.5704 -0.9450 -0.3582
10473TIP3   OH252909   1.286   6.716   0.247  0.1868  0.2202  0.6258
10473TIP3    H152910   1.244   6.746   0.167 -0.4186  0.1523  0.9037
10473TIP3    H252911   1.361   6.774   0.259  0.7013 -0.2211 -0.3594
10474TIP3   OH252912   2.612   2.246  15.486  0.2628  0.0816 -0.6766
10474TIP3    H152913   2.569   2.304  15.423  0.3124 -0.4789 -1.2325
10474TIP3    H252914   2.556   2.169  15.489  0.8083 -0.3238 -0.8132
10475TIP3   OH252915   3.339   4.547   1.777  0.8869 -0.0853 -0.2516
10475TIP3    H152916   3.308   4.621   1.830  0.0091 -0.8353  0.3044
10475TIP3    H252917   3.395   4.588   1.710  1.2005  0.9747  0.6254
10476TIP3   OH252918   5.706   2.812  17.125 -0.2707  0.4061 -0.0828
10476TIP3    H152919   5.631   2.838  17.180  0.7578  1.0590  1.0668
10476TIP3    H252920   5.782   2.825  17.182  0.8160  0.8269 -1.5936
10477TIP3   OH252921   5.270   3.869  15.010  0.6184  0.3391 -0.4960
10477TIP3    H152922   5.293   3.792  15.063  0.4219  0.3867 -0.3408
10477TIP3    H252923   5.240   3.832  14.927 -1.0458  0.1530  0.1416
10478TIP3   OH252924   0.499   4.692  13.438 -0.0358 -0.2025  0.0382
10478TIP3    H152925   0.561   4.734  13.379  0.9557 -2.3877 -0.5586
10478TIP3    H252926   0.437   4.647  13.381 -1.4335  0.8216  0.6607
10479TIP3   OH252927   5.180   1.683   2.392  0.0033  0.7513  0.1280
10479TIP3    H152928   5.215   1.726   2.313 -0.0405  1.7453  0.6301
10479TIP3    H252929   5.150   1.756   2.447  1.6510  0.2132  1.8534
10480TIP3   OH252930   6.641   3.269  15.320 -0.4604 -0.0353  0.2265
10480TIP3    H152931   6.622   3.175  15.314  3.5972 -1.0389  0.7090
10480TIP3    H252932   6.691   3.288  15.241 -1.9782  2.0178 -0.3103
10481TIP3   OH252933   1.537   2.101   2.764 -0.2035  0.4133 -0.3208
10481TIP3    H152934   1.486   2.021   2.750  0.1305  0.0882  0.2835
10481TIP3    H252935   1.624   2.070   2.787 -0.0492  0.9527 -0.1707
10482TIP3   OH252936   4.072   1.495   3.377  0.4622 -0.3189  0.4153
10482TIP3    H152937   4.046   1.486   3.469 -0.1792 -0.0427  0.2618
10482TIP3    H252938   4.046   1.584   3.354  1.0221 -0.2367  0.0893
10483TIP3   OH252939   6.454   3.848  12.291  0.1545  0.6624 -0.5913
10483TIP3    H152940   6.512   3.916  12.327 -0.0886  1.5609 -1.8450
10483TIP3    H252941   6.371   3.893  12.276  1.0562  1.3050 -5.1540
10484TIP3   OH252942   2.591   6.087   0.014 -0.4010 -0.3125  0.3442
10484TIP3    H152943   2.512   6.038  -0.010 -0.1956  0.1316 -1.3700
10484TIP3    H252944   2.598   6.076   0.109 -2.3319 -0.6504  0.4961
10485TIP3   OH252945   0.675   6.252  13.365 -0.0332 -0.0045  0.2473
10485TIP3    H152946   0.678   6.167  13.408  1.6197 -0.1718 -0.1241
10485TIP3    H252947   0.719   6.311  13.426 -1.7919  0.7714  0.8218
10486TIP3   OH252948   5.398   6.031  12.939 -0.5094  0.1582  0.4384
10486TIP3    H152949   5.482   6.043  12.983 -0.6330 -1.4993  1.1909
10486TIP3    H252950   5.399   6.095  12.868  1.8312 -0.4690 -0.1939
10487TIP3   OH252951   3.741   6.055   1.262  0.4184 -0.2219  0.2119
10487TIP3    H152952   3.755   5.976   1.314  0.6179  0.2820  0.9457
10487TIP3    H252953   3.646   6.060   1.252  0.2748  0.2900  1.5493
10488TIP3   OH252954   2.673   2.361   1.744 -0.2437 -0.2011 -0.4348
10488TIP3    H152955   2.655   2.273   1.777  1.8970 -0.8502 -0.7971
10488TIP3    H252956   2.657   2.355   1.650 -1.7413  0.3179 -0.2435
10489TIP3   OH252957   0.684   6.351   2.475 -0.3432  0.0796 -0.3241
10489TIP3    H152958   0.659   6.340   2.383 -2.0820 -0.1852  0.1526
10489TIP3    H252959   0.760   6.294   2.486  0.6350  0.9920 -1.8554
10490TIP3   OH252960   3.270   4.503   2.251  0.0814 -0.5019 -0.5080
10490TIP3    H152961   3.254   4.593   2.280  0.4268 -0.5867 -0.0402
10490TIP3    H252962   3.344   4.510   2.192 -1.0531 -0.2335 -1.9564
10491TIP3   OH252963   3.067   3.036  16.789 -0.2288 -0.0338  0.2931
10491TIP3    H152964   3.153   2.997  16.776 -0.6608 -0.8712 -0.1552
10491TIP3    H252965   3.030   3.041  16.701  0.2236  2.4305  0.1632
10492TIP3   OH252966   3.286   1.712  14.603  0.4318  0.3956  0.2498
10492TIP3    H152967   3.222   1.648  14.633 -0.9689  1.3475 -0.5821
10492TIP3    H252968   3.262   1.793  14.647  1.4288  0.6395  0.3618
10493TIP3   OH252969   4.193   3.107  16.044 -0.5304  0.1147 -0.4950
10493TIP3    H152970   4.177   3.043  15.975 -1.0357 -1.0860  0.6871
10493TIP3    H252971   4.106   3.127  16.079 -0.3389  1.1492 -0.5696
10494TIP3   OH252972   6.280   1.238  16.600  0.3813  0.3386 -0.0635
10494TIP3    H152973   6.271   1.166  16.539  0.6428 -0.9318  1.3442
10494TIP3    H252974   6.210   1.299  16.577 -0.0907 -0.5504 -1.0213
10495TIP3   OH252975   0.326   0.824  11.515  0.3084  0.5938 -0.3625
10495TIP3    H152976   0.317   0.909  11.471 -0.6737  0.6906 -0.0079
10495TIP3    H252977   0.420   0.811  11.522  0.5721  0.0057 -3.5552
10496TIP3   OH252978   5.162   1.045  13.500 -0.1860  0.8059  0.2804
10496TIP3    H152979   5.165   0.993  13.580 -0.3797  0.1000 -0.1581
10496TIP3    H252980   5.078   1.091  13.504  0.7249  2.4359  1.4804
10497TIP3   OH252981   5.289   5.694   2.987  0.4579 -0.1663 -0.8982
10497TIP3    H152982   5.364   5.636   2.975  2.9079  2.6907 -0.5114
10497TIP3    H252983   5.265   5.684   3.079  1.3798 -0.0047 -0.6333
10498TIP3   OH252984   1.757   0.761   5.325  0.0653 -0.4575 -0.7871
10498TIP3    H152985   1.698   0.826   5.362  1.6271 -0.5162  2.0930
10498TIP3    H252986   1.812   0.810   5.263  0.4027  0.7207  0.4172
10499TIP3   OH252987   6.640   0.086   3.200  0.0482  0.1599 -0.0206
10499TIP3    H152988   6.649   0.181   3.200  1.4900  0.0460  0.0270
10499TIP3    H252989   6.563   0.069   3.254 -0.8167  1.3320 -0.8402
10500TIP3   OH252990   5.630   5.529  12.353  0.5021 -0.1084 -0.5399
10500TIP3    H152991   5.718   5.494  12.345  0.2384 -0.7308 -0.8146
10500TIP3    H252992   5.625   5.561  12.443  1.4088  1.1051 -0.8934
10501TIP3   OH252993   5.928   3.368   2.634  0.5215 -0.5242  0.1893
10501TIP3    H152994   5.997   3.354   2.569 -0.3512 -1.8799 -0.5106
10501TIP3    H252995   5.915   3.281   2.674 -1.8320 -0.7339 -0.8284
10502TIP3   OH252996   3.073   0.029  13.499 -0.3358  0.0164 -0.0740
10502TIP3    H152997   3.046   0.055  13.411 -0.7362 -0.0591  0.0263
10502TIP3    H252998   3.073   0.111  13.549 -0.7425 -0.0430  0.0208
10503TIP3   OH252999   6.445   6.741   1.861  0.1450  0.0936 -0.0470
10503TIP3    H153000   6.497   6.817   1.887 -0.8863  0.0428  2.3535
10503TIP3    H253001   6.493   6.665   1.895  0.5437 -0.2810 -1.3778
10504TIP3   OH253002   4.308   3.236  10.464  0.1147 -1.1297  0.2494
10504TIP3    H153003   4.363   3.264  10.391  1.0010 -0.2963  1.1909
10504TIP3    H253004   4.244   3.306  10.474  0.0278 -1.2174  0.3098
10505TIP3   OH253005   3.617   5.707   0.909 -0.2880  0.1460 -0.1957
10505TIP3    H153006   3.603   5.617   0.939  0.3573 -0.0670 -0.5327
10505TIP3    H253007   3.676   5.700   0.834  0.8488  0.9463  0.5847
10506TIP3   OH253008   4.410   0.189  17.128 -0.4239 -0.2538  0.4551
10506TIP3    H153009   4.474   0.121  17.150 -2.0194 -1.2153  2.3997
10506TIP3    H253010   4.351   0.192  17.203  0.2438  4.1849  1.0909
10507TIP3   OH253011   1.708   0.042  16.403  0.3215 -0.6767  0.4837
10507TIP3    H153012   1.763   0.012  16.332  1.0059 -0.4863  0.9225
10507TIP3    H253013   1.627   0.070  16.361  0.8751 -0.1740 -0.2652
10508TIP3   OH253014   0.828   4.440   4.264  0.3250  0.7481 -0.3353
10508TIP3    H153015   0.734   4.425   4.254  0.1121  2.0469 -0.5317
10508TIP3    H253016   0.842   4.438   4.358  0.5799 -1.9178 -0.3685
10509TIP3   OH253017   5.627   5.922   5.015  0.2532  0.1835  0.0565
10509TIP3    H153018   5.532   5.933   5.020  0.1597  2.3128 -3.4010
10509TIP3    H253019   5.639   5.828   5.000 -1.0595 -0.4834  2.5798
10510TIP3   OH253020   4.518   1.006  15.204 -0.3085  0.0241  0.0493
10510TIP3    H153021   4.521   0.967  15.292 -0.2275  1.0826  0.5271
10510TIP3    H253022   4.444   0.964  15.162  0.8904 -2.0349 -0.1259
10511TIP3   OH253023   2.068   4.765   0.089  0.2522 -0.2523  0.1124
10511TIP3    H153024   2.162   4.761   0.109  0.4757 -1.6270 -1.0216
10511TIP3    H253025   2.025   4.769   0.174  1.3743  3.6771  0.6822
10512TIP3   OH253026   1.670   3.914  12.816  0.0719 -0.1457  0.5895
10512TIP3    H153027   1.579   3.918  12.844  0.2009 -2.5920  1.5847
10512TIP3    H253028   1.665   3.900  12.721 -0.6743 -1.4706  0.7896
10513TIP3   OH253029   0.055   0.430   4.586  0.3637 -0.1740 -0.1956
10513TIP3    H153030   0.015   0.353   4.545 -2.6722  0.3806  1.4159
10513TIP3    H253031   0.098   0.395   4.665 -1.2802 -0.2563  0.7047
10514TIP3   OH253032   5.098   5.462  12.127 -0.7651  0.4419  0.1001
10514TIP3    H153033   5.165   5.497  12.186  0.0061 -0.4056 -0.2482
10514TIP3    H253034   5.018   5.459  12.180  0.3098 -2.0956  1.7661
10515TIP3   OH253035   2.679   1.282  11.216 -0.5594 -0.2750  0.4258
10515TIP3    H153036   2.622   1.236  11.277 -0.2405  0.6722  1.4607
10515TIP3    H253037   2.690   1.369  11.254  1.8302 -0.5305  0.4364
10516TIP3   OH253038   2.345   2.984  17.236 -0.2614  0.6268  0.0733
10516TIP3    H153039   2.360   2.957  17.327 -0.6717  3.6344  1.1581
10516TIP3    H253040   2.418   2.947  17.187 -1.2679 -3.0753  1.0934
10517TIP3   OH253041   2.642   1.434   4.631 -0.0986 -0.5500  0.3374
10517TIP3    H153042   2.696   1.364   4.667 -2.7181 -2.3905  0.9720
10517TIP3    H253043   2.584   1.390   4.570 -1.7324  1.1108  0.6170
10518TIP3   OH253044   2.563   0.802  12.086  0.1438 -0.0345  0.4902
10518TIP3    H153045   2.522   0.716  12.093 -0.1614  0.2252  2.1589
10518TIP3    H253046   2.498   0.863  12.119  0.7689  0.7175  0.3770
10519TIP3   OH253047   2.730   1.991   6.439 -0.1267 -0.8030 -0.1979
10519TIP3    H153048   2.661   1.980   6.373  0.3858  0.6351 -1.0122
10519TIP3    H253049   2.762   1.903   6.456 -3.0024 -1.7088  1.1598
10520TIP3   OH253050   4.791   0.072   2.426  0.1907  0.2666 -0.0750
10520TIP3    H153051   4.758   0.161   2.420 -0.0044  0.2348  0.4764
10520TIP3    H253052   4.721   0.018   2.388  0.4005  0.3606 -0.6099
10521TIP3   OH253053   3.714   4.852   2.410  0.1285 -0.0939  0.1135
10521TIP3    H153054   3.693   4.867   2.318 -0.6350 -1.3133  0.0686
10521TIP3    H253055   3.775   4.779   2.409  0.4488  0.1641  0.5599
10522TIP3   OH253056   6.093   2.725  15.958  0.4846  0.0434 -0.3646
10522TIP3    H153057   6.058   2.813  15.942  0.2937 -0.3827 -2.7318
10522TIP3    H253058   6.109   2.722  16.052 -0.9180  2.0764  0.0070
10523TIP3   OH253059   4.449   6.151  16.967 -0.7902  0.2531  0.0685
10523TIP3    H153060   4.432   6.080  16.905 -2.2669 -0.2630  1.0359
10523TIP3    H253061   4.403   6.126  17.046  1.6319  0.5596  1.6847
10524TIP3   OH253062   1.735   5.617   4.262  0.2683  0.6301 -0.2669
10524TIP3    H153063   1.704   5.633   4.351  0.5856  1.0485 -0.2278
10524TIP3    H253064   1.723   5.523   4.249  0.9394  0.4208  0.4939
10525TIP3   OH253065   0.044   1.445   0.741  0.3105 -0.1507  0.1813
10525TIP3    H153066   0.111   1.402   0.689 -1.0131 -0.5855 -1.2361
10525TIP3    H253067  -0.037   1.399   0.719 -1.1130  2.7000 -1.0342
10526TIP3   OH253068   4.904   5.175  14.454 -0.5712 -0.7826  0.1677
10526TIP3    H153069   4.965   5.152  14.384 -0.3027 -1.8504  0.7247
10526TIP3    H253070   4.918   5.268  14.469  0.8919 -0.9953  0.2432
10527TIP3   OH253071   2.294   2.421  17.055 -0.4413 -0.0780  1.2201
10527TIP3    H153072   2.329   2.371  17.128  1.3090 -3.4292 -1.6365
10527TIP3    H253073   2.355   2.494  17.044 -0.1437 -0.1360  2.4055
10528TIP3   OH253074   5.480   2.882  17.247  0.0271  0.2412 -0.6542
10528TIP3    H153075   5.438   2.827  17.313  0.2485 -0.4877 -1.1113
10528TIP3    H253076   5.408   2.925  17.202 -0.2233 -0.7774 -1.2418
10529TIP3   OH253077   5.751   3.708  11.858 -0.0854  0.5372 -0.0335
10529TIP3    H153078   5.783   3.681  11.944 -0.6550 -1.7912 -0.4693
10529TIP3    H253079   5.706   3.791  11.874  0.9957  0.8531  1.6351
10530TIP3   OH253080   2.558   1.654   3.773 -0.3047 -0.1197 -0.1516
10530TIP3    H153081   2.585   1.717   3.840  0.8457 -0.8123  0.0606
10530TIP3    H253082   2.552   1.571   3.820 -0.6387 -0.3963 -0.6751
10531TIP3   OH253083   5.697   4.665  11.248 -0.2327  0.1751 -0.2369
10531TIP3    H153084   5.719   4.696  11.336 -1.7400  1.4202 -0.2441
10531TIP3    H253085   5.706   4.570  11.252  1.0305  0.3178  0.8571
10532TIP3   OH253086   3.241   3.439   6.095 -0.2086  0.5040 -0.3504
10532TIP3    H153087   3.181   3.389   6.151  1.1405 -1.9894 -0.9644
10532TIP3    H253088   3.318   3.452   6.150 -0.4329  1.7245 -0.3007
10533TIP3   OH253089   5.104   6.736  16.957  0.7993  0.3615  0.1654
10533TIP3    H153090   5.166   6.793  17.004  0.0840  1.0229  0.3297
10533TIP3    H253091   5.055   6.796  16.901  0.0514 -0.1007  0.3116
10534TIP3   OH253092   4.263   6.044  14.309 -0.4112 -0.5286  0.3904
10534TIP3    H153093   4.240   6.134  14.285 -1.3570 -0.6213  0.8896
10534TIP3    H253094   4.190   5.991  14.277  0.8284 -1.3430 -1.2384
10535TIP3   OH253095   3.265   0.482  15.626  0.2771  0.4636  1.1506
10535TIP3    H153096   3.237   0.534  15.701 -0.7416  0.7101  0.6171
10535TIP3    H253097   3.186   0.472  15.573  0.7213 -0.6711  0.6799
10536TIP3   OH253098   0.158   2.037  14.866 -0.4824  0.7775  0.5028
10536TIP3    H153099   0.119   1.974  14.926  0.5798 -0.2505  0.1581
10536TIP3    H253100   0.185   1.985  14.791  1.3834  1.4393  0.6630
10537TIP3   OH253101   3.794   3.970  14.168  0.2476 -0.1726  0.5884
10537TIP3    H153102   3.773   4.060  14.145 -2.0891 -1.1468 -1.5266
10537TIP3    H253103   3.848   3.938  14.096 -0.5485 -0.9786  0.3262
10538TIP3   OH253104   5.484   6.638   0.892  0.4536 -0.3309 -0.6347
10538TIP3    H153105   5.499   6.689   0.971  0.4766 -0.8253 -0.3168
10538TIP3    H253106   5.439   6.559   0.922 -1.4107  0.3831 -1.3672
10539TIP3   OH253107   5.341   3.951  12.890 -0.3754 -0.0165 -0.0488
10539TIP3    H153108   5.434   3.960  12.908 -0.5306  0.5340  0.4951
10539TIP3    H253109   5.335   3.953  12.794  0.0615  1.1455 -0.0627
10540TIP3   OH253110   3.276   4.625  15.899  0.1421  0.3044 -0.3607
10540TIP3    H153111   3.229   4.693  15.948 -0.8863 -0.1562 -0.6760
10540TIP3    H253112   3.326   4.673  15.833  1.4970  0.9348  1.0600
10541TIP3   OH253113   5.927   2.456   3.340 -0.4396 -0.2058 -0.4867
10541TIP3    H153114   6.020   2.434   3.343 -0.3623  0.1914  1.2328
10541TIP3    H253115   5.885   2.380   3.299  0.5473 -0.7400 -0.5241
10542TIP3   OH253116   6.229   6.023  16.864  0.5354 -0.5004 -0.2659
10542TIP3    H153117   6.305   5.981  16.823 -0.2805 -1.7137 -0.5813
10542TIP3    H253118   6.241   6.007  16.957  0.4185 -1.1219 -0.3553
10543TIP3   OH253119   1.921   1.350  16.936 -1.1637 -0.2689 -0.2440
10543TIP3    H153120   1.899   1.439  16.909 -2.3574 -0.4649  0.0110
10543TIP3    H253121   1.980   1.360  17.011 -0.8342  0.2979 -0.5786
10544TIP3   OH253122   3.802   6.649  11.054  0.0066 -0.3791  0.3749
10544TIP3    H153123   3.740   6.663  10.982 -0.4386  1.1110  1.0087
10544TIP3    H253124   3.776   6.565  11.092 -0.4974 -0.6199 -0.4720
10545TIP3   OH253125   6.471   6.791  14.900 -0.2889 -0.4382  0.4127
10545TIP3    H153126   6.402   6.812  14.838 -0.6808  1.2657  1.3707
10545TIP3    H253127   6.526   6.869  14.903 -1.4976  0.4325  3.7664
10546TIP3   OH253128   3.991   2.475  14.873  0.4468  0.3025 -0.5250
10546TIP3    H153129   4.080   2.490  14.841  0.7180  1.6785  0.7704
10546TIP3    H253130   4.004   2.437  14.960 -0.2634 -0.4203 -0.7187
10547TIP3   OH253131   3.359   5.613  13.080  0.1708  0.0270 -0.3817
10547TIP3    H153132   3.325   5.696  13.114 -0.7113  0.2036 -1.6297
10547TIP3    H253133   3.285   5.553  13.087  1.5424 -1.5065  3.0649
10548TIP3   OH253134   4.156   0.788   4.152  0.4796 -0.3775 -0.3477
10548TIP3    H153135   4.174   0.697   4.172 -0.1037 -0.4448 -0.0954
10548TIP3    H253136   4.139   0.790   4.058  1.1079 -0.4206 -0.4645
10549TIP3   OH253137   6.245   4.316   2.643  0.6993  0.2494  0.0921
10549TIP3    H153138   6.171   4.265   2.610  0.7793  0.1208  0.1126
10549TIP3    H253139   6.212   4.406   2.647 -0.1970 -0.1078  2.1814
10550TIP3   OH253140   1.595   5.816   2.082  0.1245  0.4714 -0.6967
10550TIP3    H153141   1.627   5.810   2.172 -0.3491  1.6513 -0.4279
10550TIP3    H253142   1.613   5.906   2.057  0.0053  0.2227 -1.6955
10551TIP3   OH253143   6.550   4.062  16.861  0.4393 -0.4143  0.3518
10551TIP3    H153144   6.585   4.114  16.789  1.7979 -0.1519  1.1709
10551TIP3    H253145   6.458   4.090  16.868 -0.0523 -1.1964 -1.9027
10552TIP3   OH253146   4.716   5.535  14.766  0.1136  0.3505 -0.5204
10552TIP3    H153147   4.745   5.575  14.684 -0.6749  0.3677 -0.8015
10552TIP3    H253148   4.714   5.441  14.748  0.6905  0.2862 -0.2716
10553TIP3   OH253149   1.721   2.254   2.216  0.2968 -0.2030  0.0217
10553TIP3    H153150   1.706   2.160   2.222  0.8422 -0.1922  2.6218
10553TIP3    H253151   1.634   2.292   2.205 -0.0940 -0.9113  0.6005
10554TIP3   OH253152   3.296   5.608  13.432 -0.6418  0.5771 -0.5018
10554TIP3    H153153   3.282   5.692  13.387 -0.7813  0.4059 -0.7823
10554TIP3    H253154   3.251   5.544  13.377  0.0876  0.2154 -0.6846
10555TIP3   OH253155   0.755   6.315   6.022  0.2054  0.0692  0.5509
10555TIP3    H153156   0.682   6.374   6.037 -0.3747 -0.6604  0.6669
10555TIP3    H253157   0.832   6.372   6.021 -0.3764  0.8697  0.2293
10556TIP3   OH253158   2.239   1.774  13.016  0.3763  0.0236 -0.1127
10556TIP3    H153159   2.332   1.763  12.997  0.7323  1.3344  0.7185
10556TIP3    H253160   2.222   1.867  13.000 -0.8809 -0.2616 -0.5743
10557TIP3   OH253161   4.834   5.858   1.482  0.4170 -0.1908 -0.0735
10557TIP3    H153162   4.845   5.937   1.430 -1.1469  0.5593  0.6697
10557TIP3    H253163   4.883   5.791   1.435  0.0067  0.7237 -1.8842
10558TIP3   OH253164   3.090   4.361   5.494  0.2294 -0.0541  0.1335
10558TIP3    H153165   3.112   4.310   5.416  1.8727  1.1666 -0.2569
10558TIP3    H253166   3.080   4.295   5.563 -0.1145 -1.0684 -0.8495
10559TIP3   OH253167   1.828   3.153  11.628  0.3678 -0.2382  0.0056
10559TIP3    H153168   1.872   3.167  11.545  0.8143  1.9259  0.5362
10559TIP3    H253169   1.896   3.165  11.694 -0.5252  1.0660  0.7598
10560TIP3   OH253170   0.180   0.639  13.387  0.2271 -0.2685 -0.6568
10560TIP3    H153171   0.166   0.545  13.379  0.4504 -0.4024  0.4355
10560TIP3    H253172   0.164   0.659  13.479  0.2873  0.7485 -0.8461
10561TIP3   OH253173   5.826   4.295  16.917  0.0179 -0.4818 -0.1999
10561TIP3    H153174   5.922   4.292  16.919  0.0420  0.1587  1.0177
10561TIP3    H253175   5.805   4.368  16.859  0.3399  0.7155  1.1368
10562TIP3   OH253176   0.364   0.233   4.309 -0.5231  0.7099  0.6177
10562TIP3    H153177   0.325   0.147   4.326 -1.5533  1.3185  1.5045
10562TIP3    H253178   0.310   0.269   4.238 -1.7726  1.6186  1.9519
10563TIP3   OH253179   2.306   5.979  12.150  0.5418 -0.0433 -0.0497
10563TIP3    H153180   2.358   5.943  12.222 -2.2342 -0.5981  1.8374
10563TIP3    H253181   2.262   5.903  12.112 -0.7319  0.6268  0.0340
10564TIP3   OH253182   4.819   5.779  14.023  0.5801 -0.5299 -0.6071
10564TIP3    H153183   4.859   5.855  13.981  1.4219 -1.6618 -1.9838
10564TIP3    H253184   4.760   5.743  13.957 -2.9094  1.0683  1.3502
10565TIP3   OH253185   4.542   2.473   5.756  0.7170  0.8361  0.4703
10565TIP3    H153186   4.570   2.560   5.727  1.3255  0.0407 -1.5542
10565TIP3    H253187   4.507   2.432   5.677  1.0096 -0.9706  1.2285
10566TIP3   OH253188   0.820   1.975   1.517  0.3093 -0.1076 -0.0584
10566TIP3    H153189   0.738   1.942   1.553  0.6141 -2.5943 -1.4110
10566TIP3    H253190   0.806   2.069   1.508 -2.6113 -0.5153 -0.8181
10567TIP3   OH253191   5.947   4.412   3.138  0.5851  0.0989 -0.4062
10567TIP3    H153192   5.994   4.345   3.187  0.4859  0.3058 -0.0222
10567TIP3    H253193   6.008   4.438   3.069  0.1145 -1.3562 -1.4238
10568TIP3   OH253194   3.573   1.591  13.817  0.0073 -0.0342 -0.1049
10568TIP3    H153195   3.509   1.625  13.878  0.7687  1.5595 -0.1511
10568TIP3    H253196   3.656   1.592  13.866  0.1203 -1.5958 -0.2021
10569TIP3   OH253197   1.273   4.914   2.120  0.1598 -0.5836  0.6839
10569TIP3    H153198   1.198   4.955   2.077  2.2156 -0.2142 -2.9450
10569TIP3    H253199   1.284   4.963   2.202 -1.9181  1.1179  0.0141
10570TIP3   OH253200   1.049   2.713   2.475  0.0956 -0.5504 -0.8592
10570TIP3    H153201   1.058   2.640   2.536  0.1675 -1.1632 -1.5884
10570TIP3    H253202   0.975   2.688   2.419 -0.5349  0.4015 -0.4721
10571TIP3   OH253203   1.272   2.179  14.257 -0.3046  0.7286  0.2349
10571TIP3    H153204   1.317   2.232  14.191 -0.0558  1.0145  0.6323
10571TIP3    H253205   1.318   2.095  14.257 -1.6181 -0.0602 -1.4611
10572TIP3   OH253206   2.503   3.594   2.894 -0.0699 -0.4321 -0.3396
10572TIP3    H153207   2.526   3.684   2.871  1.1979 -0.0944  1.9595
10572TIP3    H253208   2.587   3.552   2.912 -0.8133 -1.2634  1.3167
10573TIP3   OH253209   1.582   1.699   5.876  0.8065  0.1978  0.1777
10573TIP3    H153210   1.535   1.626   5.837 -0.7064  1.9074 -1.3656
10573TIP3    H253211   1.528   1.776   5.857  2.2875  1.7384  1.7961
10574TIP3   OH253212   0.743   6.263  15.273 -0.0988  0.2842 -0.0708
10574TIP3    H153213   0.749   6.246  15.367  0.2924  1.3043  0.1012
10574TIP3    H253214   0.654   6.295  15.261 -0.5323 -0.9386 -0.2472
10575TIP3   OH253215   6.256   5.083  15.776  0.0656  0.5403  0.2126
10575TIP3    H153216   6.274   5.165  15.730  0.5487 -0.3738 -1.3011
10575TIP3    H253217   6.340   5.036  15.773 -0.3315 -0.2088  0.6557
10576TIP3   OH253218   0.343   4.989  10.685  0.0240  0.3264  0.3777
10576TIP3    H153219   0.252   4.998  10.658  0.4634  0.8529 -1.0617
10576TIP3    H253220   0.393   5.011  10.606  1.4048  0.6599  1.3111
10577TIP3   OH253221   5.478   0.893   2.939 -0.2765  0.1602 -0.2109
10577TIP3    H153222   5.418   0.950   2.889 -1.6186 -0.4163  0.6923
10577TIP3    H253223   5.485   0.814   2.885 -1.0839 -0.1388  0.1006
10578TIP3   OH253224   5.920   1.424  13.933 -0.0674 -0.1151  0.1227
10578TIP3    H153225   5.893   1.396  13.846  0.8604 -0.6818  0.0023
10578TIP3    H253226   6.014   1.441  13.925 -0.1866  0.9580  0.7280
10579TIP3   OH253227   6.266   3.637   4.694  0.1556  0.4449  0.0926
10579TIP3    H153228   6.311   3.711   4.654 -2.4303  1.0830 -1.8640
10579TIP3    H253229   6.188   3.675   4.734 -0.7241 -1.0961 -0.1029
10580TIP3   OH253230   1.356   1.170  14.428  0.2020  0.5057 -0.2066
10580TIP3    H153231   1.319   1.256  14.410  0.8444  0.2350 -3.3921
10580TIP3    H253232   1.447   1.187  14.453  0.7912  0.7487 -2.3579
10581TIP3   OH253233   4.005   3.523   3.087 -0.6515 -0.5168  0.3359
10581TIP3    H153234   3.968   3.505   3.001  1.5814 -1.8783 -0.4079
10581TIP3    H253235   4.020   3.437   3.125 -0.0102  0.0351  1.3768
10582TIP3   OH253236   3.787   5.938  13.209 -0.0385  0.4029 -0.6663
10582TIP3    H153237   3.829   5.883  13.274 -1.3370  0.3345  0.1546
10582TIP3    H253238   3.819   5.906  13.125 -1.0703 -1.9040 -0.2456
10583TIP3   OH253239   4.202   3.271   5.165  0.1129  0.0746 -0.1202
10583TIP3    H153240   4.226   3.179   5.150  0.2911  0.3119 -1.4419
10583TIP3    H253241   4.109   3.275   5.142 -0.3283 -0.1013  1.5414
10584TIP3   OH253242   1.830   1.985   5.927 -0.0505 -0.0494  0.0691
10584TIP3    H153243   1.911   1.938   5.907 -0.4138 -0.5161 -0.3264
10584TIP3    H253244   1.832   1.997   6.022  0.2652 -0.4658  0.1191
10585TIP3   OH253245   2.902   0.841   4.470  0.1254  0.0773  0.0132
10585TIP3    H153246   2.848   0.762   4.462  0.3177 -0.1721  1.0084
10585TIP3    H253247   2.911   0.873   4.380  0.2849 -1.1959 -0.4496
10586TIP3   OH253248   3.006   2.532   5.107 -0.4501 -0.3833 -0.2254
10586TIP3    H153249   2.999   2.537   5.012  0.2470 -0.2523 -0.2762
10586TIP3    H253250   2.931   2.582   5.139 -0.4322 -0.0328 -0.7109
10587TIP3   OH253251   3.600   6.699  13.596  0.5669 -0.3146 -0.6210
10587TIP3    H153252   3.608   6.779  13.648  0.3485 -0.8474  0.2694
10587TIP3    H253253   3.510   6.700  13.564  0.3348 -0.5462 -0.0020
10588TIP3   OH253254   5.878   0.818   1.578  0.1753 -0.0813 -0.0352
10588TIP3    H153255   5.940   0.767   1.629 -1.0525 -0.2598  1.3406
10588TIP3    H253256   5.926   0.897   1.553  0.1900  1.2104  3.5185
10589TIP3   OH253257   2.393   0.686   6.087 -0.1650 -0.3291 -0.1159
10589TIP3    H153258   2.392   0.608   6.142 -2.2776  0.6847  1.4396
10589TIP3    H253259   2.476   0.682   6.040  1.9889 -1.1337  3.3894
10590TIP3   OH253260   1.569   1.280  14.537 -0.2916  0.1091 -0.3552
10590TIP3    H153261   1.607   1.357  14.495 -0.6801  0.7129  0.3698
10590TIP3    H253262   1.640   1.245  14.591 -0.2185  0.1727 -0.4103
10591TIP3   OH253263   6.695   2.458   6.453  0.1022 -0.3806 -0.1352
10591TIP3    H153264   6.627   2.395   6.429 -0.4940  0.0019  0.5098
10591TIP3    H253265   6.722   2.432   6.541  1.4834 -1.1042 -0.7434
10592TIP3   OH253266   6.548   0.356   5.609 -0.0177 -0.1891 -0.4715
10592TIP3    H153267   6.544   0.393   5.521 -1.6582 -0.2705 -0.4491
10592TIP3    H253268   6.502   0.273   5.602 -1.9727  0.7235  0.8827
10593TIP3   OH253269   6.164   5.368  13.007  0.3656  0.0700 -0.3464
10593TIP3    H153270   6.068   5.375  13.009  0.3683 -0.0075  0.0951
10593TIP3    H253271   6.189   5.353  13.098  0.7948  0.0176 -0.4715
10594TIP3   OH253272   5.503   5.771   1.118 -0.0416 -0.1127  0.5564
10594TIP3    H153273   5.585   5.741   1.077  0.7690  0.8521  1.4101
10594TIP3    H253274   5.454   5.812   1.047  1.1275  1.0973  0.4066
10595TIP3   OH253275   4.474   5.964  14.458  0.6916  0.7539  0.3882
10595TIP3    H153276   4.549   6.005  14.413 -0.0139 -1.2089 -2.9195
10595TIP3    H253277   4.397   5.996  14.410 -0.1024 -1.5895 -0.0209
10596TIP3   OH253278   6.339   6.544   0.580 -0.5532 -0.0234  0.2505
10596TIP3    H153279   6.396   6.589   0.517 -0.8004 -0.6819 -0.4596
10596TIP3    H253280   6.311   6.613   0.640  0.2562  0.4861  0.0679
10597TIP3   OH253281   0.504   3.284   5.323  0.2804 -0.4303 -0.2090
10597TIP3    H153282   0.594   3.299   5.351  0.5209 -2.1856  0.0285
10597TIP3    H253283   0.452   3.302   5.402  0.4441  0.1541 -0.2273
10598TIP3   OH253284   1.996   6.135  17.095 -0.6728  0.4236 -0.0480
10598TIP3    H153285   1.985   6.167  17.185  1.1475 -1.2602  0.8412
10598TIP3    H253286   1.928   6.069  17.084  0.4452 -0.9359  0.9185
10599TIP3   OH253287   1.017   0.224  13.422 -0.1488  0.2913 -0.4041
10599TIP3    H153288   1.090   0.241  13.481  0.8998 -3.2315 -0.4266
10599TIP3    H253289   1.057   0.215  13.335 -0.4033 -2.1547 -0.3460
10600TIP3   OH253290   1.249   3.957  14.057  0.2281 -0.4128 -0.4807
10600TIP3    H153291   1.252   4.051  14.075 -1.9251 -0.1223 -1.3850
10600TIP3    H253292   1.229   3.917  14.142  0.0124  0.0356 -0.3192
10601TIP3   OH253293   3.390   4.882  12.124 -0.7030  0.3661  0.3236
10601TIP3    H153294   3.476   4.884  12.082 -0.6441  0.2444  0.4347
10601TIP3    H253295   3.402   4.935  12.204 -0.7420  0.3808  0.3195
10602TIP3   OH253296   1.905   5.977  13.284 -0.2095 -0.3440  0.1245
10602TIP3    H153297   1.946   6.054  13.323 -0.9940  0.0420  0.2114
10602TIP3    H253298   1.963   5.953  13.211  1.9893 -1.8663  2.2331
10603TIP3   OH253299   0.938   4.045  14.280 -0.2247  0.2124 -0.3697
10603TIP3    H153300   0.912   4.125  14.233 -2.9209 -0.4352 -0.1624
10603TIP3    H253301   0.901   4.056  14.367  1.0502 -0.4594  0.2749
10604TIP3   OH253302   5.142   1.235  12.168 -0.1038  0.2402 -0.2056
10604TIP3    H153303   5.054   1.248  12.205 -0.1172 -0.8951  0.2118
10604TIP3    H253304   5.200   1.280  12.229 -0.4239  1.5824 -0.8424
10605TIP3   OH253305   4.970   3.141  17.032  0.1284 -0.2509 -0.1080
10605TIP3    H153306   4.886   3.176  17.061 -0.7267  1.1606 -3.7468
10605TIP3    H253307   5.033   3.212  17.049 -0.2808  0.3933 -1.1861
10606TIP3   OH253308   5.334   0.130  14.512  0.1050  0.0006 -0.4684
10606TIP3    H153309   5.314   0.147  14.420 -1.0070 -1.1038 -0.4547
10606TIP3    H253310   5.260   0.167  14.560  1.0269  1.2149  0.0565
10607TIP3   OH253311   3.334   0.137   4.427 -0.0855 -0.0860  0.9009
10607TIP3    H153312   3.381   0.106   4.350 -1.2537 -2.0601  0.9306
10607TIP3    H253313   3.319   0.230   4.409  4.0917  0.8005  1.0919
10608TIP3   OH253314   5.012   6.013  14.369 -0.3074 -0.3354 -0.2297
10608TIP3    H153315   5.093   5.990  14.415  0.0162  0.1924 -0.5242
10608TIP3    H253316   5.038   6.023  14.278 -0.3686  1.3898 -0.0975
10609TIP3   OH253317   2.091   3.837   4.648  0.1139  0.1734 -0.0331
10609TIP3    H153318   2.127   3.836   4.559  0.6237 -3.1156  0.0904
10609TIP3    H253319   2.091   3.929   4.672 -0.1058  1.2178 -3.4390
10610TIP3   OH253320   3.048   2.970  17.168 -0.4777  0.4987 -0.1236
10610TIP3    H153321   3.134   2.931  17.154 -0.6031  0.2848 -0.2880
10610TIP3    H253322   3.059   3.021  17.249 -0.4650 -0.3216  0.4090
10611TIP3   OH253323   2.441   4.214  11.283 -0.3324 -0.5821  0.1828
10611TIP3    H153324   2.450   4.289  11.225 -0.1647 -0.0396  0.8961
10611TIP3    H253325   2.494   4.145  11.242 -0.0378 -0.1374 -0.1900
10612TIP3   OH253326   6.358   1.182  16.098  0.0236  0.6818 -0.2725
10612TIP3    H153327   6.365   1.270  16.062  0.6143  1.2301  1.1202
10612TIP3    H253328   6.267   1.157  16.083  0.3493  0.6560 -2.5622
10613TIP3   OH253329   1.672   0.370  15.051  0.1293 -0.3895  0.7353
10613TIP3    H153330   1.610   0.359  15.123  0.5889  0.0424  1.2025
10613TIP3    H253331   1.643   0.307  14.985 -0.0840 -1.0578  1.4407
10614TIP3   OH253332   6.576   0.043  12.545  0.5897 -0.5257 -0.0786
10614TIP3    H153333   6.656   0.086  12.513  1.5334 -0.9364  1.5952
10614TIP3    H253334   6.505   0.097  12.511  1.6846  1.6704  0.8652
10615TIP3   OH253335   3.706   2.016   0.270  0.3218 -0.4042  0.3016
10615TIP3    H153336   3.645   2.004   0.197 -0.9053  0.9713  1.0453
10615TIP3    H253337   3.727   2.109   0.269  2.6591 -0.8744 -0.0634
10616TIP3   OH253338   4.044   3.191   4.686 -0.2129  0.0949  0.2968
10616TIP3    H153339   4.096   3.266   4.712  0.2933  0.3446 -1.3013
10616TIP3    H253340   3.956   3.211   4.717  0.1369  0.8420  0.8385
10617TIP3   OH253341   4.117   4.241  12.689 -0.0968 -0.1324 -0.1719
10617TIP3    H153342   4.193   4.292  12.717 -0.9201  1.2276 -0.2831
10617TIP3    H253343   4.047   4.268  12.749 -1.3765  1.3294 -2.1598
10618TIP3   OH253344   3.735   5.605   2.539  0.0628  0.2470 -0.0352
10618TIP3    H153345   3.828   5.613   2.517  0.3748 -0.8508  0.7391
10618TIP3    H253346   3.719   5.510   2.537 -1.1027  0.4458 -0.3852
10619TIP3   OH253347   5.104   3.381   3.801  0.6030 -0.5115  0.1006
10619TIP3    H153348   5.175   3.341   3.750  0.5168  0.4206 -0.7808
10619TIP3    H253349   5.146   3.454   3.846  0.3756 -0.4684  0.2420
10620TIP3   OH253350   5.562   4.735   5.076  0.1282 -0.3072 -0.6401
10620TIP3    H153351   5.644   4.725   5.125 -1.1099 -0.9533  1.3790
10620TIP3    H253352   5.528   4.646   5.067 -1.5311  0.1561  0.6769
10621TIP3   OH253353   3.370   1.866   1.022 -0.2163 -0.3795  0.1942
10621TIP3    H153354   3.289   1.841   0.977 -0.7181  1.9037 -0.2698
10621TIP3    H253355   3.427   1.899   0.954 -0.4527  1.8077  0.9970
10622TIP3   OH253356   2.925   4.559  16.545 -0.5803 -0.1796 -0.1507
10622TIP3    H153357   2.835   4.569  16.577 -0.0356  1.0211  1.1232
10622TIP3    H253358   2.916   4.534  16.454 -2.2180 -2.1588  0.4932
10623TIP3   OH253359   2.991   6.238   3.954  0.1846  0.2673 -0.4942
10623TIP3    H153360   2.974   6.273   4.041  0.0896  2.0903 -1.1932
10623TIP3    H253361   3.078   6.272   3.931  1.1234 -1.8764 -0.3432
10624TIP3   OH253362   4.998   5.958  11.644 -0.1455 -0.1574  0.2938
10624TIP3    H153363   5.076   6.013  11.638 -0.3084  0.1662  1.0189
10624TIP3    H253364   4.971   5.964  11.736 -0.7318 -0.6699  0.1638
10625TIP3   OH253365   1.464   2.367   1.223 -0.0636 -0.2979  0.3293
10625TIP3    H153366   1.411   2.376   1.303 -1.3067  0.4336 -0.5451
10625TIP3    H253367   1.472   2.456   1.189  2.2754 -0.3082  0.7369
10626TIP3   OH253368   0.887   1.830  13.899 -0.1645 -0.0718  0.2533
10626TIP3    H153369   0.877   1.916  13.857  0.0935 -0.5104 -0.7273
10626TIP3    H253370   0.899   1.851  13.991  0.0346  0.9616  0.0140
10627TIP3   OH253371   5.028   2.835   5.548  0.3662 -0.1451 -0.1257
10627TIP3    H153372   5.067   2.780   5.616  0.8721  0.7188  0.2851
10627TIP3    H253373   5.027   2.778   5.470  0.3492 -0.9300  0.4320
10628TIP3   OH253374   5.216   3.655  11.881 -0.0712 -0.4194  0.3437
10628TIP3    H153375   5.279   3.603  11.930 -1.7864 -2.3173  0.6929
10628TIP3    H253376   5.255   3.667  11.795  1.2855 -0.4309  0.9452
10629TIP3   OH253377   0.708   5.650   2.798 -0.1537  0.2284 -0.4169
10629TIP3    H153378   0.629   5.599   2.782 -0.8313  0.9806  0.4482
10629TIP3    H253379   0.679   5.723   2.852  1.4636 -0.5153  1.5910
10630TIP3   OH253380   2.921   2.996  14.190  0.2961  0.1907 -0.4155
10630TIP3    H153381   2.972   2.960  14.263  0.9421 -0.0587 -0.9738
10630TIP3    H253382   2.835   3.014  14.227  0.0296 -1.6592 -0.0330
10631TIP3   OH253383   5.142   6.773  16.260  0.2324 -0.4300 -0.3830
10631TIP3    H153384   5.060   6.787  16.308  0.4204 -0.4366 -0.0571
10631TIP3    H253385   5.179   6.694  16.298  0.2872 -0.5450 -0.6760
10632TIP3   OH253386   1.624   2.362  15.774  0.0721 -0.1082 -0.0744
10632TIP3    H153387   1.703   2.394  15.817  0.5658  0.8996 -1.6407
10632TIP3    H253388   1.569   2.440  15.764 -1.2617 -0.8244  1.1685
10633TIP3   OH253389   6.114   4.346   6.003 -0.4906  0.0140 -0.1232
10633TIP3    H153390   6.093   4.433   6.038 -0.8063 -0.1430  0.0814
10633TIP3    H253391   6.037   4.322   5.952 -0.2276  0.0355 -0.5350
10634TIP3   OH253392   1.589   1.636  17.109 -0.5163  0.3453 -0.2487
10634TIP3    H153393   1.611   1.547  17.135 -1.9459  0.0309 -0.0539
10634TIP3    H253394   1.674   1.677  17.089  0.0424 -1.7896 -2.8066
10635TIP3   OH253395   1.913   4.779  15.060 -0.6673  0.0536 -0.3017
10635TIP3    H153396   1.854   4.710  15.089  0.1002  0.4467  2.5018
10635TIP3    H253397   1.995   4.761  15.107 -0.2618  2.4875  0.0612
10636TIP3   OH253398   3.761   1.296   2.032  0.1489 -0.3353 -0.1950
10636TIP3    H153399   3.831   1.349   2.070 -0.9291  0.4407  0.7985
10636TIP3    H253400   3.789   1.279   1.942  0.7339  1.5528 -0.4076
10637TIP3   OH253401   2.063   1.820  11.621 -0.5639 -0.4376 -0.3542
10637TIP3    H153402   2.045   1.757  11.690  1.8070  0.4616  1.2227
10637TIP3    H253403   1.986   1.878  11.620 -1.3395 -1.4329  0.3766
10638TIP3   OH253404   2.600   5.228  15.591 -0.4715 -0.2524 -0.1999
10638TIP3    H153405   2.553   5.309  15.572  0.3903  0.0283 -1.2580
10638TIP3    H253406   2.661   5.252  15.661  1.4894  0.7153 -2.1381
10639TIP3   OH253407   4.637   2.917  16.780 -0.5916  0.7464 -0.1744
10639TIP3    H153408   4.646   2.975  16.704  1.1907 -1.7688 -2.0518
10639TIP3    H253409   4.553   2.874  16.767 -0.3937  0.4868 -0.6078
10640TIP3   OH253410   4.525   1.253   3.562  0.6305 -0.5911 -0.0635
10640TIP3    H153411   4.432   1.239   3.541 -0.4960 -0.6677  4.0528
10640TIP3    H253412   4.560   1.299   3.486 -2.5141 -1.4140 -2.2049
10641TIP3   OH253413   3.641   0.648   2.168  0.8226  0.5062  0.3040
10641TIP3    H153414   3.671   0.589   2.098  0.2139  0.3338  0.1858
10641TIP3    H253415   3.673   0.735   2.141 -0.1136  0.5778 -0.6183
10642TIP3   OH253416   1.024   6.648   5.096 -0.3371  0.2766 -0.1858
10642TIP3    H153417   1.019   6.568   5.044  1.4820  0.2357 -0.3530
10642TIP3    H253418   0.968   6.711   5.050 -0.7943 -0.5246 -0.7391
10643TIP3   OH253419   2.556   3.031  13.744 -0.2101  0.3434  0.6452
10643TIP3    H153420   2.631   3.000  13.795 -1.0792 -0.4070  1.4852
10643TIP3    H253421   2.580   3.121  13.718  0.8682  0.1952  1.0973
10644TIP3   OH253422   4.118   4.405   5.345 -0.1094  0.1365  0.6790
10644TIP3    H153423   4.171   4.383   5.269 -0.0614  2.4124 -0.0274
10644TIP3    H253424   4.029   4.415   5.310 -0.7152 -1.7979  1.5191
10645TIP3   OH253425   1.132   3.490  12.661  0.3217  0.7186 -0.1405
10645TIP3    H153426   1.056   3.486  12.603  0.3614  3.1566 -0.4600
10645TIP3    H253427   1.178   3.570  12.636  1.8381  0.4218  1.4593
10646TIP3   OH253428   4.796   5.189   5.243 -0.0441 -0.1081  0.5150
10646TIP3    H153429   4.713   5.191   5.197 -0.1800 -0.1222  0.7600
10646TIP3    H253430   4.862   5.194   5.173 -0.2276 -1.2978  0.2274
10647TIP3   OH253431   5.183   6.592   3.236 -0.9257  0.3350  0.5300
10647TIP3    H153432   5.194   6.498   3.224 -1.5462  0.0940  1.7181
10647TIP3    H253433   5.121   6.618   3.168 -0.3867 -0.0061 -0.1105
10648TIP3   OH253434   2.710   1.269  13.157 -0.1394 -0.1698  0.2505
10648TIP3    H153435   2.622   1.298  13.135 -0.4249 -0.6560  0.7177
10648TIP3    H253436   2.751   1.344  13.200 -0.1676  0.2010 -0.3473
10649TIP3   OH253437   6.567   4.529  13.561  0.2241  0.0469  0.2882
10649TIP3    H153438   6.651   4.518  13.605  0.4580  0.1448 -0.1325
10649TIP3    H253439   6.534   4.440  13.548  0.3118  0.0050  0.3550
10650TIP3   OH253440   6.810   5.988  16.851 -0.3327  0.2454  0.2145
10650TIP3    H153441   6.814   5.927  16.924 -1.4068 -1.1587 -0.8419
10650TIP3    H253442   6.888   6.043  16.862  1.2433 -1.9163  0.6857
10651TIP3   OH253443   1.572   6.199   1.173 -0.5140  0.1762  0.4363
10651TIP3    H153444   1.640   6.143   1.209  0.0980 -0.4150 -1.4891
10651TIP3    H253445   1.620   6.276   1.139 -1.2871  1.7320  2.6439
10652TIP3   OH253446   1.996   4.341  12.597  0.2010 -0.0321  0.0898
10652TIP3    H153447   1.924   4.308  12.543  0.1794 -1.1147  0.7421
10652TIP3    H253448   2.066   4.361  12.535 -0.1039 -0.4937 -0.4091
10653TIP3   OH253449   6.291   0.962   2.194 -0.1544 -0.1851 -0.2572
10653TIP3    H153450   6.378   0.996   2.218 -0.1979 -0.9765  1.1325
10653TIP3    H253451   6.246   0.950   2.278 -0.9283 -1.5348 -0.8346
10654TIP3   OH253452   0.925   4.236  16.992  0.9380 -0.2290  0.0886
10654TIP3    H153453   0.964   4.187  17.065  0.8161  0.0463  0.3428
10654TIP3    H253454   0.994   4.241  16.927  1.2435  0.0227  0.4254
10655TIP3   OH253455   5.163   4.723  16.005 -0.3729  0.3496  0.4077
10655TIP3    H153456   5.180   4.650  16.064 -1.1880  0.2097  0.4871
10655TIP3    H253457   5.136   4.682  15.923 -0.1965  0.5575  0.2431
10656TIP3   OH253458   6.740   0.785  13.879  0.3898 -0.4293 -0.3979
10656TIP3    H153459   6.769   0.824  13.796  1.4274 -2.1406 -0.8822
10656TIP3    H253460   6.752   0.691  13.867  0.1003 -0.7513  1.5456
10657TIP3   OH253461   5.786   3.744  13.884 -0.1370 -0.0191 -0.1276
10657TIP3    H153462   5.748   3.817  13.836 -0.0542 -0.3298 -0.6833
10657TIP3    H253463   5.719   3.675  13.881  0.1262 -0.2706 -0.3789
10658TIP3   OH253464   2.677   3.830   5.023  0.4584 -0.0863 -0.2946
10658TIP3    H153465   2.662   3.850   5.115 -2.6210 -1.0261 -0.5050
10658TIP3    H253466   2.635   3.745   5.009  2.6727 -0.9823 -2.1471
10659TIP3   OH253467   2.456   5.011   6.529  0.4660  0.1994 -0.2162
10659TIP3    H153468   2.500   4.929   6.505 -1.5165 -1.0811  0.2865
10659TIP3    H253469   2.423   5.046   6.447 -0.4330 -0.6043 -0.2142
10660TIP3   OH253470   1.056   6.001  14.369 -0.4844 -0.4137 -1.2506
10660TIP3    H153471   0.981   5.944  14.350 -1.0010 -0.4298  0.6086
10660TIP3    H253472   1.031   6.086  14.332 -2.3097  0.0705  0.8567
10661TIP3   OH253473   6.423   4.258   1.034 -0.4443  0.1325 -0.5153
10661TIP3    H153474   6.473   4.180   1.011 -1.5186 -0.9604  0.7482
10661TIP3    H253475   6.334   4.240   1.004 -0.8810  0.5346  0.4916
10662TIP3   OH253476   3.630   1.235  16.567 -0.4617 -0.0858 -0.6901
10662TIP3    H153477   3.610   1.310  16.624  0.5438 -0.0069 -0.4295
10662TIP3    H253478   3.655   1.165  16.626  0.0579 -0.1714 -1.0050
10663TIP3   OH253479   0.348   4.054  13.036 -0.4475  0.3920 -0.2935
10663TIP3    H153480   0.370   4.073  12.944  1.3054 -0.7146 -0.1582
10663TIP3    H253481   0.426   4.010  13.070 -2.6924 -3.3791  0.4664
10664TIP3   OH253482   0.934   4.476   2.965 -0.4498 -0.5134 -0.2465
10664TIP3    H153483   0.911   4.433   2.882 -2.0071 -3.1992  1.4527
10664TIP3    H253484   0.910   4.568   2.951 -3.4046 -1.4132 -1.8789
10665TIP3   OH253485   5.700   3.404  13.733  0.1976 -0.1748 -0.5675
10665TIP3    H153486   5.740   3.364  13.810 -0.9683 -1.2797 -0.4968
10665TIP3    H253487   5.670   3.490  13.763 -1.2667 -1.0393  0.5827
10666TIP3   OH253488   0.507   2.606  13.241  0.4456  0.3837  0.0577
10666TIP3    H153489   0.494   2.676  13.178 -0.0095  0.2009 -0.0505
10666TIP3    H253490   0.439   2.542  13.222  2.4855 -1.4392 -1.6767
10667TIP3   OH253491   5.473   4.884  12.922 -0.6700  0.7096  0.0839
10667TIP3    H153492   5.546   4.832  12.889  1.2873  1.6177  2.6786
10667TIP3    H253493   5.434   4.831  12.991  2.4523  3.0321  4.0074
10668TIP3   OH253494   2.103   1.622  15.261 -0.0496  0.3879  0.4628
10668TIP3    H153495   2.104   1.703  15.311  1.7730  0.2642  0.7034
10668TIP3    H253496   2.131   1.554  15.323 -1.3689 -0.4237  0.2192
10669TIP3   OH253497   2.780   6.520  13.171 -0.4355 -0.0687 -0.1180
10669TIP3    H153498   2.863   6.507  13.217  0.2784  0.9578 -1.0292
10669TIP3    H253499   2.714   6.480  13.227  0.6547 -0.7297  0.7329
10670TIP3   OH253500   3.114   0.930  12.521  0.3107 -0.2120  0.5562
10670TIP3    H153501   3.123   0.852  12.576 -1.2882 -1.3552 -0.6749
10670TIP3    H253502   3.146   0.902  12.435 -0.4970  0.4069  0.0430
10671TIP3   OH253503   0.109   5.989  13.137  0.5574  0.3628 -0.4167
10671TIP3    H153504   0.184   6.046  13.116  0.7301  0.3198  0.0616
10671TIP3    H253505   0.146   5.902  13.145  0.2450  0.1242 -1.4288
10672TIP3   OH253506   3.799   4.766   4.090  0.0199  0.0768 -0.1600
10672TIP3    H153507   3.741   4.712   4.036  0.8439  1.2081 -2.2898
10672TIP3    H253508   3.740   4.824   4.137 -0.6523  0.6689 -1.6748
10673TIP3   OH253509   2.682   4.234   1.227  0.2251 -0.2907  0.3388
10673TIP3    H153510   2.757   4.292   1.217 -0.0108  0.1437  1.0341
10673TIP3    H253511   2.717   4.146   1.212  0.4516  0.0476 -1.4343
10674TIP3   OH253512   2.100   3.418  14.194  0.1882  0.0648  0.0544
10674TIP3    H153513   2.143   3.504  14.197  1.2241 -0.4033 -0.9826
10674TIP3    H253514   2.070   3.410  14.104 -0.4898 -0.4110  0.3104
10675TIP3   OH253515   1.640   2.086   3.022  0.3403 -0.0211 -0.6074
10675TIP3    H153516   1.655   2.180   3.014 -1.7998  0.5374  0.9761
10675TIP3    H253517   1.717   2.053   3.069 -0.1057  1.4538  1.2828
10676TIP3   OH253518   2.776   3.220  15.737  0.3875  0.2955  0.0635
10676TIP3    H153519   2.759   3.268  15.656 -0.8418 -2.1787 -1.2842
10676TIP3    H253520   2.689   3.208  15.776  1.1210  3.1425  2.9138
10677TIP3   OH253521   2.142   3.629  13.446 -0.2549 -0.4111  0.2227
10677TIP3    H153522   2.237   3.631  13.450 -0.2286  0.8240 -0.5241
10677TIP3    H253523   2.116   3.721  13.438 -1.4163 -0.8418 -1.4187
10678TIP3   OH253524   4.083   4.388  10.483  0.4431  1.1194  0.2058
10678TIP3    H153525   4.005   4.419  10.529  0.0608  0.9888 -0.3292
10678TIP3    H253526   4.073   4.293  10.481  0.0194  1.1720 -0.8684
10679TIP3   OH253527   0.104   1.129  16.155  0.8700 -0.8256 -0.1658
10679TIP3    H153528   0.174   1.193  16.145  1.5298 -1.4580  0.3291
10679TIP3    H253529   0.049   1.141  16.078  2.2429 -1.1990 -1.2290
10680TIP3   OH253530   6.616   1.280   5.521 -0.5925  0.2596 -0.5427
10680TIP3    H153531   6.598   1.371   5.495  0.2476  0.2979 -1.0106
10680TIP3    H253532   6.605   1.280   5.616  0.3618  1.0904 -0.4146
10681TIP3   OH253533   1.571   2.669   4.472 -0.4228  0.1941  0.3025
10681TIP3    H153534   1.601   2.629   4.553 -1.5212 -2.0927 -0.3358
10681TIP3    H253535   1.614   2.754   4.469  1.0672 -0.4318  2.3601
10682TIP3   OH253536   5.491   3.291   0.882 -0.5559  0.2281  0.0928
10682TIP3    H153537   5.581   3.320   0.901 -0.6989 -0.2312  1.6208
10682TIP3    H253538   5.465   3.242   0.960 -2.1218  0.2973 -0.3523
10683TIP3   OH253539   6.593   4.925  16.818 -0.0787 -0.1541  0.3060
10683TIP3    H153540   6.606   4.935  16.724 -1.6092 -2.6540 -0.2663
10683TIP3    H253541   6.509   4.966  16.835  0.8815  1.6476  0.9299
10684TIP3   OH253542   4.925   4.277   1.403  0.0302 -0.0023 -0.0691
10684TIP3    H153543   4.853   4.338   1.422  0.7239  0.6531  0.5031
10684TIP3    H253544   5.000   4.334   1.383 -0.3992 -0.5760 -4.1078
10685TIP3   OH253545   1.864   5.168   4.503 -0.5740  0.1932  0.4836
10685TIP3    H153546   1.817   5.218   4.570  1.3686  1.6512  0.8293
10685TIP3    H253547   1.862   5.225   4.426 -0.0123 -0.0617  0.2796
10686TIP3   OH253548   6.763   4.398  17.247  0.2708  0.4452  0.0253
10686TIP3    H153549   6.822   4.405  17.321  0.9057  2.0217 -0.5719
10686TIP3    H253550   6.821   4.388  17.171 -0.3910 -2.2997 -0.2021
10687TIP3   OH253551   4.562   6.556  15.299  0.3032 -0.0928  0.1277
10687TIP3    H153552   4.577   6.636  15.248 -2.3488 -0.3083 -1.1526
10687TIP3    H253553   4.572   6.485  15.236 -0.3016 -0.5679  0.5545
10688TIP3   OH253554   0.971   6.776  16.630  0.5663  0.0671 -0.2102
10688TIP3    H153555   0.922   6.734  16.559  0.2909  0.1841 -0.0920
10688TIP3    H253556   1.061   6.779  16.599  0.2549  1.2488 -1.0903
10689TIP3   OH253557   0.786   5.741  14.832  0.0176  0.1232  0.0556
10689TIP3    H153558   0.828   5.720  14.748  1.4372 -1.0328  1.0235
10689TIP3    H253559   0.857   5.775  14.887 -0.4086 -1.2282  1.5045
10690TIP3   OH253560   1.366   1.823  13.474  1.0034 -0.1567  0.4848
10690TIP3    H153561   1.375   1.864  13.560 -1.1900 -0.0539  0.7137
10690TIP3    H253562   1.272   1.822  13.457  1.2261 -2.0258 -1.0232
10691TIP3   OH253563   1.174   6.765  10.873  0.0296 -0.0539 -0.0877
10691TIP3    H153564   1.174   6.842  10.817  2.5785  0.0196 -0.1083
10691TIP3    H253565   1.107   6.708  10.836  1.3952  0.1046 -3.0896
10692TIP3   OH253566   0.555   2.113  13.163  0.0301 -0.3340 -0.3761
10692TIP3    H153567   0.597   2.168  13.229  1.4465 -0.0019 -1.4875
10692TIP3    H253568   0.488   2.168  13.124  1.9796  1.0412 -2.0562
10693TIP3   OH253569   4.222   2.467   5.020 -0.0111  0.2960  0.0595
10693TIP3    H153570   4.260   2.463   4.932  0.3162  2.3659  0.0607
10693TIP3    H253571   4.252   2.550   5.055 -1.9204  0.5185  1.3069
10694TIP3   OH253572   0.620   5.105  13.338 -0.6108 -0.0944 -0.2596
10694TIP3    H153573   0.601   5.198  13.334  2.8431  0.7308 -2.5885
10694TIP3    H253574   0.685   5.097  13.409 -0.7440 -0.6962 -0.1994
10695TIP3   OH253575   2.782   2.351   2.647 -0.0387 -0.4720  0.3733
10695TIP3    H153576   2.808   2.368   2.737 -3.9404  3.3609  1.0895
10695TIP3    H253577   2.694   2.313   2.654 -1.4978  2.2005 -1.6828
10696TIP3   OH253578   3.434   1.697   1.904 -0.0770  0.2296  0.9266
10696TIP3    H153579   3.499   1.767   1.902 -1.5401  1.8074  3.1457
10696TIP3    H253580   3.471   1.632   1.965  0.9488 -0.6461 -0.5665
10697TIP3   OH253581   1.874   4.908  12.276  0.2730 -0.2590  0.1177
10697TIP3    H153582   1.882   4.908  12.372 -0.6633  1.3269  0.2389
10697TIP3    H253583   1.927   4.983  12.248 -1.1492  0.6063 -0.3878
10698TIP3   OH253584   0.397   1.124  13.998 -0.6628 -0.1857 -0.4561
10698TIP3    H153585   0.356   1.207  14.021 -1.2909 -0.8764  1.0831
10698TIP3    H253586   0.447   1.099  14.076 -0.6090 -1.3263 -0.8259
10699TIP3   OH253587   3.336   6.749  13.538  0.0602 -0.1709  0.0914
10699TIP3    H153588   3.314   6.662  13.573 -0.8006 -1.8370 -4.0092
10699TIP3    H253589   3.252   6.786  13.511  0.6915  0.6274 -0.8541
10700TIP3   OH253590   0.142   3.288  12.516 -0.1425 -0.7453 -0.5603
10700TIP3    H153591   0.126   3.194  12.509 -0.4079 -0.7840  0.4038
10700TIP3    H253592   0.058   3.328  12.497 -0.3932 -0.7760  0.4101
10701TIP3   OH253593   3.023   1.271  16.744 -0.4326 -0.2150 -0.1826
10701TIP3    H153594   2.943   1.273  16.691  0.0009  0.7257 -0.8278
10701TIP3    H253595   3.082   1.212  16.696  0.2048  1.1590 -1.1500
10702TIP3   OH253596   4.782   4.750  13.262 -0.0932  0.1338  0.5105
10702TIP3    H153597   4.714   4.705  13.312  0.0444  0.0395  0.6131
10702TIP3    H253598   4.787   4.838  13.299  0.0423  0.0486  0.6949
10703TIP3   OH253599   5.922   2.284  14.645  0.3655 -0.3155  0.2361
10703TIP3    H153600   5.994   2.235  14.686  0.4862  0.3345  0.8239
10703TIP3    H253601   5.928   2.261  14.552  0.6314 -1.1396  0.4421
10704TIP3   OH253602   5.831   2.200  11.921 -0.2894  0.8365 -0.3034
10704TIP3    H153603   5.863   2.241  12.001  0.1910 -0.4392  0.1853
10704TIP3    H253604   5.735   2.203  11.929 -0.2416  0.4559  0.4662
10705TIP3   OH253605   5.018   5.936   4.343 -0.0157 -0.1339  0.3151
10705TIP3    H153606   5.063   5.917   4.426  0.4690  1.1566  0.3724
10705TIP3    H253607   5.076   5.901   4.276 -0.4252 -1.2124  0.5104
10706TIP3   OH253608   0.147   2.665  16.792  0.1353  0.8612 -0.7864
10706TIP3    H153609   0.166   2.572  16.801 -0.1760  0.8743  0.0235
10706TIP3    H253610   0.229   2.702  16.758 -0.0855  0.1419 -2.1895
10707TIP3   OH253611   5.991   4.948   5.736 -0.1387  0.0109 -0.4730
10707TIP3    H153612   5.975   4.886   5.807  0.6853 -0.1697 -0.4365
10707TIP3    H253613   5.993   5.033   5.779  0.1021 -0.0720 -0.3202
10708TIP3   OH253614   6.647   3.481   5.151 -1.0127  0.0512 -0.7135
10708TIP3    H153615   6.625   3.450   5.063 -0.3020 -1.8926 -0.2674
10708TIP3    H253616   6.580   3.443   5.208 -0.4108 -0.2613 -0.2004
10709TIP3   OH253617   4.725   0.373   3.012 -0.3987 -0.0352 -0.3247
10709TIP3    H153618   4.645   0.421   2.995 -0.7484 -0.2412  0.6838
10709TIP3    H253619   4.782   0.435   3.057  0.4289  0.4364 -1.9731
10710TIP3   OH253620   1.391   3.206  13.759 -0.5700  0.7556 -0.2683
10710TIP3    H153621   1.372   3.284  13.706 -1.5732 -0.8934 -2.4946
10710TIP3    H253622   1.379   3.133  13.699 -2.3904 -1.3248  2.3783
10711TIP3   OH253623   0.587   1.834   1.546 -0.1879 -0.2342  0.0803
10711TIP3    H153624   0.495   1.852   1.526 -0.9981 -1.7849  2.0238
10711TIP3    H253625   0.598   1.741   1.528  1.1877  0.0545 -0.6769
10712TIP3   OH253626   2.869   3.305  10.572  0.0619 -0.3567  0.3763
10712TIP3    H153627   2.913   3.235  10.622 -1.2285 -1.3747  0.1525
10712TIP3    H253628   2.846   3.370  10.638 -0.9873 -1.3518  1.0288
10713TIP3   OH253629   5.436   0.528   2.881  0.7453 -0.1167 -0.0370
10713TIP3    H153630   5.433   0.463   2.951  1.2654 -0.3287 -0.2057
10713TIP3    H253631   5.419   0.479   2.801 -1.3727  0.3569  0.0540
10714TIP3   OH253632   2.968   2.349   4.678  0.3412  0.0038  0.3125
10714TIP3    H153633   2.921   2.388   4.604  0.6736  1.0026  0.6146
10714TIP3    H253634   2.902   2.344   4.747  0.9306  2.5952  1.1529
10715TIP3   OH253635   3.902   0.495   3.408  0.0451  0.6271 -0.0589
10715TIP3    H153636   3.899   0.400   3.417  0.9003  0.3155 -2.3403
10715TIP3    H253637   3.825   0.516   3.355 -0.2822  1.2478  0.6483
10716TIP3   OH253638   4.657   0.359  17.217 -0.3856 -0.0041 -0.4004
10716TIP3    H153639   4.673   0.395  17.304  0.5222 -2.3600  0.4963
10716TIP3    H253640   4.571   0.318  17.224  0.0219 -0.8645 -0.3625
10717TIP3   OH253641   1.825   1.903  11.450 -0.4707  0.5628 -0.5670
10717TIP3    H153642   1.787   1.823  11.415  0.7025 -0.1466 -0.2722
10717TIP3    H253643   1.794   1.908  11.540 -1.1239  0.8267 -0.8041
10718TIP3   OH253644   3.551   4.619   3.311 -0.4699 -0.3508  0.3399
10718TIP3    H153645   3.614   4.612   3.239  1.8402 -0.4909  2.2882
10718TIP3    H253646   3.562   4.539   3.361 -1.4754  0.1027  1.3255
10719TIP3   OH253647   0.611   6.590  11.857  0.0552  0.0988  0.2923
10719TIP3    H153648   0.674   6.566  11.790 -0.6048  0.5337 -0.5013
10719TIP3    H253649   0.532   6.613  11.808 -0.2412  1.0459  1.1838
10720TIP3   OH253650   6.499   2.828  12.467 -0.7920  0.2478 -0.4721
10720TIP3    H153651   6.428   2.852  12.526 -0.1432 -0.0725  0.4804
10720TIP3    H253652   6.468   2.850  12.380 -1.6856  0.9651  0.0205
10721TIP3   OH253653   6.142   1.056   0.935  0.2737 -0.5246 -0.5486
10721TIP3    H153654   6.159   1.128   0.874  0.3727 -0.3320 -0.2963
10721TIP3    H253655   6.186   0.981   0.897  0.4296 -0.3775 -0.6570
10722TIP3   OH253656   4.052   4.500   5.893 -0.2432  0.1548 -0.0045
10722TIP3    H153657   3.978   4.439   5.900 -0.8405  1.0020  1.1917
10722TIP3    H253658   4.096   4.473   5.812 -0.2227 -2.1538  0.6862
10723TIP3   OH253659   6.723   4.061  14.079 -0.7163  0.1398 -0.3429
10723TIP3    H153660   6.764   3.974  14.081 -0.0297  0.4516 -0.9087
10723TIP3    H253661   6.682   4.066  13.993 -1.3818  0.0986 -0.0358
10724TIP3   OH253662   1.533   5.549   4.994 -0.3073  0.1716  0.2300
10724TIP3    H153663   1.445   5.524   4.965 -0.5106  0.1478  0.8725
10724TIP3    H253664   1.541   5.513   5.082  0.3336  0.2135  0.1940
10725TIP3   OH253665   5.763   6.022  11.930 -0.1818 -0.5113  0.0965
10725TIP3    H153666   5.828   6.070  11.878 -1.1953  1.5231  0.6122
10725TIP3    H253667   5.722   6.089  11.984 -0.4016 -2.2862  2.2572
10726TIP3   OH253668   5.618   2.974  14.118 -0.4699  0.3188  0.0787
10726TIP3    H153669   5.687   2.908  14.111  0.3928  0.9595  1.8833
10726TIP3    H253670   5.536   2.924  14.115  0.0323 -0.4750 -1.8483
10727TIP3   OH253671   5.683   2.404   6.188  0.3037  0.5152 -0.2099
10727TIP3    H153672   5.745   2.365   6.250 -0.5684 -1.6455 -0.5960
10727TIP3    H253673   5.730   2.406   6.105  0.1328 -0.4646 -0.3480
10728TIP3   OH253674   3.227   5.541   4.353  0.0625  0.8828  0.2810
10728TIP3    H153675   3.158   5.511   4.413  0.5540  1.4362  1.1378
10728TIP3    H253676   3.185   5.610   4.302  0.1167  1.5931  1.1704
10729TIP3   OH253677   2.751   1.816  11.166  0.1532 -0.1224  0.5060
10729TIP3    H153678   2.664   1.810  11.127  0.3879 -1.1886  0.1236
10729TIP3    H253679   2.801   1.869  11.103  0.3392 -1.2633 -0.3468
10730TIP3   OH253680   6.673   5.799  15.695  0.2200  0.1114  0.3606
10730TIP3    H153681   6.578   5.784  15.691  0.3529 -0.5063 -2.0231
10730TIP3    H253682   6.689   5.869  15.632  1.3072  0.6366  1.1848
10731TIP3   OH253683   0.552   0.752  16.079  0.6892 -0.1948  0.0784
10731TIP3    H153684   0.610   0.820  16.113  0.8104 -0.4167  0.3198
10731TIP3    H253685   0.491   0.799  16.022  2.4841 -0.2346 -1.9918
10732TIP3   OH253686   6.496   0.462   0.758 -0.3442 -0.5375  0.1790
10732TIP3    H153687   6.453   0.466   0.673  0.6654 -1.1841 -0.3845
10732TIP3    H253688   6.529   0.551   0.773 -0.5004 -0.4299 -0.1090
10733TIP3   OH253689   2.222   1.108   3.537 -0.4388 -0.1383  0.0300
10733TIP3    H153690   2.188   1.051   3.605 -2.5235  0.6463 -0.2805
10733TIP3    H253691   2.196   1.066   3.455  0.1529  0.0155 -0.2392
10734TIP3   OH253692   4.887   3.971   6.070 -0.0771  0.0017 -0.3437
10734TIP3    H153693   4.919   3.952   6.158  0.1458 -0.3998 -0.5102
10734TIP3    H253694   4.799   3.933   6.067 -0.3484  0.5967 -0.0781
10735TIP3   OH253695   4.470   4.597  15.099 -0.6414  0.3780 -0.5709
10735TIP3    H153696   4.485   4.691  15.105 -3.4573  0.9473 -0.8556
10735TIP3    H253697   4.407   4.578  15.168 -2.3011 -0.7097 -2.2608
10736TIP3   OH253698   1.675   0.769  15.202  0.3885 -0.0538  0.6525
10736TIP3    H153699   1.739   0.773  15.131 -0.0151  0.0485  0.2911
10736TIP3    H253700   1.617   0.844  15.186 -1.0020 -1.2541 -0.1646
10737TIP3   OH253701   1.397   2.296  13.124 -0.1027  0.1808 -0.0926
10737TIP3    H153702   1.354   2.327  13.044  0.1774 -0.5652 -0.5420
10737TIP3    H253703   1.354   2.345  13.194 -0.1793  1.0335 -0.7129
10738TIP3   OH253704   3.267   4.299  16.792  0.0212  0.2479 -0.2415
10738TIP3    H153705   3.300   4.237  16.727  1.0052 -1.4716  1.7786
10738TIP3    H253706   3.275   4.385  16.749  1.5515 -0.6967 -2.0128
10739TIP3   OH253707   1.547   0.776  14.727 -0.2818  0.3888  0.9479
10739TIP3    H153708   1.634   0.816  14.727  0.5854 -1.3835 -0.0070
10739TIP3    H253709   1.513   0.792  14.639  0.9913 -2.6476 -0.2467
10740TIP3   OH253710   2.878   5.586   3.731 -0.1716 -0.4985 -0.2733
10740TIP3    H153711   2.814   5.648   3.698 -0.0791 -0.0861  0.3154
10740TIP3    H253712   2.935   5.637   3.788 -0.4250 -1.2349  0.6541
10741TIP3   OH253713   3.567   6.627   5.209 -0.7583  0.1634 -0.4362
10741TIP3    H153714   3.515   6.667   5.140 -1.3516 -1.1073 -0.7598
10741TIP3    H253715   3.657   6.628   5.176 -0.9930 -0.1279 -1.0833
10742TIP3   OH253716   4.717   0.568  15.674  0.5151  0.1989  0.3052
10742TIP3    H153717   4.752   0.622  15.603  1.8934 -1.0109  0.0165
10742TIP3    H253718   4.623   0.562  15.657  0.8551 -0.3066 -1.5833
10743TIP3   OH253719   1.553   3.181   0.483 -0.0585  0.0685 -0.0399
10743TIP3    H153720   1.540   3.275   0.493 -0.1419  0.0006  0.5328
10743TIP3    H253721   1.467   3.147   0.458 -0.2244  0.0408  0.5573
10744TIP3   OH253722   0.562   5.746  10.922  0.2254 -0.0967  0.2986
10744TIP3    H153723   0.641   5.696  10.942  0.0988  0.2488  1.8419
10744TIP3    H253724   0.490   5.689  10.947  0.0234  0.0772  0.1151
10745TIP3   OH253725   2.808   3.053  10.942  0.0596 -0.1809  0.6671
10745TIP3    H153726   2.770   3.141  10.935  1.8752  0.4951 -3.9305
10745TIP3    H253727   2.883   3.065  11.002 -0.3590  1.1068  0.9790
10746TIP3   OH253728   1.809   5.734  15.830 -0.4663 -0.2212 -0.1451
10746TIP3    H153729   1.800   5.819  15.789 -0.7169 -0.5965 -0.8822
10746TIP3    H253730   1.816   5.753  15.924  2.2408  0.8044 -0.4511
10747TIP3   OH253731   4.183   3.061   5.448  0.1479  0.0821 -0.0452
10747TIP3    H153732   4.221   2.978   5.476  2.6065  1.0161 -0.4135
10747TIP3    H253733   4.128   3.038   5.373 -0.6524 -1.4180  0.9422
10748TIP3   OH253734   0.104   1.616   4.209  0.6265  0.4757  0.2000
10748TIP3    H153735   0.058   1.560   4.272  0.0391  1.7578  0.9322
10748TIP3    H253736   0.195   1.587   4.214  0.3650 -0.2979  0.6967
10749TIP3   OH253737   0.670   3.681  16.959  0.4220  0.4067  0.1991
10749TIP3    H153738   0.648   3.691  16.866 -0.6226  0.7236  0.4665
10749TIP3    H253739   0.760   3.713  16.966  0.0407  1.6766 -0.4615
10750TIP3   OH253740   6.570   6.232  12.716  0.1774 -0.1827 -0.1084
10750TIP3    H153741   6.656   6.273  12.703  1.0865 -1.7270  0.8304
10750TIP3    H253742   6.532   6.228  12.628  1.1146  0.3666 -0.5545
10751TIP3   OH253743   4.518   2.555   3.183  0.7329 -0.3066 -0.0461
10751TIP3    H153744   4.428   2.569   3.213  0.2692 -1.3856 -0.8730
10751TIP3    H253745   4.572   2.586   3.256 -0.2645  1.3738  0.0318
10752TIP3   OH253746   0.351   2.328  15.253  0.6468  0.0075 -0.3039
10752TIP3    H153747   0.273   2.382  15.268  0.1410 -1.1585  1.8418
10752TIP3    H253748   0.330   2.277  15.175 -0.3702  0.3551 -0.2756
10753TIP3   OH253749   5.875   1.422  16.880 -0.3384  0.5451 -0.2259
10753TIP3    H153750   5.948   1.359  16.877 -0.4268  0.4296  0.0481
10753TIP3    H253751   5.897   1.487  16.813 -0.2927  0.1695 -0.5812
10754TIP3   OH253752   2.930   5.937  14.770 -0.4499 -0.1774  0.2762
10754TIP3    H153753   2.911   5.850  14.805 -2.1399 -0.2553 -0.7551
10754TIP3    H253754   2.856   5.957  14.713  1.3465  0.6800 -1.8756
10755TIP3   OH253755   6.224   4.301   4.552  0.6107 -0.2445 -0.1484
10755TIP3    H153756   6.190   4.248   4.480 -1.3743  0.4988  0.1786
10755TIP3    H253757   6.288   4.359   4.511 -0.1747 -0.1312 -1.2607
10756TIP3   OH253758   4.630   4.616  13.933 -0.4110 -0.2281 -0.5671
10756TIP3    H153759   4.686   4.576  13.999  0.1487 -0.5160 -1.2004
10756TIP3    H253760   4.671   4.701  13.916 -0.9579  0.1477 -0.0371
10757TIP3   OH253761   5.741   5.255  11.437 -0.4296 -0.0787 -0.6927
10757TIP3    H153762   5.661   5.207  11.414 -0.0618 -0.7562 -0.5865
10757TIP3    H253763   5.769   5.295  11.354 -2.3750  2.5105 -0.2222
10758TIP3   OH253764   3.728   6.005   0.535  0.1627  0.1507  0.2147
10758TIP3    H153765   3.662   5.983   0.469 -0.4394  0.4768  0.6975
10758TIP3    H253766   3.678   6.033   0.612  0.8502  2.0950  0.0310
10759TIP3   OH253767   0.431   1.363  14.391  0.4411 -0.3302 -0.6230
10759TIP3    H153768   0.385   1.280  14.387 -1.8744  0.9078 -2.1363
10759TIP3    H253769   0.484   1.365  14.311 -0.8805  0.3457 -1.5063
10760TIP3   OH253770   6.584   1.219   3.874 -0.1166  0.1363 -0.6705
10760TIP3    H153771   6.507   1.181   3.916 -1.0874 -0.7786 -3.0934
10760TIP3    H253772   6.638   1.144   3.849  0.7309  0.6772 -0.5319
10761TIP3   OH253773   0.758   0.996   4.008 -0.5232  0.1525  0.2673
10761TIP3    H153774   0.818   0.953   4.069  0.8784  1.6379 -0.0137
10761TIP3    H253775   0.704   1.052   4.064 -0.0297  0.6177  0.2901
10762TIP3   OH253776   3.934   2.528  16.728 -0.5375  0.4036  0.0035
10762TIP3    H153777   3.938   2.440  16.764 -0.1236  0.1373 -0.6640
10762TIP3    H253778   3.938   2.515  16.633  0.5109  1.1813 -0.0770
10763TIP3   OH253779   5.881   4.838   2.760  0.5227 -0.3374 -0.2250
10763TIP3    H153780   5.842   4.908   2.708  2.6337  0.7104 -0.4914
10763TIP3    H253781   5.858   4.860   2.850  1.9997  1.3726 -0.1896
10764TIP3   OH253782   1.584   0.761   4.570 -0.1043 -0.2755  0.1857
10764TIP3    H153783   1.653   0.718   4.621  0.7291 -0.7215 -1.2509
10764TIP3    H253784   1.552   0.692   4.512 -2.6938 -0.4438  1.6630
10765TIP3   OH253785   2.833   5.422   3.402 -0.1927  0.2566 -0.1690
10765TIP3    H153786   2.812   5.468   3.320  0.6595  0.6473 -0.1852
10765TIP3    H253787   2.878   5.488   3.455 -0.7653  0.0127  0.6370
10766TIP3   OH253788   1.742   3.406  14.102 -0.6719  0.4137  0.2321
10766TIP3    H153789   1.810   3.377  14.041 -2.5185 -2.9101 -0.4516
10766TIP3    H253790   1.747   3.343  14.175 -1.5531  1.5160  1.2818
10767TIP3   OH253791   0.200   6.643  12.725 -0.2472  0.1509 -0.0203
10767TIP3    H153792   0.286   6.668  12.693 -0.6985  2.4428  0.3894
10767TIP3    H253793   0.214   6.560  12.770  1.4419 -0.2538 -1.2083
10768TIP3   OH253794   2.341   0.837   5.134  0.1144 -0.1671 -0.2893
10768TIP3    H153795   2.413   0.900   5.135 -1.3016  1.5441  1.7910
10768TIP3    H253796   2.363   0.773   5.201 -0.5030  0.6780  0.7546
10769TIP3   OH253797   2.974   4.526  11.337  0.5995 -0.3515  0.4433
10769TIP3    H153798   2.984   4.560  11.426 -0.5807  1.3719 -0.0321
10769TIP3    H253799   2.884   4.492  11.335  0.1268  0.8850 -0.4465
10770TIP3   OH253800   1.652   6.694   5.025  0.4354  0.3407 -0.3687
10770TIP3    H153801   1.674   6.777   4.982 -1.7569  2.4160  2.1616
10770TIP3    H253802   1.608   6.720   5.105 -0.1192 -3.3518  0.6937
10771TIP3   OH253803   2.084   5.840  12.803  0.0237  0.6031  0.0797
10771TIP3    H153804   2.012   5.814  12.746 -0.0875  2.4864 -0.7169
10771TIP3    H253805   2.147   5.883  12.744  1.7992 -0.9238  0.7621
10772TIP3   OH253806   6.350   1.938  13.572 -0.0776 -0.0140  0.0304
10772TIP3    H153807   6.370   1.988  13.493 -0.5720  0.8613  0.4344
10772TIP3    H253808   6.269   1.892  13.552 -0.0082 -0.0807 -0.0969
10773TIP3   OH253809   3.625   0.659   4.404 -0.2821 -0.1791 -0.1888
10773TIP3    H153810   3.548   0.632   4.354  0.0660 -2.0426  0.1867
10773TIP3    H253811   3.681   0.703   4.339 -1.2679  0.4343 -0.6498
10774TIP3   OH253812   4.562   2.861   2.237 -0.3912 -0.4874  0.2151
10774TIP3    H153813   4.656   2.862   2.218 -0.2926 -1.1919  0.5982
10774TIP3    H253814   4.539   2.952   2.253 -0.0831 -0.1117 -1.3198
10775TIP3   OH253815   3.448   3.388   3.905  0.1050  0.2249  0.2926
10775TIP3    H153816   3.386   3.445   3.859  0.9691  0.7925 -0.2159
10775TIP3    H253817   3.520   3.446   3.930  0.4920 -0.4362  0.7645
10776TIP3   OH253818   3.390   1.236  14.350  0.1909  0.1451 -0.0469
10776TIP3    H153819   3.478   1.211  14.320  0.3890  2.6003 -1.8074
10776TIP3    H253820   3.334   1.164  14.324  1.2347 -0.0997 -1.7582
10777TIP3   OH253821   0.259   3.730  15.433 -0.0774  0.2682 -0.2226
10777TIP3    H153822   0.283   3.675  15.508 -0.2227  0.5367  0.0211
10777TIP3    H253823   0.318   3.805  15.439 -0.7622  0.7835  0.2052
10778TIP3   OH253824   3.026   4.672   0.019 -0.2118  0.6200  0.2544
10778TIP3    H153825   3.055   4.751  -0.027  0.3861  1.2285  1.6399
10778TIP3    H253826   3.107   4.624   0.038 -0.5020  0.0839  0.1767
10779TIP3   OH253827   2.098   1.254   2.826 -0.1244  0.1638 -0.7395
10779TIP3    H153828   2.141   1.170   2.845  0.4669  0.7431  0.5896
10779TIP3    H253829   2.170   1.316   2.815 -0.4879  0.2644 -3.1971
10780TIP3   OH253830   1.268   2.693   3.710  0.2993  0.3030  0.6313
10780TIP3    H153831   1.181   2.714   3.678  1.1114  0.0062 -2.1000
10780TIP3    H253832   1.257   2.675   3.803 -2.5027  0.3688  0.3801
10781TIP3   OH253833   1.960   5.420  16.395 -0.2959 -0.5314  0.0577
10781TIP3    H153834   1.985   5.434  16.304 -1.4738  1.3874 -0.0239
10781TIP3    H253835   1.870   5.454  16.400  0.0476  0.1931  2.1212
10782TIP3   OH253836   5.993   0.958   5.604  0.6977 -0.8642 -0.1175
10782TIP3    H153837   5.973   0.881   5.656  1.6350 -2.0114 -1.3813
10782TIP3    H253838   6.087   0.953   5.588  0.5611 -0.1469 -1.2630
10783TIP3   OH253839   1.563   0.538  12.668 -0.7687  0.1339 -0.1038
10783TIP3    H153840   1.564   0.620  12.618 -0.9226  2.1012  2.8173
10783TIP3    H253841   1.655   0.520  12.686 -0.7462 -0.1961 -0.5594
10784TIP3   OH253842   5.020   3.086  13.684  0.6180 -0.1676 -0.6132
10784TIP3    H153843   4.980   3.106  13.600 -0.8790  0.5197  0.2210
10784TIP3    H253844   5.077   3.161  13.702 -0.4971  0.6140 -0.1910
10785TIP3   OH253845   6.262   5.381  15.822  0.0558  0.3618  0.2872
10785TIP3    H153846   6.175   5.415  15.801 -0.5132 -0.6313  0.9773
10785TIP3    H253847   6.311   5.389  15.740 -1.2828 -0.8898 -0.6854
10786TIP3   OH253848   4.813   0.664   4.962  0.0402  0.6257 -0.1593
10786TIP3    H153849   4.782   0.626   4.880 -0.0013 -0.2080  0.2313
10786TIP3    H253850   4.905   0.687   4.945  1.2345 -2.9783  0.6087
10787TIP3   OH253851   5.471   1.616   3.212  0.5208  0.4101 -0.5166
10787TIP3    H153852   5.380   1.592   3.225  0.8955 -0.7702  0.1093
10787TIP3    H253853   5.468   1.702   3.171 -0.8470  1.7846  2.2144
10788TIP3   OH253854   6.554   4.636  14.193 -0.0294  0.3174 -0.0146
10788TIP3    H153855   6.518   4.550  14.215 -1.6780  1.2659  1.1450
10788TIP3    H253856   6.495   4.671  14.127  0.0986  0.9260  0.1873
10789TIP3   OH253857   5.816   5.116  15.218 -0.0899  0.5097  0.5029
10789TIP3    H153858   5.721   5.130  15.215 -0.1222  0.6416  1.9041
10789TIP3    H253859   5.829   5.053  15.289  0.7621 -0.6319 -0.5989
10790TIP3   OH253860   1.191   3.605  15.533 -0.3436  0.4545  0.2499
10790TIP3    H153861   1.253   3.671  15.563  0.1646  0.0784  0.0501
10790TIP3    H253862   1.123   3.654  15.488  1.0521  0.7408 -1.6891
10791TIP3   OH253863   2.341   4.994  13.829 -0.1007 -0.5324 -0.1405
10791TIP3    H153864   2.315   4.949  13.910  0.1398 -0.0845  0.1864
10791TIP3    H253865   2.258   5.007  13.783 -0.2219 -0.9422 -0.0508
10792TIP3   OH253866   4.594   6.825  17.185  0.3019 -0.4049 -0.0514
10792TIP3    H153867   4.585   6.756  17.251  0.4948  0.1968  0.6177
10792TIP3    H253868   4.686   6.852  17.191 -0.1323  0.9615  0.7768
10793TIP3   OH253869   3.882   0.144  11.495  0.2414 -0.3567  0.6366
10793TIP3    H153870   3.973   0.173  11.497  0.9869 -2.4806  2.2964
10793TIP3    H253871   3.841   0.191  11.568  0.4285 -0.5116  0.8462
10794TIP3   OH253872   1.862   2.325  16.009 -0.6742 -0.2077 -0.0526
10794TIP3    H153873   1.891   2.403  16.055  0.4444 -0.3415 -0.5006
10794TIP3    H253874   1.928   2.259  16.028  0.2101 -0.0881 -2.3219
10795TIP3   OH253875   6.488   1.687  13.540  0.1190 -0.5560 -0.5713
10795TIP3    H153876   6.485   1.769  13.590  3.4385  0.1566 -1.3330
10795TIP3    H253877   6.437   1.704  13.461  0.7016  0.7744 -0.6733
10796TIP3   OH253878   2.976   5.185  15.631  0.1485  0.5838  0.4248
10796TIP3    H153879   2.915   5.238  15.683 -0.4461 -0.5619  0.9523
10796TIP3    H253880   2.967   5.218  15.542 -1.5304  0.2270  0.4253
10797TIP3   OH253881   6.418   3.729  14.708 -0.3478 -0.0454 -0.3039
10797TIP3    H153882   6.461   3.761  14.628 -1.2601 -0.4008 -0.9543
10797TIP3    H253883   6.410   3.635  14.694 -0.3525 -0.1343  0.2928
10798TIP3   OH253884   6.192   4.405  12.888 -0.1269  0.1285  0.1110
10798TIP3    H153885   6.284   4.411  12.914  0.2501 -1.4851 -0.7267
10798TIP3    H253886   6.172   4.491  12.852  0.3792  1.2339  2.3027
10799TIP3   OH253887   2.895   4.070  12.793  0.1687 -0.3656  0.4785
10799TIP3    H153888   2.898   3.990  12.846 -0.2584 -0.8950 -0.2592
10799TIP3    H253889   2.984   4.080  12.760  0.2671 -0.4391  0.7208
10800TIP3   OH253890   5.348   3.960   5.172 -0.2957 -0.3810 -0.5003
10800TIP3    H153891   5.333   3.997   5.259  0.7855  0.6571 -0.7415
10800TIP3    H253892   5.267   3.978   5.124 -0.5312 -0.1201 -0.0112
10801TIP3   OH253893   5.604   3.856   4.206 -0.0797 -0.1397 -0.3716
10801TIP3    H153894   5.570   3.945   4.209 -0.1674 -0.1499 -0.9769
10801TIP3    H253895   5.584   3.825   4.118 -0.7411 -1.0381  0.0766
10802TIP3   OH253896   4.911   0.600  14.408 -0.2155  0.0290 -0.1172
10802TIP3    H153897   4.847   0.667  14.433 -1.1408 -0.2783 -1.5129
10802TIP3    H253898   4.910   0.601  14.312 -0.7823 -2.4756 -0.1922
10803TIP3   OH253899   3.606   5.475   1.045  0.6687 -0.4227  0.1314
10803TIP3    H153900   3.676   5.411   1.060  1.7912  0.4159 -1.3394
10803TIP3    H253901   3.554   5.472   1.125  1.5316 -2.1232  0.6795
10804TIP3   OH253902   2.432   4.009   0.180  0.5173 -0.0062  0.3037
10804TIP3    H153903   2.448   3.959   0.260  0.1966  0.2817  0.5536
10804TIP3    H253904   2.400   3.944   0.117 -0.5312 -0.0169  0.8253
10805TIP3   OH253905   6.014   3.677   3.267  0.1269  0.3728 -0.2937
10805TIP3    H153906   6.052   3.734   3.200 -1.5494  1.4279 -0.4274
10805TIP3    H253907   6.024   3.726   3.348  1.1432 -0.3993  0.0609
10806TIP3   OH253908   4.510   4.202  13.103  1.3113 -0.0327 -0.1917
10806TIP3    H153909   4.587   4.232  13.152 -0.5536  1.8985  1.8076
10806TIP3    H253910   4.444   4.270  13.119 -0.3361 -0.7419 -3.1969
10807TIP3   OH253911   2.428   1.080   2.433  0.0572 -0.6118 -0.2973
10807TIP3    H153912   2.501   1.059   2.491 -0.0639  2.4590  1.1904
10807TIP3    H253913   2.359   1.017   2.455  0.5890 -0.5129  1.7811
10808TIP3   OH253914   0.609   3.280  12.704 -0.2874  0.2593 -0.6757
10808TIP3    H153915   0.523   3.248  12.729  0.4125 -1.7040 -0.6271
10808TIP3    H253916   0.651   3.206  12.661  1.8570  0.7293  0.4697
10809TIP3   OH253917   2.885   6.017   3.778  0.1115  0.3136 -0.2785
10809TIP3    H153918   2.795   6.005   3.810  0.8120 -0.7657  1.4595
10809TIP3    H253919   2.912   6.102   3.813 -0.1051  0.4790 -0.5076
10810TIP3   OH253920   0.496   3.967   4.723 -0.3592  0.8895 -0.4451
10810TIP3    H153921   0.419   3.975   4.779  0.4200  0.9131  0.6403
10810TIP3    H253922   0.556   4.034   4.754  0.6957 -0.0947 -0.2964
10811TIP3   OH253923   5.946   0.494  16.074  0.2720 -0.0002 -0.0401
10811TIP3    H153924   5.995   0.457  16.001  0.6110  2.6845 -1.2529
10811TIP3    H253925   5.854   0.489  16.046  0.3462  0.4154 -0.3546
10812TIP3   OH253926   1.475   2.977  15.985  0.1008  0.2215 -0.1767
10812TIP3    H153927   1.413   2.966  15.912 -1.6724 -0.5855  1.3646
10812TIP3    H253928   1.470   3.070  16.007  2.6082  1.0693 -2.6419
10813TIP3   OH253929   5.728   4.805   3.257  0.2162 -0.2091  0.0568
10813TIP3    H153930   5.780   4.725   3.264 -0.0332 -0.4077 -0.2867
10813TIP3    H253931   5.638   4.777   3.271  0.0021 -0.1859 -1.1120
10814TIP3   OH253932   6.573   2.807  11.225  0.9153  0.1826 -0.5078
10814TIP3    H153933   6.566   2.769  11.138  3.2004 -2.2534  0.2419
10814TIP3    H253934   6.486   2.843  11.242 -0.1938 -1.0661 -2.9871
10815TIP3   OH253935   4.240   0.058  13.473  0.7173  0.3401 -0.5051
10815TIP3    H153936   4.256  -0.025  13.519  0.2665  0.6130  0.1567
10815TIP3    H253937   4.241   0.034  13.380  0.8565 -0.3572 -0.3337
10816TIP3   OH253938   4.121   6.690  15.486 -0.0463  0.2697  0.0806
10816TIP3    H153939   4.141   6.603  15.521 -1.8915 -0.5164 -0.6930
10816TIP3    H253940   4.039   6.715  15.528 -0.5381  0.7659 -1.1197
10817TIP3   OH253941   0.457   3.280  14.972  0.3094  0.3889 -0.3934
10817TIP3    H153942   0.522   3.211  14.986  2.0372  1.8441 -0.9935
10817TIP3    H253943   0.421   3.262  14.886  2.1708  1.3044 -1.4099
10818TIP3   OH253944   4.814   1.630   0.089 -0.0184 -0.1097 -0.2894
10818TIP3    H153945   4.756   1.632   0.165 -0.9188  3.8044 -0.8736
10818TIP3    H253946   4.870   1.707   0.100  3.4961 -2.3646 -1.0321
10819TIP3   OH253947   2.168   3.376  14.619  0.2618 -0.1418  0.9168
10819TIP3    H153948   2.179   3.375  14.715  1.8097  0.1976  0.7647
10819TIP3    H253949   2.166   3.468  14.596 -0.9064 -0.2122  0.6771
10820TIP3   OH253950   4.348   3.046   1.442  0.0982  0.1547  0.3581
10820TIP3    H153951   4.327   3.005   1.358 -1.4227  0.1654  0.7075
10820TIP3    H253952   4.387   2.976   1.494  0.2050 -0.0870 -0.0462
10821TIP3   OH253953   1.590   0.030   4.255 -0.6919  0.0999 -0.1023
10821TIP3    H153954   1.632  -0.037   4.308  0.5237 -0.0054 -1.1389
10821TIP3    H253955   1.576  -0.012   4.170  2.6659  1.8634 -1.7378
10822TIP3   OH253956   4.985   4.536   1.176 -0.5694  0.5452 -0.0639
10822TIP3    H153957   5.028   4.582   1.104  0.3720  1.6506  1.1558
10822TIP3    H253958   5.050   4.536   1.246 -1.8899  0.5885  1.2002
10823TIP3   OH253959   2.223   1.724  13.571  0.6149  0.4175 -0.7218
10823TIP3    H153960   2.202   1.690  13.485  1.2432  1.2570 -1.2238
10823TIP3    H253961   2.156   1.687  13.629 -0.4977  0.7616 -1.7548
10824TIP3   OH253962   2.613   5.320   0.937  0.0974  0.3402 -0.1193
10824TIP3    H153963   2.578   5.241   0.979 -1.5761  1.3843  0.5968
10824TIP3    H253964   2.547   5.343   0.871 -0.2014  1.9032  0.6693
10825TIP3   OH253965   2.825   5.621  11.830 -0.1391  0.2722  0.0024
10825TIP3    H153966   2.777   5.701  11.851 -0.6754 -0.5442  2.0928
10825TIP3    H253967   2.814   5.565  11.907  2.6878 -0.6511 -0.1447
10826TIP3   OH253968   0.219   0.091  17.195 -0.3927  0.2921  0.0008
10826TIP3    H153969   0.129   0.099  17.226  0.5599  0.4043  3.0164
10826TIP3    H253970   0.240  -0.001  17.206 -0.2647  0.1741 -1.1470
10827TIP3   OH253971   1.172   3.498   5.705 -0.0379 -0.4452  0.7243
10827TIP3    H153972   1.247   3.557   5.706  0.1949 -0.4100 -3.2864
10827TIP3    H253973   1.097   3.555   5.725  0.6484  0.1966  1.5552
10828TIP3   OH253974   3.930   1.582  12.359 -0.1117  0.3129  0.1391
10828TIP3    H153975   3.994   1.563  12.427  0.3554 -2.3260 -0.9101
10828TIP3    H253976   3.863   1.635  12.403  0.2058 -1.2123  2.6384
10829TIP3   OH253977   1.940   2.812   2.996 -0.5367  0.3429 -0.4468
10829TIP3    H153978   1.995   2.809   2.918 -1.1422  0.1482 -0.8747
10829TIP3    H253979   1.963   2.895   3.038  0.3628  0.0806 -0.4038
10830TIP3   OH253980   2.218   1.459  15.447 -0.1160  0.4358  0.3933
10830TIP3    H153981   2.186   1.452  15.537 -0.4283 -4.1648  0.1339
10830TIP3    H253982   2.313   1.458  15.455 -0.0711  2.1717  0.6382
10831TIP3   OH253983   1.160   3.435   2.220 -0.1537 -0.3983 -0.4702
10831TIP3    H153984   1.145   3.456   2.128  0.2951 -0.7791 -0.6343
10831TIP3    H253985   1.126   3.347   2.231  0.3092 -0.5727 -0.4122
10832TIP3   OH253986   0.874   2.470   2.974 -0.0642  0.0177 -0.2988
10832TIP3    H153987   0.939   2.405   2.948 -0.6071 -0.3950 -0.6674
10832TIP3    H253988   0.790   2.429   2.953 -0.5024 -0.0052  1.4097
10833TIP3   OH253989   5.340   3.897   0.748 -0.0131 -0.0420  0.2692
10833TIP3    H153990   5.349   3.949   0.829 -0.7648  0.7760 -0.1515
10833TIP3    H253991   5.415   3.838   0.749 -0.0368 -0.0930  1.5993
10834TIP3   OH253992   2.002   2.492   4.779 -0.0177 -0.2119  0.2316
10834TIP3    H153993   1.981   2.452   4.864 -1.6950  0.0236 -0.0295
10834TIP3    H253994   2.028   2.582   4.800 -0.4471 -0.1483  0.5127
10835TIP3   OH253995   3.911   0.450  13.124 -0.2910 -0.8645 -0.4870
10835TIP3    H153996   3.910   0.512  13.051 -1.1025  0.2982  0.4875
10835TIP3    H253997   3.991   0.469  13.171 -1.4587  0.8334  0.9269
10836TIP3   OH253998   1.002   4.579  16.875  0.1649 -0.7316 -0.2099
10836TIP3    H153999   0.999   4.486  16.852  0.1164 -0.4539 -1.3379
10836TIP3    H254000   1.039   4.579  16.964  1.1156 -1.7688 -0.5724
10837TIP3   OH254001   4.240   4.102   0.005 -0.0307  0.4365 -0.4806
10837TIP3    H154002   4.260   4.074   0.094 -0.1962  2.6798  0.3310
10837TIP3    H254003   4.316   4.154  -0.021  0.3128 -0.7349 -1.9465
10838TIP3   OH254004   1.399   6.464   0.361  0.3064  0.0150  0.1227
10838TIP3    H154005   1.385   6.401   0.431 -0.4844  1.2458  1.1126
10838TIP3    H254006   1.319   6.517   0.359  0.8117  0.7861 -0.8884
10839TIP3   OH254007   2.091   3.503   1.812 -0.2984 -0.0856 -0.0185
10839TIP3    H154008   2.121   3.564   1.745  0.1947  0.4592  0.6882
10839TIP3    H254009   2.034   3.556   1.869  0.3148 -0.2168  0.7316
10840TIP3   OH254010   3.147   5.081  12.867  0.0127 -0.4100 -0.1749
10840TIP3    H154011   3.227   5.103  12.915  0.8034  0.2780 -1.7382
10840TIP3    H254012   3.078   5.085  12.933  1.3047 -1.5264  1.3264
10841TIP3   OH254013   4.628   3.735  10.781 -0.2360 -0.1538 -0.2902
10841TIP3    H154014   4.548   3.736  10.728  0.4058  0.4756 -1.2840
10841TIP3    H254015   4.638   3.825  10.811 -0.1467 -0.3325  0.2370
10842TIP3   OH254016   3.681   6.531   5.826  0.6817 -0.5501  1.0026
10842TIP3    H154017   3.623   6.603   5.802  1.0268 -0.3220  0.8675
10842TIP3    H254018   3.697   6.485   5.744  2.8849  0.9613  0.5162
10843TIP3   OH254019   1.300   0.615   3.453  0.5629  0.6231 -0.4670
10843TIP3    H154020   1.377   0.668   3.471 -0.0942  0.9143  1.8863
10843TIP3    H254021   1.226   0.669   3.481 -0.1602 -1.2666  1.7271
10844TIP3   OH254022   1.186   5.977   0.310 -0.0357  0.2719 -0.3667
10844TIP3    H154023   1.136   5.940   0.237  1.1164 -1.4755 -0.3400
10844TIP3    H254024   1.238   6.047   0.271 -0.6738  0.4662 -0.8787
10845TIP3   OH254025   4.971   6.449  10.939 -0.0080  0.1293  0.1640
10845TIP3    H154026   5.062   6.461  10.966 -0.4442 -0.4959  2.0351
10845TIP3    H254027   4.965   6.356  10.916  0.0386  0.3758 -0.8891
10846TIP3   OH254028   1.681   0.386  11.654  0.0091  0.2400  0.0320
10846TIP3    H154029   1.651   0.343  11.574 -1.0545 -0.1901  0.6452
10846TIP3    H254030   1.769   0.351  11.669 -0.3146 -0.7069 -0.2141
10847TIP3   OH254031   1.399   2.323   0.728 -0.1617 -0.1288  0.0171
10847TIP3    H154032   1.447   2.251   0.768 -1.6801 -0.0393  2.1856
10847TIP3    H254033   1.352   2.283   0.655  1.0014 -0.7647 -0.4030
10848TIP3   OH254034   1.543   1.861   4.233  0.1129  0.0934  0.4820
10848TIP3    H154035   1.611   1.837   4.170  0.7794 -0.2112  1.2828
10848TIP3    H254036   1.581   1.837   4.318 -0.3391  1.4339  1.0847
10849TIP3   OH254037   4.392   6.652   2.849  0.2363 -0.3250 -0.4036
10849TIP3    H154038   4.401   6.748   2.846  3.2124 -0.4667  0.5640
10849TIP3    H254039   4.410   6.629   2.940 -0.4224 -1.8255 -0.6349
10850TIP3   OH254040   5.960   6.767  12.848  0.4816  0.1302  0.4723
10850TIP3    H154041   5.967   6.683  12.894 -0.5968 -0.4073 -0.3085
10850TIP3    H254042   5.922   6.827  12.912 -2.3061 -0.9483 -0.0328
10851TIP3   OH254043   2.085   4.991  13.698 -0.3824  0.8431  0.8300
10851TIP3    H154044   2.105   5.023  13.610 -0.1969 -0.4152  0.3900
10851TIP3    H254045   1.993   5.015  13.712 -0.6796  0.2969 -0.0737
10852TIP3   OH254046   4.249   5.173  16.381  0.6342  0.0534 -0.7075
10852TIP3    H154047   4.284   5.168  16.293 -1.1547  0.8594 -1.5155
10852TIP3    H254048   4.154   5.181  16.369  0.3977  0.8552  1.2623
10853TIP3   OH254049   5.688   2.252  13.950  0.0553  0.0275 -0.4656
10853TIP3    H154050   5.758   2.244  13.886  2.4601  1.7074  1.7375
10853TIP3    H254051   5.649   2.338  13.933  0.2041  0.1590 -0.1516
10854TIP3   OH254052   3.884   5.982  10.879  0.2289  0.4934 -0.1831
10854TIP3    H154053   3.833   6.062  10.888  0.6236  0.5705  1.9089
10854TIP3    H254054   3.873   5.956  10.788 -3.7583  0.3488  0.1831
10855TIP3   OH254055   5.083   5.253   0.380  0.5725 -0.0204  1.2212
10855TIP3    H154056   4.991   5.234   0.363  0.6240  1.4375 -1.3143
10855TIP3    H254057   5.129   5.174   0.353  0.1818  0.1792 -0.1438
10856TIP3   OH254058   6.420   0.428  11.769  0.0568 -0.0935 -0.2533
10856TIP3    H154059   6.493   0.434  11.707 -0.7166 -0.7672 -1.2663
10856TIP3    H254060   6.433   0.501  11.830  1.5457 -0.1850 -0.4372
10857TIP3   OH254061   6.030   2.814  10.623  0.4643  0.2288  0.0869
10857TIP3    H154062   6.110   2.775  10.658 -0.5719  0.3297  2.7717
10857TIP3    H254063   5.988   2.744  10.574  1.2466 -0.3891  0.2778
10858TIP3   OH254064   0.337   1.374   1.911 -0.0473 -0.2632 -0.1680
10858TIP3    H154065   0.429   1.348   1.907  0.4600  1.5470 -2.3361
10858TIP3    H254066   0.338   1.470   1.912 -1.9177 -0.1767  1.6993
10859TIP3   OH254067   1.013   5.010  11.727 -0.0707 -0.5968 -0.0984
10859TIP3    H154068   1.002   5.021  11.821  1.5390  2.8536 -0.1796
10859TIP3    H254069   1.087   4.950  11.718  0.7058  0.1973  0.8716
10860TIP3   OH254070   4.484   0.672  12.093 -0.1557 -0.4323  0.6270
10860TIP3    H154071   4.551   0.606  12.074  1.7816  1.4195  0.6948
10860TIP3    H254072   4.500   0.697  12.184 -0.2336  0.7779  0.3227
10861TIP3   OH254073   4.800   2.040  11.563 -0.4527  0.4035 -0.7276
10861TIP3    H154074   4.745   1.977  11.515 -1.3943  1.1728 -0.6782
10861TIP3    H254075   4.748   2.120  11.567  0.2909  0.8647  0.1528
10862TIP3   OH254076   0.725   2.257   0.380 -0.3225 -0.2009 -0.6840
10862TIP3    H154077   0.630   2.248   0.378 -0.5197  1.3609  0.0480
10862TIP3    H254078   0.741   2.351   0.369  0.9564  0.0735  2.5179
10863TIP3   OH254079   5.293   5.970   6.453  0.2900 -0.7346 -0.0459
10863TIP3    H154080   5.293   5.875   6.468 -1.5962 -0.5238  1.7585
10863TIP3    H254081   5.289   5.979   6.358  0.1178 -2.4751 -0.2418
10864TIP3   OH254082   2.605   1.476  10.683  0.4404 -0.4716 -0.0897
10864TIP3    H154083   2.526   1.486  10.630  0.0413 -0.4745  0.4966
10864TIP3    H254084   2.640   1.564  10.691 -1.5620  0.2165  2.7584
10865TIP3   OH254085   4.160   5.488   4.649 -0.5184 -0.8198 -0.0183
10865TIP3    H154086   4.205   5.467   4.567 -0.9605  1.0625 -0.7878
10865TIP3    H254087   4.208   5.438   4.715  1.0409 -0.9250 -1.1603
10866TIP3   OH254088   3.423   2.590   0.301 -0.2015 -0.6377 -0.4764
10866TIP3    H154089   3.445   2.659   0.238  1.1680 -1.0922 -0.5400
10866TIP3    H254090   3.504   2.539   0.309 -0.1992 -0.3500  1.9580
10867TIP3   OH254091   6.497   3.546  16.098  0.3434 -0.0390 -0.0204
10867TIP3    H154092   6.511   3.495  16.178 -0.4455 -1.0106 -0.4805
10867TIP3    H254093   6.525   3.488  16.027  2.9605  1.5385 -0.3926
10868TIP3   OH254094   4.546   5.772   1.505 -0.3031  0.4050  0.3474
10868TIP3    H154095   4.630   5.810   1.480 -0.7826  0.5854 -1.0939
10868TIP3    H254096   4.560   5.677   1.499 -0.4379  0.4372 -0.8544
10869TIP3   OH254097   3.161   5.476  15.789 -0.2368  0.0993  0.5608
10869TIP3    H154098   3.183   5.568  15.805 -0.1313 -0.0038  1.0210
10869TIP3    H254099   3.090   5.479  15.726 -2.0926  0.5960  2.5677
10870TIP3   OH254100   5.208   5.951  13.116 -0.0086  0.1057 -0.4950
10870TIP3    H154101   5.275   5.990  13.060  0.2671 -0.5815 -0.6599
10870TIP3    H254102   5.251   5.873  13.153 -0.8467 -0.5692 -0.9252
10871TIP3   OH254103   4.404   4.768   3.155  0.2262 -0.1945  0.1496
10871TIP3    H154104   4.407   4.673   3.147 -2.7896 -0.4612  0.9414
10871TIP3    H254105   4.323   4.793   3.112 -0.3871  1.6870  2.1823
10872TIP3   OH254106   4.195   6.687  11.211 -0.5015 -0.0377  0.1503
10872TIP3    H154107   4.269   6.680  11.151 -1.2267  1.3842 -0.9726
10872TIP3    H254108   4.198   6.778  11.241 -2.5285  0.4500 -0.9580
10873TIP3   OH254109   1.008   2.089   4.273  0.4517  0.2663 -0.8427
10873TIP3    H154110   1.055   2.037   4.337  0.1666  1.4527  0.3744
10873TIP3    H254111   0.995   2.030   4.199  1.6429 -0.8390 -0.2148
10874TIP3   OH254112   2.236   1.057  13.516 -0.5059 -0.0114 -0.3084
10874TIP3    H154113   2.224   1.022  13.428  1.3086 -2.5967  0.3672
10874TIP3    H254114   2.321   1.102  13.511 -0.3178 -0.3160  0.1458
10875TIP3   OH254115   5.691   6.787  15.763 -0.3485  0.0068 -0.0965
10875TIP3    H154116   5.601   6.792  15.793 -0.9813 -3.6147 -0.9181
10875TIP3    H254117   5.744   6.795  15.843 -1.5642 -0.5341  0.7914
10876TIP3   OH254118   0.058   3.784  15.277  0.0900 -0.2509 -0.3741
10876TIP3    H154119   0.059   3.865  15.225 -0.8086  0.0404  0.0414
10876TIP3    H254120   0.125   3.798  15.344  1.3897 -0.7075 -1.5447
10877TIP3   OH254121   0.557   1.214   2.391  0.4284  0.7973 -0.5013
10877TIP3    H154122   0.520   1.250   2.472  0.2849 -0.0565 -0.1821
10877TIP3    H254123   0.549   1.286   2.328 -0.1847  1.2111  0.0265
10878TIP3   OH254124   6.486   6.592  13.904 -0.2129  0.0560 -0.2164
10878TIP3    H154125   6.496   6.583  13.809 -0.7602  1.7737 -0.4739
10878TIP3    H254126   6.571   6.569  13.940  0.6261  1.2884 -1.3056
10879TIP3   OH254127   4.929   3.011   4.614  0.1434  0.1032  0.1093
10879TIP3    H154128   4.875   3.043   4.686 -1.3026  1.5128 -1.5065
10879TIP3    H254129   4.869   2.959   4.560  1.0243 -0.3527 -0.4633
10880TIP3   OH254130   6.443   3.816  14.430  0.0038  0.0539 -0.3449
10880TIP3    H154131   6.420   3.841  14.340 -0.3922 -0.3375 -0.3554
10880TIP3    H254132   6.512   3.750  14.419 -0.8518 -0.8586 -0.4109
10881TIP3   OH254133   4.769   5.834  14.846 -0.1589 -0.4526 -0.0968
10881TIP3    H154134   4.810   5.837  14.759 -0.5725 -2.0987 -0.3799
10881TIP3    H254135   4.682   5.872  14.833 -0.4584 -1.2724 -0.5667
10882TIP3   OH254136   0.979   4.051   5.170  0.0081 -0.6915  0.2305
10882TIP3    H154137   1.002   4.017   5.083  0.4689  0.4224 -0.1074
10882TIP3    H254138   1.048   4.018   5.228  0.6598 -0.0480 -0.1626
10883TIP3   OH254139   5.432   0.164   3.765  0.4994 -0.5941  0.1355
10883TIP3    H154140   5.427   0.095   3.831 -0.0897 -1.2652 -0.6002
10883TIP3    H254141   5.341   0.189   3.750  0.5590 -1.1202 -1.1304
10884TIP3   OH254142   0.260   0.626   5.653  0.0006  0.1444  0.4911
10884TIP3    H154143   0.216   0.557   5.604 -0.9158  1.2718 -0.3340
10884TIP3    H254144   0.352   0.619   5.628 -0.1833 -0.3994 -0.0454
10885TIP3   OH254145   2.250   3.541   5.331 -0.3657 -0.0364 -0.2108
10885TIP3    H154146   2.214   3.628   5.311 -0.2632 -0.4501 -2.4950
10885TIP3    H254147   2.335   3.559   5.371 -1.2801  0.9112  1.4032
10886TIP3   OH254148   2.070   6.415  15.473 -0.3289 -0.3681 -0.3289
10886TIP3    H154149   2.131   6.418  15.546  0.4380 -0.8188 -0.9330
10886TIP3    H254150   1.999   6.475  15.498 -2.1539 -3.3354  2.5958
10887TIP3   OH254151   4.116   1.161   1.058  0.1704  0.0987  0.2583
10887TIP3    H154152   4.111   1.089   0.995 -0.5076  1.2241 -1.0262
10887TIP3    H254153   4.105   1.119   1.143  0.0860 -1.3535 -0.4396
10888TIP3   OH254154   1.266   1.845   0.564 -0.4641 -0.8919  0.3450
10888TIP3    H154155   1.257   1.802   0.479 -2.3402 -3.2964  1.6418
10888TIP3    H254156   1.184   1.893   0.575  0.2801  0.4293  0.3186
10889TIP3   OH254157   3.168   2.889  14.031 -0.2448 -0.3096 -0.6203
10889TIP3    H154158   3.192   2.870  13.941 -1.9941  0.4572 -1.2987
10889TIP3    H254159   3.088   2.837  14.046 -2.0337  2.2016 -0.7642
10890TIP3   OH254160   0.945   3.826   1.627 -0.2568  0.1665  0.1751
10890TIP3    H154161   0.975   3.796   1.541  1.4645  0.0236  0.7905
10890TIP3    H254162   0.881   3.760   1.654  0.0189 -0.4030 -0.5227
10891TIP3   OH254163   3.183   4.118  15.793  0.1210 -0.6150 -0.2239
10891TIP3    H154164   3.156   4.203  15.760  0.5224  0.2606  1.5631
10891TIP3    H254165   3.228   4.076  15.720 -0.3394  0.5831 -1.2182
10892TIP3   OH254166   0.359   6.167  15.230  0.0500 -0.6955 -0.3281
10892TIP3    H154167   0.378   6.074  15.238  1.7617 -0.7570 -3.4820
10892TIP3    H254168   0.273   6.172  15.190  0.4901 -1.0080 -1.3405
10893TIP3   OH254169   6.039   3.021  12.755 -0.2285 -0.0480 -0.4382
10893TIP3    H154170   6.018   3.050  12.843 -1.6529 -0.7914 -0.5063
10893TIP3    H254171   5.999   3.086  12.697  0.1380  0.0870 -0.5404
10894TIP3   OH254172   5.794   0.624   4.137  0.1882  1.0344 -0.1374
10894TIP3    H154173   5.861   0.634   4.069 -0.0045  0.1397 -0.4686
10894TIP3    H254174   5.820   0.546   4.185 -0.3146  0.9962  0.0813
10895TIP3   OH254175   2.777   2.752   2.156  0.1660  0.0793 -0.6153
10895TIP3    H154176   2.789   2.744   2.251 -1.6709 -0.8818 -0.4052
10895TIP3    H254177   2.722   2.677   2.134 -3.1709  2.6046 -1.6881
10896TIP3   OH254178   4.680   0.965  16.791 -0.0058  0.0114  0.0295
10896TIP3    H154179   4.715   1.050  16.764  2.9119 -1.2411 -0.4683
10896TIP3    H254180   4.638   0.930  16.712 -0.0555  0.4459 -0.1382
10897TIP3   OH254181   0.229   0.030   5.577 -0.6484  0.4655 -0.0859
10897TIP3    H154182   0.256  -0.019   5.499  0.4964 -0.0777  0.6300
10897TIP3    H254183   0.261   0.119   5.560  0.8409  0.0408  0.3374
10898TIP3   OH254184   4.622   3.817  15.807 -0.6057  0.3591  0.1292
10898TIP3    H154185   4.638   3.731  15.845  1.2735  0.5465 -0.1449
10898TIP3    H254186   4.681   3.822  15.732 -1.6638  1.3759 -0.6853
10899TIP3   OH254187   4.540   5.305  15.302 -0.0351  0.2033  0.0522
10899TIP3    H154188   4.474   5.355  15.349  0.9594  1.8525 -0.2362
10899TIP3    H254189   4.528   5.215  15.333 -0.6288  0.9077  2.0464
10900TIP3   OH254190   2.907   0.601   0.920 -0.4770 -0.6980  0.2222
10900TIP3    H154191   2.989   0.629   0.879 -0.5118  0.8605  1.1170
10900TIP3    H254192   2.862   0.551   0.853  0.3368  0.0962 -0.9521
10901TIP3   OH254193   0.753   6.370  11.216 -0.2349 -0.1760 -0.1449
10901TIP3    H154194   0.828   6.359  11.275 -0.9325 -1.4554  0.5413
10901TIP3    H254195   0.689   6.418  11.269 -0.3126 -0.0374 -0.3659
10902TIP3   OH254196   4.209   3.630   4.431  0.0842 -0.1070 -0.2901
10902TIP3    H154197   4.201   3.671   4.345 -0.2743  0.3139 -0.0619
10902TIP3    H254198   4.277   3.681   4.475  0.7466 -0.7330 -0.5452
10903TIP3   OH254199   0.383   3.452   2.645 -0.1951 -0.4979 -0.0679
10903TIP3    H154200   0.304   3.439   2.594  0.1260 -0.6186 -0.5378
10903TIP3    H254201   0.438   3.509   2.592 -0.6981  1.0991  1.0464
10904TIP3   OH254202   6.790   6.699  12.524  0.2384  0.0075  0.7027
10904TIP3    H154203   6.712   6.752  12.541 -0.0408  0.2430 -1.1073
10904TIP3    H254204   6.842   6.708  12.603 -0.9264  0.9930  1.4070
10905TIP3   OH254205   4.526   3.382   4.854 -0.0220  0.7431  0.5039
10905TIP3    H154206   4.589   3.326   4.810  1.4955  3.0494 -0.4585
10905TIP3    H254207   4.578   3.430   4.919 -1.7011 -0.5905  2.9947
10906TIP3   OH254208   2.055   0.010   0.552  0.1615 -0.0152  0.4390
10906TIP3    H154209   1.977  -0.017   0.599 -0.5357 -0.7525 -1.0586
10906TIP3    H254210   2.053  -0.040   0.470  2.0331  0.1799  0.2126
10907TIP3   OH254211   5.782   3.876  14.163  0.6922  1.0422 -0.1120
10907TIP3    H154212   5.829   3.893  14.245  0.2516  0.2031  0.3307
10907TIP3    H254213   5.840   3.818  14.113  0.0105 -0.3280  0.6073
10908TIP3   OH254214   0.768   5.542  12.740  0.0510 -0.1419  0.5080
10908TIP3    H154215   0.831   5.470  12.736  0.6654  0.4206 -1.0208
10908TIP3    H254216   0.748   5.560  12.648 -1.7262  0.2456  0.9401
10909TIP3   OH254217   2.286   0.086  13.106 -0.2174 -0.0139 -0.1258
10909TIP3    H154218   2.226   0.013  13.090  0.2806 -0.6425  0.7980
10909TIP3    H254219   2.259   0.121  13.191  0.3398  0.0835  0.0122
10910TIP3   OH254220   2.501   2.994  16.644  0.3615 -0.0335  0.8196
10910TIP3    H154221   2.430   2.956  16.697 -0.8089  0.5585 -0.2696
10910TIP3    H254222   2.460   3.013  16.560  1.9694 -0.1699 -0.0323
10911TIP3   OH254223   2.706   1.542  13.380  0.5563 -0.6509  0.0218
10911TIP3    H154224   2.651   1.618  13.363 -0.2593 -1.7073 -2.6235
10911TIP3    H254225   2.663   1.495  13.451  0.9715  1.1993  1.5500
10912TIP3   OH254226   4.917   6.811  14.449 -0.3364  0.3672 -0.0600
10912TIP3    H154227   5.000   6.763  14.448  0.6937  1.8486 -3.8535
10912TIP3    H254228   4.925   6.871  14.523  1.5915 -0.1416  0.2020
10913TIP3   OH254229   4.935   5.451  14.239 -0.3809 -0.0033  0.4717
10913TIP3    H154230   4.978   5.367  14.224  0.3693  0.4812 -0.1676
10913TIP3    H254231   4.961   5.505  14.165 -2.0750  0.3278  0.0841
10914TIP3   OH254232   2.142   5.651  16.364  0.1146  0.4944 -0.0974
10914TIP3    H154233   2.090   5.576  16.335  0.2153  0.2776  0.2792
10914TIP3    H254234   2.223   5.645  16.313 -0.0876  0.6419 -0.4415
10915TIP3   OH254235   5.389   2.538   2.761 -0.1102 -0.3308 -0.0051
10915TIP3    H154236   5.442   2.481   2.817  0.4243 -1.0393 -1.2072
10915TIP3    H254237   5.388   2.494   2.676 -1.0910  0.6182 -0.5032
10916TIP3   OH254238   0.900   5.250  11.109  0.3325  0.7023 -0.3693
10916TIP3    H154239   0.908   5.282  11.019  0.1572  0.1925 -0.5666
10916TIP3    H254240   0.954   5.171  11.111  0.4124  0.7663  0.0028
10917TIP3   OH254241   3.778   2.677   4.135 -0.1436  0.1649  0.2414
10917TIP3    H154242   3.813   2.763   4.160  1.2778  0.2163 -1.6517
10917TIP3    H254243   3.852   2.617   4.146 -0.9653 -0.7466  1.0028
10918TIP3   OH254244   0.648   2.968   0.297  0.8675  0.1887 -0.0959
10918TIP3    H154245   0.553   2.966   0.304  0.8041  0.4619 -0.7908
10918TIP3    H254246   0.665   2.966   0.202  1.5437  0.4173  0.0168
10919TIP3   OH254247   3.472   4.899  15.571 -0.1731  0.0636 -0.4608
10919TIP3    H154248   3.414   4.974  15.555 -1.0455 -0.1909  1.2944
10919TIP3    H254249   3.545   4.913  15.511 -1.7011  0.7512 -2.3003
10920TIP3   OH254250   3.035   4.378   3.182 -0.3687 -0.3654  0.5059
10920TIP3    H154251   2.956   4.338   3.219  0.4022 -0.9717  1.5537
10920TIP3    H254252   3.079   4.306   3.137 -1.8572  0.5925 -2.7047
10921TIP3   OH254253   2.442   4.623  14.191  0.0685  0.0334 -0.5241
10921TIP3    H154254   2.529   4.658  14.171  0.6988 -0.2821  1.4150
10921TIP3    H254255   2.458   4.538  14.232 -1.1013  0.2419  0.4503
10922TIP3   OH254256   1.959   4.744   1.113 -0.2124  0.4643  0.1781
10922TIP3    H154257   1.864   4.731   1.119 -0.3807  1.6713  0.2073
10922TIP3    H254258   1.970   4.837   1.096  1.0227  0.6464  1.7700
10923TIP3   OH254259   4.421   3.536  15.094  0.0520 -0.2329  0.1155
10923TIP3    H154260   4.483   3.597  15.134  0.6406  0.0220 -1.1447
10923TIP3    H254261   4.339   3.586  15.087 -0.5294 -0.7547  2.3119
10924TIP3   OH254262   2.551   0.656   3.095  0.3614  0.2376  0.4243
10924TIP3    H154263   2.564   0.734   3.042 -0.6404 -0.9718 -1.7500
10924TIP3    H254264   2.458   0.635   3.084  0.3353 -0.5946  1.9527
10925TIP3   OH254265   2.132   1.683  12.737  0.2363 -0.0212  0.0728
10925TIP3    H154266   2.154   1.744  12.666  0.5311  1.2022  1.1705
10925TIP3    H254267   2.213   1.636  12.753  0.6362  0.8498  0.6683
10926TIP3   OH254268   0.955   1.388  11.148 -0.5127  0.2761 -0.2491
10926TIP3    H154269   1.019   1.328  11.186 -1.7823 -0.8303  0.2375
10926TIP3    H254270   0.967   1.379  11.054  0.4136  0.5088 -0.1658
10927TIP3   OH254271   2.617   6.159  12.797  0.1165  0.4967 -0.0247
10927TIP3    H154272   2.653   6.224  12.858  0.4033 -0.3247  0.7138
10927TIP3    H254273   2.690   6.138  12.739 -0.1432  1.2460 -0.6349
10928TIP3   OH254274   1.058   1.724   2.594  0.2471 -0.1650 -0.0838
10928TIP3    H154275   1.027   1.639   2.624  1.5191 -0.3669  0.7441
10928TIP3    H254276   1.109   1.705   2.515 -1.7194  0.1771 -1.5074
10929TIP3   OH254277   3.343   0.843   5.171  0.0075 -0.7594  0.6280
10929TIP3    H154278   3.256   0.876   5.194 -0.4028 -1.5248  0.2157
10929TIP3    H254279   3.350   0.760   5.217  0.3621 -0.8869  0.3502
10930TIP3   OH254280   5.233   4.352  17.047  0.4899  0.7893  0.3338
10930TIP3    H154281   5.291   4.358  17.123 -0.4466  0.0320  1.1401
10930TIP3    H254282   5.166   4.289  17.073  0.2202  0.4160 -1.1883
10931TIP3   OH254283   2.389   1.847   1.126 -0.1232  0.3624 -0.0945
10931TIP3    H154284   2.365   1.863   1.218 -1.1007 -0.9219 -0.1041
10931TIP3    H254285   2.330   1.777   1.098  0.6927  0.2105 -1.4813
10932TIP3   OH254286   3.787   5.011   1.750  0.1209 -0.1167 -0.0225
10932TIP3    H154287   3.715   4.948   1.747 -0.2702  0.3462 -2.4547
10932TIP3    H254288   3.749   5.089   1.788  0.5094 -1.1512  2.6623
10933TIP3   OH254289   3.943   1.697   4.084 -0.0712  0.9027  0.3281
10933TIP3    H154290   3.950   1.746   4.002  0.0246  2.1861  1.0775
10933TIP3    H254291   3.853   1.663   4.084 -0.1482  1.1050 -0.1827
10934TIP3   OH254292   1.757   3.842   5.052  0.3498  0.3061 -0.0678
10934TIP3    H154293   1.697   3.874   4.986  0.8440  1.1926 -0.1068
10934TIP3    H254294   1.822   3.791   5.003 -0.5059 -0.8898  0.0080
10935TIP3   OH254295   1.111   1.444   6.379  0.1096 -0.0147 -0.3987
10935TIP3    H154296   1.059   1.365   6.368 -0.4203  0.2638  0.0096
10935TIP3    H254297   1.105   1.464   6.473 -0.4726  0.9736 -0.6296
10936TIP3   OH254298   2.593   6.452  12.522  0.2656  0.2907 -0.1147
10936TIP3    H154299   2.612   6.449  12.428 -0.8609  1.7523 -0.4279
10936TIP3    H254300   2.498   6.441  12.528  0.2724  0.6486  0.8152
10937TIP3   OH254301   4.433   6.661   4.857 -0.0839 -0.0583  0.2321
10937TIP3    H154302   4.369   6.662   4.927  0.8750  1.7841  1.1529
10937TIP3    H254303   4.497   6.728   4.881  2.0212 -1.5482 -0.7934
10938TIP3   OH254304   1.250   1.429  14.382  0.1580  0.3288 -0.0742
10938TIP3    H154305   1.274   1.441  14.290  0.0983  0.2368 -0.1014
10938TIP3    H254306   1.169   1.479  14.392  1.3540  2.2846  0.4845
10939TIP3   OH254307   1.643   2.642   0.932 -0.1032  0.6450  0.5988
10939TIP3    H154308   1.569   2.596   0.971 -0.7919 -0.3908 -1.7198
10939TIP3    H254309   1.716   2.580   0.939  0.7949  1.8550  3.3315
10940TIP3   OH254310   6.421   5.134   0.711  0.2099  0.1207  0.1193
10940TIP3    H154311   6.373   5.216   0.720  2.2790  1.3812  0.5592
10940TIP3    H254312   6.495   5.157   0.654 -0.4834 -2.1157 -1.8228
10941TIP3   OH254313   2.419   4.952   4.062 -0.0349 -0.0380 -0.3490
10941TIP3    H154314   2.498   4.908   4.029  2.1667  3.2715 -0.0114
10941TIP3    H254315   2.416   4.929   4.154  0.0959 -0.7990 -0.5309
10942TIP3   OH254316   5.375   4.447   1.873  0.2572  0.6063 -0.0675
10942TIP3    H154317   5.468   4.435   1.851  0.1605  0.0003 -0.1646
10942TIP3    H254318   5.361   4.392   1.949 -0.1572  0.2579 -0.3934
10943TIP3   OH254319   4.223   5.081  14.933 -0.5997  0.0015 -0.3408
10943TIP3    H154320   4.196   4.993  14.962  0.8848  0.2292  2.0428
10943TIP3    H254321   4.144   5.135  14.942 -0.8494 -0.5309  0.7891
10944TIP3   OH254322   5.421   6.341   5.050  0.5676  0.4004 -0.5732
10944TIP3    H154323   5.329   6.331   5.025  0.6212 -0.0139 -0.6127
10944TIP3    H254324   5.423   6.319   5.143  0.3098  2.2804 -0.0903
10945TIP3   OH254325   1.273   5.498   1.828 -0.7749 -0.2138 -0.0206
10945TIP3    H154326   1.255   5.419   1.778  0.9137 -0.2538 -0.6388
10945TIP3    H254327   1.220   5.566   1.787  1.5603  0.0664 -2.8690
10946TIP3   OH254328   6.360   2.385  14.030 -0.3237 -0.2204 -0.1590
10946TIP3    H154329   6.307   2.449  14.077 -0.0842 -1.5764  2.0755
10946TIP3    H254330   6.385   2.430  13.949  0.5180  2.8366  1.6500
10947TIP3   OH254331   5.620   1.245   2.923  0.0796  0.2572  0.0569
10947TIP3    H154332   5.623   1.293   3.006  0.3098 -1.9941  1.4119
10947TIP3    H254333   5.528   1.222   2.911  0.1045  0.2536 -0.1413
10948TIP3   OH254334   3.337   4.836  12.977 -0.0693  0.2360 -1.0292
10948TIP3    H154335   3.363   4.920  13.015 -0.7511  0.4075 -0.9359
10948TIP3    H254336   3.246   4.825  13.004  0.2593 -0.9321 -0.3092
10949TIP3   OH254337   3.432   5.518   3.346  0.6370  0.1996  0.2340
10949TIP3    H154338   3.455   5.441   3.398 -0.9413 -0.4658 -0.0061
10949TIP3    H254339   3.474   5.503   3.261  0.4800 -0.3064  0.2442
10950TIP3   OH254340   2.006   2.535   0.730 -0.4669  0.3020  0.0536
10950TIP3    H154341   1.953   2.544   0.651 -0.6906  0.0869  0.1762
10950TIP3    H254342   1.960   2.468   0.781  0.6666 -0.8912 -0.4502
10951TIP3   OH254343   2.707   1.162  11.963  0.2056  0.1946  0.0869
10951TIP3    H154344   2.668   1.093  11.908 -1.2016 -0.0121  1.2980
10951TIP3    H254345   2.684   1.137  12.052  0.2220  1.9119  0.5937
10952TIP3   OH254346   4.454   5.404  15.832 -0.5802 -0.0466  0.6371
10952TIP3    H154347   4.364   5.390  15.802 -0.6536  0.6551  0.5298
10952TIP3    H254348   4.500   5.438  15.755 -0.1736 -0.5542  0.6432
10953TIP3   OH254349   3.937   0.562  11.881 -0.1139  0.1446 -0.1597
10953TIP3    H154350   3.970   0.532  11.966 -1.2807 -0.2884  0.1642
10953TIP3    H254351   3.864   0.619  11.902  2.3632  3.8714 -0.7396
10954TIP3   OH254352   4.901   6.678   4.091 -0.6405 -0.1062  0.3472
10954TIP3    H154353   4.863   6.690   4.178 -1.8089 -0.2680 -0.1226
10954TIP3    H254354   4.896   6.584   4.075 -0.3078 -0.0942  0.1649
10955TIP3   OH254355   5.414   3.374  14.295  0.6353  0.3847  0.1741
10955TIP3    H154356   5.405   3.406  14.384  0.8859  0.4225  0.1868
10955TIP3    H254357   5.340   3.314  14.283  0.1153  1.0212  0.1211
10956TIP3   OH254358   3.100   0.397   0.092 -0.2390  0.0672  0.4581
10956TIP3    H154359   3.111   0.417  -0.001 -0.2291  0.1561  0.4782
10956TIP3    H254360   3.094   0.301   0.095  1.1625 -0.0493  0.4949
10957TIP3   OH254361   3.275   2.499  14.774 -0.0688 -0.2464  0.2171
10957TIP3    H154362   3.213   2.530  14.708 -0.3297  1.7759  1.3500
10957TIP3    H254363   3.272   2.403  14.766 -2.8212 -0.2045 -0.2503
10958TIP3   OH254364   1.895   3.798   0.732  0.8540 -0.0817 -0.0039
10958TIP3    H154365   1.978   3.753   0.744  0.1814 -1.0828  1.1708
10958TIP3    H254366   1.839   3.764   0.802 -0.4345  0.8229 -0.5523
10959TIP3   OH254367   4.170   0.584   0.039 -0.3785 -0.0150  1.0651
10959TIP3    H154368   4.254   0.602   0.081  0.6523 -2.4300  0.2656
10959TIP3    H254369   4.120   0.664   0.050  2.5318  2.0870  0.3469
10960TIP3   OH254370   0.535   1.936   2.050  0.9854 -0.0416 -0.2118
10960TIP3    H154371   0.553   2.009   2.108  1.0884  0.2472 -0.6050
10960TIP3    H254372   0.597   1.946   1.978  0.3164  0.0781 -0.7882
10961TIP3   OH254373   4.449   0.331  15.810 -0.2037  0.3792 -0.1846
10961TIP3    H154374   4.396   0.409  15.827  1.7511  1.4265  1.6454
10961TIP3    H254375   4.405   0.262  15.860 -1.2449  0.5794 -0.7869
10962TIP3   OH254376   1.455   0.554  14.498 -0.2424  0.4576 -0.0082
10962TIP3    H154377   1.429   0.465  14.475 -1.0349  1.2496 -2.4648
10962TIP3    H254378   1.384   0.585  14.555 -0.6350 -0.0481 -0.2105
10963TIP3   OH254379   5.639   3.832   1.622 -0.2409  0.5457 -0.4488
10963TIP3    H154380   5.551   3.860   1.598 -0.4341 -0.4499 -0.9578
10963TIP3    H254381   5.664   3.768   1.555 -0.0159 -0.8337  0.8717
10964TIP3   OH254382   0.756   2.770   1.044 -0.6540  0.2214  0.0681
10964TIP3    H154383   0.690   2.710   1.012 -1.0970  0.5245  0.4115
10964TIP3    H254384   0.839   2.727   1.025 -0.9738 -0.7733  0.8513
10965TIP3   OH254385   0.666   3.734   2.545  0.2222 -0.5513 -0.1861
10965TIP3    H154386   0.670   3.643   2.576  0.4942 -0.2592  0.6758
10965TIP3    H254387   0.601   3.733   2.475  0.2365 -1.4135 -0.2007
10966TIP3   OH254388   2.646   0.563   4.125  0.0228 -0.2287 -0.1658
10966TIP3    H154389   2.625   0.630   4.060  1.2813 -0.9332 -1.3609
10966TIP3    H254390   2.603   0.484   4.092  0.0669 -0.4317  0.2577
10967TIP3   OH254391   4.939   2.277  12.954  0.4317  0.5822  0.6229
10967TIP3    H154392   4.917   2.231  13.035 -0.5120  2.1829  1.3285
10967TIP3    H254393   4.958   2.367  12.982  0.5882  1.0429 -0.8770
10968TIP3   OH254394   4.510   1.098  16.109 -0.3377  0.2217 -0.0646
10968TIP3    H154395   4.523   1.076  16.202  1.6076  0.0119 -0.3471
10968TIP3    H254396   4.439   1.162  16.110 -0.3344  0.2525  1.5726
10969TIP3   OH254397   5.270   4.284   5.817 -0.5402  0.1415 -0.2389
10969TIP3    H154398   5.254   4.241   5.733 -1.6848  0.2828 -0.1067
10969TIP3    H254399   5.365   4.300   5.818  0.3650 -4.0350  0.5166
10970TIP3   OH254400   3.893   5.240  12.243  0.1100  0.0269  0.4665
10970TIP3    H154401   3.891   5.333  12.263 -2.5151  0.5520 -1.6676
10970TIP3    H254402   3.884   5.235  12.148  1.2047 -2.4065  0.4177
10971TIP3   OH254403   2.069   4.560  11.501 -0.0696 -0.5998 -0.7170
10971TIP3    H154404   2.092   4.650  11.476  0.3436 -0.1951  0.9883
10971TIP3    H254405   2.151   4.511  11.493  1.0508  0.3107  3.0032
10972TIP3   OH254406   1.217   4.626  16.199 -0.3660  0.2088 -0.0844
10972TIP3    H154407   1.128   4.661  16.191  0.3589  1.9917 -0.7811
10972TIP3    H254408   1.244   4.650  16.288 -0.8054 -0.9822  0.3972
10973TIP3   OH254409   1.766   2.205   5.671  0.4825  0.0499  0.0968
10973TIP3    H154410   1.702   2.140   5.643 -1.5397  1.5513  1.0352
10973TIP3    H254411   1.813   2.163   5.744 -2.2679  0.2898  2.1600
10974TIP3   OH254412   5.994   0.477  13.772 -0.4499 -0.3743 -0.2782
10974TIP3    H154413   5.958   0.413  13.834 -1.1364  0.2433 -0.0266
10974TIP3    H254414   5.954   0.560  13.797  0.7222  0.2386 -0.3624
10975TIP3   OH254415   3.652   0.060   3.261  0.5110 -0.3177  0.1395
10975TIP3    H154416   3.747   0.056   3.246  0.3255 -0.8447 -0.9288
10975TIP3    H254417   3.613   0.028   3.180 -0.5489 -2.6574  1.4946
10976TIP3   OH254418   0.262   2.755   4.444  0.3232 -0.1131  0.0052
10976TIP3    H154419   0.180   2.798   4.418  0.6043  0.4224 -0.0202
10976TIP3    H254420   0.275   2.782   4.535  0.1069 -0.7800  0.2374
10977TIP3   OH254421   1.557   0.657  16.169  0.0683  0.2687  0.1858
10977TIP3    H154422   1.495   0.604  16.220  1.3819  0.4519  2.0796
10977TIP3    H254423   1.596   0.716  16.234  0.2737  2.0357 -1.4610
10978TIP3   OH254424   1.100   0.104   2.335  0.0597  0.1303 -0.3066
10978TIP3    H154425   1.131   0.026   2.289  2.1111  0.8777 -0.3474
10978TIP3    H254426   1.111   0.083   2.428  0.0211  0.1331 -0.3017
10979TIP3   OH254427   3.779   4.725  16.051  0.0205 -0.5474 -0.0267
10979TIP3    H154428   3.823   4.810  16.048 -0.0566 -0.4795  0.6222
10979TIP3    H254429   3.782   4.693  15.960 -1.4628  0.9125 -0.6244
10980TIP3   OH254430   1.080   5.035  15.464  0.4087 -0.4578 -0.4445
10980TIP3    H154431   1.114   5.056  15.376 -0.0110 -0.9515 -0.7251
10980TIP3    H254432   1.059   4.942  15.460 -1.0329 -0.1577 -0.2946
10981TIP3   OH254433   3.663   3.394   2.639  0.3764 -0.3211  0.3032
10981TIP3    H154434   3.572   3.381   2.667  0.0887  0.5326 -0.1780
10981TIP3    H254435   3.670   3.488   2.624  0.1994 -0.7494 -3.3653
10982TIP3   OH254436   1.669   4.290  13.183  0.5463 -0.3982  0.2814
10982TIP3    H154437   1.580   4.286  13.217  0.5707 -0.0492  0.3946
10982TIP3    H254438   1.723   4.249  13.251  0.3904 -1.2652 -0.1055
10983TIP3   OH254439   4.177   1.497   6.418 -0.5802  0.2825  0.3161
10983TIP3    H154440   4.123   1.420   6.435  1.0038 -1.3390 -1.4712
10983TIP3    H254441   4.241   1.497   6.489  1.1578 -1.8128 -1.1203
10984TIP3   OH254442   2.633   3.797  11.558 -0.7524 -0.1487 -0.3307
10984TIP3    H154443   2.611   3.763  11.471 -0.9709  0.9572 -0.7269
10984TIP3    H254444   2.575   3.872  11.569 -0.8259 -0.3647  0.8436
10985TIP3   OH254445   6.239   4.298  14.071  0.0107 -0.1097  0.5468
10985TIP3    H154446   6.209   4.376  14.117  0.3940 -0.3818  1.2611
10985TIP3    H254447   6.308   4.262  14.126 -0.1472 -0.9479  0.2170
10986TIP3   OH254448   2.374   4.366   0.297 -0.7865  0.4477 -0.0598
10986TIP3    H154449   2.398   4.328   0.382 -3.5941  0.7785  0.9896
10986TIP3    H254450   2.412   4.454   0.299 -1.9720  0.9766  1.5222
10987TIP3   OH254451   5.298   2.675   4.759  0.1061  0.2212 -0.2247
10987TIP3    H154452   5.358   2.707   4.692 -1.3985 -1.7564 -2.6924
10987TIP3    H254453   5.222   2.732   4.753  0.4716  0.8349  0.7540
10988TIP3   OH254454   5.743   0.590  12.416 -0.0954  0.0952 -0.4916
10988TIP3    H154455   5.688   0.532  12.363  0.4124 -1.3717  0.5169
10988TIP3    H254456   5.826   0.594  12.369 -0.3245  0.5112 -0.8718
10989TIP3   OH254457   2.638   2.035  14.601 -0.6385  0.0399  0.2309
10989TIP3    H154458   2.592   1.953  14.617 -0.6721 -0.2754 -1.3097
10989TIP3    H254459   2.715   2.010  14.549  1.2118  0.5749  2.5527
10990TIP3   OH254460   3.455   2.290   3.422 -0.5923  0.3337  0.1706
10990TIP3    H154461   3.379   2.319   3.472 -0.2087  0.3461  0.7543
10990TIP3    H254462   3.466   2.357   3.354 -0.8862  0.5175  0.3032
10991TIP3   OH254463   5.322   5.942   4.861 -0.3077 -0.4678 -0.0924
10991TIP3    H154464   5.306   6.030   4.826  1.6803  0.6282  1.5118
10991TIP3    H254465   5.262   5.935   4.935 -0.1815 -0.2735  0.0307
10992TIP3   OH254466   1.809   6.704  12.232  0.0938  0.0251  0.1059
10992TIP3    H154467   1.718   6.680  12.213  0.6101 -0.5914 -1.7901
10992TIP3    H254468   1.827   6.664  12.317 -1.5680  0.6539  0.7920
10993TIP3   OH254469   6.376   5.819   1.826 -0.2194  0.4654 -0.3709
10993TIP3    H154470   6.427   5.819   1.745  0.3326  0.0278 -0.0275
10993TIP3    H254471   6.433   5.778   1.890 -1.0251 -0.0957  0.0031
10994TIP3   OH254472   3.411   5.500  10.826 -0.1006  0.2717 -0.1850
10994TIP3    H154473   3.400   5.419  10.875 -0.2862 -0.3135 -1.1643
10994TIP3    H254474   3.505   5.519  10.831 -0.2211  0.6518  1.0308
10995TIP3   OH254475   2.817   1.651  15.481 -0.7476  0.1911  0.0285
10995TIP3    H154476   2.729   1.672  15.451 -1.1636 -1.9681 -0.3856
10995TIP3    H254477   2.861   1.736  15.486 -2.3251  1.1522 -1.3723
10996TIP3   OH254478   0.788   6.283  15.749  0.1991  0.2489 -0.3008
10996TIP3    H154479   0.834   6.362  15.721  1.0202 -0.1186 -0.0279
10996TIP3    H254480   0.837   6.253  15.826 -1.4425  0.7257  0.9857
10997TIP3   OH254481   0.414   5.947   0.894 -0.3333  0.1479 -0.0242
10997TIP3    H154482   0.354   6.010   0.856 -3.1231 -1.1214  1.8854
10997TIP3    H254483   0.434   5.886   0.823 -1.2039  0.7217 -0.7735
10998TIP3   OH254484   6.213   3.599  10.933  0.0790 -0.2427  0.3629
10998TIP3    H154485   6.307   3.582  10.923  0.7197  3.4274 -1.8093
10998TIP3    H254486   6.173   3.554  10.859  0.3543 -0.5015  0.3689
10999TIP3   OH254487   4.688   1.238   1.270 -0.9227 -0.1154 -0.6083
10999TIP3    H154488   4.766   1.249   1.324 -1.3948  0.7400 -0.0743
10999TIP3    H254489   4.716   1.261   1.182 -0.6630  0.5731 -0.3547
11000TIP3   OH254490   0.800   1.590  11.161  0.7387 -0.1681  0.0018
11000TIP3    H154491   0.854   1.511  11.155 -0.9637 -1.6180  2.1904
11000TIP3    H254492   0.711   1.558  11.169  0.0605  1.9099  1.8785
11001TIP3   OH254493   0.681   2.540   3.828  0.3947  0.6333  0.0827
11001TIP3    H154494   0.737   2.617   3.836  0.8696  0.0651  2.9568
11001TIP3    H254495   0.629   2.539   3.908 -2.3132 -0.0496 -1.5130
11002TIP3   OH254496   2.815   2.246   5.193 -0.0125 -0.4059  0.0784
11002TIP3    H154497   2.766   2.237   5.275 -0.7816  0.0271 -0.3213
11002TIP3    H254498   2.770   2.188   5.132  0.4938 -0.6459 -0.0649
11003TIP3   OH254499   1.667   1.113  16.325 -0.1831  0.0954  0.0826
11003TIP3    H154500   1.745   1.060  16.343 -1.1455 -1.3036  0.3038
11003TIP3    H254501   1.700   1.187  16.274  0.9691 -1.7109 -1.9737
11004TIP3   OH254502   5.353   6.295  16.716 -0.5211 -0.2077 -0.7441
11004TIP3    H154503   5.280   6.342  16.757 -0.2299  0.0489 -0.5210
11004TIP3    H254504   5.393   6.359  16.657  0.1324 -0.0373 -0.1299
11005TIP3   OH254505   4.528   1.428   0.197 -0.0741  0.3886  0.3705
11005TIP3    H154506   4.572   1.478   0.266  2.0155 -1.7634  0.7402
11005TIP3    H254507   4.496   1.350   0.241 -0.8128  0.0850 -0.6773
11006TIP3   OH254508   4.109   1.042  16.113 -0.0648 -0.1761  0.4062
11006TIP3    H154509   4.043   1.099  16.073  0.6137  0.6682  0.4405
11006TIP3    H254510   4.138   1.092  16.190 -1.0149 -1.5517  1.7191
11007TIP3   OH254511   1.035   4.758  14.145  0.8035  0.2560  0.2352
11007TIP3    H154512   0.951   4.768  14.098  0.9126  0.5810  0.1059
11007TIP3    H254513   1.010   4.721  14.230  0.4568  0.9152  0.4335
11008TIP3   OH254514   2.765   6.495  10.360  0.2750 -0.0622  0.6739
11008TIP3    H154515   2.721   6.413  10.381  2.5429 -0.9891  2.1933
11008TIP3    H254516   2.820   6.475  10.285  0.4129  0.2466  0.6893
11009TIP3   OH254517   4.610   3.671  15.480 -0.1845  0.0513  0.1033
11009TIP3    H154518   4.523   3.710  15.486 -0.0949  0.3955 -0.6856
11009TIP3    H254519   4.603   3.587  15.526 -0.4935  0.7969  1.4630
11010TIP3   OH254520   1.972   6.001   3.901 -0.1955  0.2950  0.0940
11010TIP3    H154521   1.948   6.059   3.973  0.5674 -0.8179  1.3135
11010TIP3    H254522   1.945   5.914   3.931  1.5633 -0.4123 -0.2431
11011TIP3   OH254523   3.809   1.427  16.856  0.3627 -0.0181 -0.1927
11011TIP3    H154524   3.794   1.516  16.824 -3.0512 -0.5049 -0.2725
11011TIP3    H254525   3.866   1.387  16.791  0.1089  1.4306 -1.3513
11012TIP3   OH254526   3.572   0.912  13.066 -0.4050 -0.5941 -0.3877
11012TIP3    H154527   3.592   0.862  12.986  1.1505 -0.0209 -0.3925
11012TIP3    H254528   3.583   1.003  13.040 -0.1736 -0.3904  0.4226
11013TIP3   OH254529   0.258   5.527   1.349  0.0965  0.0625  0.2988
11013TIP3    H154530   0.301   5.612   1.342 -1.7239  0.9328 -0.7987
11013TIP3    H254531   0.305   5.472   1.286 -0.4971  1.0760 -1.0824
11014TIP3   OH254532   3.199   6.625  11.984 -0.1306  0.0433 -0.0975
11014TIP3    H154533   3.215   6.559  11.916  0.4866  0.4895 -0.3894
11014TIP3    H254534   3.225   6.708  11.944 -1.6825  0.5975 -0.0279
11015TIP3   OH254535   2.409   2.365   4.019  0.1792  0.5636 -0.1029
11015TIP3    H154536   2.427   2.415   4.099  1.4039 -0.5734  0.3723
11015TIP3    H254537   2.316   2.379   4.003 -0.4371 -0.2577  2.3096
11016TIP3   OH254538   0.441   3.658   4.934 -1.0613  0.0453  0.3403
11016TIP3    H154539   0.442   3.572   4.975 -0.4437 -0.1396 -0.0469
11016TIP3    H254540   0.504   3.710   4.984 -2.8840  0.8972  1.8438
11017TIP3   OH254541   6.134   4.446  11.956  0.2608 -0.2398  0.5877
11017TIP3    H154542   6.117   4.352  11.951  3.6194 -0.8761 -1.1792
11017TIP3    H254543   6.218   4.454  12.000  2.7913  1.3520 -3.8105
11018TIP3   OH254544   6.694   3.903   5.940  0.2698 -0.2856 -0.1797
11018TIP3    H154545   6.668   3.989   5.974  0.0691 -1.0113  1.5808
11018TIP3    H254546   6.642   3.893   5.860 -0.2247  0.9409 -0.0385
11019TIP3   OH254547   0.688   2.605   0.713  0.0259 -0.0918 -0.2441
11019TIP3    H154548   0.626   2.648   0.654 -0.6492 -0.3691  0.2492
11019TIP3    H254549   0.664   2.636   0.800 -0.1468 -1.0655  0.0641
11020TIP3   OH254550   0.080   3.475   3.640 -0.4890 -0.3447  0.7362
11020TIP3    H154551   0.059   3.386   3.613 -0.9599  0.0210 -0.1373
11020TIP3    H254552   0.173   3.485   3.620 -0.3634 -0.7208  1.0995
11021TIP3   OH254553   5.625   3.907   5.226  0.1392  0.2162  0.0984
11021TIP3    H154554   5.634   3.812   5.232  1.9050  0.2464 -1.2455
11021TIP3    H254555   5.532   3.922   5.212 -0.2538 -1.2576  0.9524
11022TIP3   OH254556   2.415   2.942  12.542  0.0155  0.1095  0.2458
11022TIP3    H154557   2.391   2.849  12.538 -1.3245  0.4645 -1.1754
11022TIP3    H254558   2.431   2.959  12.635 -0.8997 -1.2756  0.6911
11023TIP3   OH254559   1.053   1.681   5.835  0.0863  0.3344 -0.5612
11023TIP3    H154560   1.136   1.724   5.815 -0.0419  0.5669 -0.5879
11023TIP3    H254561   1.013   1.735   5.903  0.2663 -0.1472 -0.0686
11024TIP3   OH254562   4.407   4.232   4.610  0.3304 -0.0241  0.0932
11024TIP3    H154563   4.409   4.141   4.581  0.5973  0.0574 -0.1498
11024TIP3    H254564   4.349   4.276   4.548  1.5626  0.3239 -0.8508
11025TIP3   OH254565   0.979   1.229   2.957 -0.1119  0.3855 -0.1510
11025TIP3    H154566   0.921   1.156   2.982  1.1707 -1.0431 -1.1677
11025TIP3    H254567   0.936   1.269   2.882 -1.0025  0.9344  0.6285
11026TIP3   OH254568   0.945   0.975   3.698  0.1771 -0.2232  0.1015
11026TIP3    H154569   0.955   1.019   3.614  1.6866  2.0570  1.3816
11026TIP3    H254570   0.852   0.984   3.719 -0.0601 -0.1490 -0.9539
11027TIP3   OH254571   4.169   0.709  12.145  0.1960  0.0397 -0.0052
11027TIP3    H154572   4.202   0.632  12.191  0.0208  0.5733  1.0368
11027TIP3    H254573   4.202   0.700  12.056  2.3325  0.0528  0.7433
11028TIP3   OH254574   3.746   5.534   0.724  0.1046  0.2329  0.7191
11028TIP3    H154575   3.807   5.461   0.735 -0.7478 -0.5889  0.1435
11028TIP3    H254576   3.659   5.494   0.732 -0.3743  1.2449  0.7278
11029TIP3   OH254577   4.158   1.691   6.240  0.2238 -0.1873 -0.1036
11029TIP3    H154578   4.157   1.628   6.312  0.8630  0.7148  0.7202
11029TIP3    H254579   4.073   1.736   6.247  0.7944  0.7972  0.9436
11030TIP3   OH254580   2.351   6.262  12.197  0.0781 -0.1698 -0.9033
11030TIP3    H154581   2.291   6.213  12.140 -0.4168  0.5232 -0.9924
11030TIP3    H254582   2.347   6.352  12.163  2.3258 -0.3762 -1.8861
11031TIP3   OH254583   4.309   2.381   2.425 -0.4594  0.4911 -0.1963
11031TIP3    H154584   4.277   2.349   2.509  0.4974 -0.5857 -0.2117
11031TIP3    H254585   4.257   2.334   2.360 -0.3443  0.3820 -0.2102
11032TIP3   OH254586   4.586   4.695   1.511 -0.0239  0.0826 -0.3074
11032TIP3    H154587   4.561   4.767   1.568 -0.1416  0.3655 -0.7118
11032TIP3    H254588   4.680   4.704   1.501 -0.1251  0.5757 -0.8820
11033TIP3   OH254589   0.316   4.712  13.873 -0.3390  0.1228 -0.1449
11033TIP3    H154590   0.262   4.733  13.950 -1.0140  0.3290 -0.6612
11033TIP3    H254591   0.383   4.781  13.872 -1.0055  0.7855 -0.3712
11034TIP3   OH254592   1.835   5.110  11.606 -0.3984  0.1607  0.0380
11034TIP3    H154593   1.850   5.101  11.512 -0.5077 -1.0447  0.1162
11034TIP3    H254594   1.908   5.064  11.646 -1.4720 -1.2056  0.5020
11035TIP3   OH254595   1.552   3.627  16.900  0.3579 -0.5929  0.5492
11035TIP3    H154596   1.589   3.539  16.901  0.7399 -0.4373  0.8483
11035TIP3    H254597   1.464   3.616  16.865  0.4915 -1.0550  0.3409
11036TIP3   OH254598   5.835   5.507   2.683 -0.6891 -0.3579  0.1085
11036TIP3    H154599   5.746   5.481   2.658 -1.1530  1.2558 -0.0507
11036TIP3    H254600   5.892   5.445   2.637 -1.6825 -0.3957 -1.1188
11037TIP3   OH254601   2.107   5.775  12.063  0.2752 -0.1921  0.2104
11037TIP3    H154602   2.030   5.795  12.115 -0.0748 -1.6247  0.2861
11037TIP3    H254603   2.102   5.835  11.989 -1.2871 -0.6767 -0.1297
11038TIP3   OH254604   0.076   4.004   3.750  0.1645  0.5983 -0.0961
11038TIP3    H154605   0.115   4.018   3.664 -0.2058 -1.8991 -0.7570
11038TIP3    H254606   0.001   4.064   3.752  1.1743  1.9448 -0.7596
11039TIP3   OH254607   5.509   2.196   6.791  0.0538 -0.3204  0.4438
11039TIP3    H154608   5.527   2.119   6.736 -0.5429 -1.5476  1.8807
11039TIP3    H254609   5.594   2.236   6.805  0.8403 -2.2913  1.8367
11040TIP3   OH254610   2.979   6.604  13.600 -0.1760  0.2471  0.4456
11040TIP3    H154611   2.899   6.619  13.649 -1.0681  0.9637 -1.1776
11040TIP3    H254612   2.991   6.683  13.548  0.8460 -0.4033 -0.3417
11041TIP3   OH254613   3.957   2.963  16.694  0.0241  0.0406 -0.1994
11041TIP3    H154614   3.991   3.014  16.768 -0.4515 -0.1230  0.1381
11041TIP3    H254615   3.864   2.955  16.711  0.0073 -0.5083 -0.5155
11042TIP3   OH254616   5.632   6.062   4.421 -0.0153  0.1223  0.3798
11042TIP3    H154617   5.622   6.065   4.517  0.0224  0.2873  0.3794
11042TIP3    H254618   5.543   6.048   4.389  0.3936 -4.6715  0.5873
11043TIP3   OH254619   2.927   1.833  14.609 -0.1420  0.2129 -0.0218
11043TIP3    H154620   2.881   1.858  14.529 -1.9147  1.0609  1.1581
11043TIP3    H254621   2.884   1.753  14.638 -0.3389  0.5546  0.6686
11044TIP3   OH254622   3.962   3.612  14.330 -0.2475 -0.1608 -0.2654
11044TIP3    H154623   4.029   3.572  14.275 -0.0593  0.3131 -0.3838
11044TIP3    H254624   3.934   3.541  14.389  0.4035 -0.3432 -0.1687
11045TIP3   OH254625   6.377   2.238   0.462 -0.2919  0.0823  0.3883
11045TIP3    H154626   6.388   2.240   0.367  0.0882  1.3957  0.4473
11045TIP3    H254627   6.357   2.146   0.482  1.5422 -0.6109 -0.7422
11046TIP3   OH254628   2.103   6.766  16.961 -0.0342  0.0701 -0.2159
11046TIP3    H154629   2.027   6.821  16.940 -1.2724 -0.8920  1.4939
11046TIP3    H254630   2.173   6.800  16.905 -0.8676  3.0222  0.3705
11047TIP3   OH254631   0.110   6.303  15.674  0.0736  0.2241  0.3456
11047TIP3    H154632   0.181   6.360  15.646 -0.8335  1.1771 -0.0855
11047TIP3    H254633   0.053   6.295  15.597  0.7661 -2.2879 -0.0241
11048TIP3   OH254634   6.731   6.612   2.755  0.1264  0.0552 -0.0518
11048TIP3    H154635   6.690   6.693   2.788 -1.3748 -1.2732  1.5195
11048TIP3    H254636   6.795   6.589   2.822 -0.3630 -0.7355  0.1475
11049TIP3   OH254637   5.602   3.431   5.396 -0.4113  0.1487  0.0551
11049TIP3    H154638   5.626   3.508   5.447 -0.0827 -0.6575  1.1800
11049TIP3    H254639   5.506   3.429   5.399 -0.4134  0.3950  0.1972
11050TIP3   OH254640   4.333   3.101   4.818 -0.1331 -0.0608 -0.2477
11050TIP3    H154641   4.268   3.037   4.790 -1.0062 -0.5050  2.5164
11050TIP3    H254642   4.357   3.147   4.738 -5.5760  1.7173 -1.2957
11051TIP3   OH254643   5.829   0.197   3.953 -0.0279  0.1050 -0.5031
11051TIP3    H154644   5.765   0.248   3.904 -0.3095 -1.3402 -1.7117
11051TIP3    H254645   5.781   0.164   4.028 -0.7210 -0.9444 -1.3833
11052TIP3   OH254646   0.042   6.531  16.302  0.3758 -0.3401  0.5480
11052TIP3    H154647   0.054   6.621  16.333 -0.6294 -0.1880  0.5507
11052TIP3    H254648  -0.022   6.493  16.363  0.6244 -0.9849  0.4138
11053TIP3   OH254649   4.145   2.324   0.951 -0.4807  0.3161  0.8052
11053TIP3    H154650   4.223   2.379   0.956  0.2618 -0.7509  1.4268
11053TIP3    H254651   4.128   2.297   1.041  0.2366 -1.8618  0.3605
11054TIP3   OH254652   4.232   4.440  11.211 -0.3661  0.1340  0.0756
11054TIP3    H154653   4.307   4.458  11.267 -1.0691 -0.4736  1.2489
11054TIP3    H254654   4.243   4.499  11.137  1.8441 -0.7047 -0.3518
11055TIP3   OH254655   0.963   5.520   1.907 -0.0429 -0.2845 -0.1746
11055TIP3    H154656   1.002   5.533   1.821  0.6777  0.5430  0.2633
11055TIP3    H254657   0.869   5.525   1.892  0.0487  4.0542 -0.3620
11056TIP3   OH254658   1.383   6.118   4.700  0.0444 -0.4882  0.0138
11056TIP3    H154659   1.394   6.209   4.727  0.2857 -0.0213 -1.5631
11056TIP3    H254660   1.472   6.082   4.698  0.2369 -0.0261 -1.6745
11057TIP3   OH254661   6.414   3.104   2.391  0.3030  0.0062  0.2479
11057TIP3    H154662   6.498   3.061   2.377  0.5858  0.3455  0.8443
11057TIP3    H254663   6.435   3.185   2.438 -0.4274 -0.3934  1.3275
11058TIP3   OH254664   4.869   4.982  14.674  0.5377  0.3803  0.5881
11058TIP3    H154665   4.926   5.011  14.746  2.6376 -1.9190 -0.0153
11058TIP3    H254666   4.918   5.005  14.595 -0.1946 -0.0875 -0.0054
11059TIP3   OH254667   2.217   2.730  17.116  0.1332 -0.0224  0.4204
11059TIP3    H154668   2.234   2.698  17.205  1.9056 -0.5886 -0.0675
11059TIP3    H254669   2.296   2.705  17.067 -0.7256  0.4503 -1.2628
11060TIP3   OH254670   4.737   4.231   5.147  0.1127 -0.2828  0.3379
11060TIP3    H154671   4.650   4.218   5.109 -0.2317  1.3131  0.5178
11060TIP3    H254672   4.786   4.276   5.078  0.4450 -0.1758  0.6430
11061TIP3   OH254673   2.719   0.526  10.856 -0.2623  0.7343  0.0646
11061TIP3    H154674   2.629   0.539  10.886  0.3744  1.1862  1.9027
11061TIP3    H254675   2.745   0.443  10.896  0.2887  0.8485 -0.0530
11062TIP3   OH254676   4.047   6.324  16.174  0.9150  0.2774 -0.1387
11062TIP3    H154677   3.970   6.341  16.228  1.3365 -2.5738  1.5854
11062TIP3    H254678   4.022   6.353  16.086 -2.1398 -0.5108  0.3541
11063TIP3   OH254679   4.631   4.232  14.350  0.0559 -0.1094 -0.1283
11063TIP3    H154680   4.683   4.201  14.425 -0.5224 -0.1049  0.2826
11063TIP3    H254681   4.618   4.154  14.297  1.1227  0.0351 -0.6379
11064TIP3   OH254682   2.309   5.161   6.044 -0.4615  0.4741 -0.0998
11064TIP3    H154683   2.355   5.218   5.982  0.0219  0.9649  0.7042
11064TIP3    H254684   2.225   5.206   6.059 -0.4374  0.5286 -0.1264
11065TIP3   OH254685   4.922   3.676  13.778  0.4377 -0.3598  0.3093
11065TIP3    H154686   4.864   3.639  13.844  1.6287 -1.8818  0.5365
11065TIP3    H254687   4.993   3.716  13.828  0.1919  0.4948 -0.0035
11066TIP3   OH254688   0.360   0.570   4.782 -0.2179  0.0551  0.7037
11066TIP3    H154689   0.374   0.605   4.870  0.5655  0.9120  0.2573
11066TIP3    H254690   0.372   0.645   4.724  1.0731 -0.8336 -0.2592
11067TIP3   OH254691   3.172   2.706  14.944 -0.1576 -0.1029  0.2222
11067TIP3    H154692   3.208   2.776  14.891 -1.6968 -1.5589 -3.0691
11067TIP3    H254693   3.223   2.628  14.920 -0.9110 -0.8405  0.8967
11068TIP3   OH254694   1.554   3.556  13.963  0.1551 -0.3695  0.3157
11068TIP3    H154695   1.620   3.508  14.014  2.1298  0.5733 -1.2493
11068TIP3    H254696   1.558   3.517  13.876  1.6595  2.3266 -0.9559
11069TIP3   OH254697   5.650   3.151  11.596  0.8135  0.6422  0.2513
11069TIP3    H154698   5.691   3.108  11.671  1.1272  2.6592  1.2975
11069TIP3    H254699   5.557   3.158  11.620  0.3241 -1.2904 -0.8538
11070TIP3   OH254700   2.214   4.122  17.100  0.3620 -0.4379  0.3155
11070TIP3    H154701   2.243   4.204  17.061 -1.0699  0.6126  1.3676
11070TIP3    H254702   2.274   4.056  17.064  1.1551  0.9520 -1.0251
11071TIP3   OH254703   2.147   5.224  16.028  0.4355  0.4147 -0.5089
11071TIP3    H154704   2.190   5.266  16.103 -0.3536 -0.3176  0.3703
11071TIP3    H254705   2.198   5.253  15.953  2.6026 -0.5556  0.4967
11072TIP3   OH254706   0.174   4.433   4.962 -0.3368 -0.1537  0.1697
11072TIP3    H154707   0.182   4.367   5.031  2.3011  1.2581  1.3793
11072TIP3    H254708   0.203   4.389   4.882  0.2656 -0.7813  0.7286
11073TIP3   OH254709   4.017   2.177   5.799  0.3190  0.1930  0.8100
11073TIP3    H154710   3.992   2.183   5.707  0.1509  0.6542  0.8856
11073TIP3    H254711   3.957   2.236   5.844 -0.5712 -1.1093  1.4112
11074TIP3   OH254712   5.976   5.018  12.980  0.3986 -0.3203  0.5047
11074TIP3    H154713   5.884   5.042  12.970  0.1180 -0.9352  1.4644
11074TIP3    H254714   6.016   5.094  13.021  0.0625 -0.4847  1.1568
11075TIP3   OH254715   1.757   1.831  15.948 -0.1227 -0.9209 -0.3875
11075TIP3    H154716   1.812   1.904  15.977 -0.2736 -1.6721  2.0961
11075TIP3    H254717   1.731   1.853  15.859 -0.8406  2.4672  0.5263
11076TIP3   OH254718   3.265   3.513   4.955 -0.2987  0.2801 -0.0573
11076TIP3    H154719   3.337   3.478   4.903 -0.9563 -0.6815 -0.3447
11076TIP3    H254720   3.247   3.599   4.917  1.3256  0.9684  0.6467
11077TIP3   OH254721   0.076   2.530  16.479  0.6571  0.3176 -0.3365
11077TIP3    H154722   0.112   2.445  16.504 -1.3461 -0.6674 -0.5469
11077TIP3    H254723   0.092   2.586  16.555  1.0388 -0.5732  0.2600
11078TIP3   OH254724   5.038   1.527  16.452  0.1961  0.7015 -0.3876
11078TIP3    H154725   5.105   1.557  16.514  0.6525 -0.6941 -0.1666
11078TIP3    H254726   5.041   1.590  16.381  1.8708  0.6000 -0.4499
11079TIP3   OH254727   5.544   3.569   2.302  0.6642  0.2550  0.5754
11079TIP3    H154728   5.453   3.597   2.294  1.0357  1.8056  1.2808
11079TIP3    H254729   5.580   3.580   2.214 -0.1387 -1.6835 -0.0360
11080TIP3   OH254730   3.409   2.182  15.795 -0.6857  0.2091 -0.0843
11080TIP3    H154731   3.346   2.130  15.745 -2.1552  2.1111 -0.3319
11080TIP3    H254732   3.453   2.236  15.730  1.7766 -1.5683  0.0039
11081TIP3   OH254733   5.302   0.517   0.345  0.0664 -0.3782 -0.5245
11081TIP3    H154734   5.367   0.573   0.386 -2.0385  2.5324 -0.8024
11081TIP3    H254735   5.338   0.496   0.259  2.2135 -2.1435  0.6966
11082TIP3   OH254736   3.220   4.825  13.536  0.6257  0.1782  0.2799
11082TIP3    H154737   3.141   4.851  13.585  0.3602 -1.9206  1.0939
11082TIP3    H254738   3.288   4.817  13.603  1.4297  1.4959 -0.3512
11083TIP3   OH254739   6.808   1.164   1.084 -0.4618  0.3838 -0.1682
11083TIP3    H154740   6.895   1.165   1.043 -0.4039  0.9365 -0.0402
11083TIP3    H254741   6.758   1.101   1.032  0.3824 -0.9289  0.5354
11084TIP3   OH254742   3.707   5.895   2.181 -0.1247 -0.6953  0.4019
11084TIP3    H154743   3.699   5.805   2.151  2.6218 -1.4029  1.4165
11084TIP3    H254744   3.674   5.948   2.109  0.2232 -2.4647 -1.1270
11085TIP3   OH254745   0.392   5.003  13.247  0.1921  0.0304 -0.2118
11085TIP3    H154746   0.486   4.997  13.234  0.1747  0.1294 -0.3761
11085TIP3    H254747   0.355   4.938  13.187  0.1296  0.2885 -0.4521
11086TIP3   OH254748   2.899   4.486   4.359 -0.1403  0.3671  0.4146
11086TIP3    H154749   2.859   4.518   4.278  0.4774  1.6010  0.5763
11086TIP3    H254750   2.873   4.394   4.364  0.3773  0.0734 -1.5378
11087TIP3   OH254751   2.111   5.427   2.571 -0.4582 -0.4414 -0.1042
11087TIP3    H154752   2.018   5.410   2.585 -0.6752  1.3138  1.0043
11087TIP3    H254753   2.137   5.367   2.502 -2.2133 -1.5433  0.1325
11088TIP3   OH254754   5.211   6.395  14.785 -0.3484  0.0325  0.0994
11088TIP3    H154755   5.164   6.324  14.742 -1.7635  1.3242 -0.6055
11088TIP3    H254756   5.294   6.357  14.811  0.6712 -0.9181 -3.8371
11089TIP3   OH254757   2.865   1.173   6.404  0.4159 -0.2558 -0.2672
11089TIP3    H154758   2.860   1.078   6.417  1.2201  0.0634  3.4148
11089TIP3    H254759   2.774   1.202   6.407  0.2816 -0.7359  0.7669
11090TIP3   OH254760   2.851   0.276   6.406  0.0601 -0.2472  0.7827
11090TIP3    H154761   2.928   0.322   6.373 -0.1263  0.4009  1.2148
11090TIP3    H254762   2.839   0.202   6.346  0.4512  0.1881  0.1534
11091TIP3   OH254763   3.900   3.265  13.439 -0.6902 -0.0545  0.1924
11091TIP3    H154764   3.930   3.285  13.528  0.4432 -0.5470 -0.0647
11091TIP3    H254765   3.839   3.336  13.418 -0.9194  0.0967  1.3370
11092TIP3   OH254766   2.764   4.795  13.155  0.1229 -0.0530 -0.1695
11092TIP3    H154767   2.833   4.758  13.209  3.1571  2.1418 -2.1855
11092TIP3    H254768   2.726   4.864  13.208  0.4386 -0.3599  0.4704
11093TIP3   OH254769   1.528   0.978  11.767  0.1514  0.1070  0.3297
11093TIP3    H154770   1.519   1.045  11.836 -0.2087  2.1191 -1.5543
11093TIP3    H254771   1.459   0.915  11.786 -0.3758  0.9709  1.4417
11094TIP3   OH254772   0.798   6.775  11.062 -0.2664 -0.0260  0.6595
11094TIP3    H154773   0.822   6.829  10.986  0.4752 -1.1861  0.0251
11094TIP3    H254774   0.796   6.686  11.027  1.3120 -0.7514  2.2494
11095TIP3   OH254775   1.147   1.803   3.900  0.6710 -0.0254  0.1262
11095TIP3    H154776   1.209   1.874   3.916  1.1984 -0.6696  0.9687
11095TIP3    H254777   1.173   1.766   3.816 -1.7099  2.9479 -2.1730
11096TIP3   OH254778   6.781   5.057  15.006  0.4444  0.3319  0.1300
11096TIP3    H154779   6.687   5.043  15.020 -0.1358  2.7972 -0.7752
11096TIP3    H254780   6.817   5.065  15.094 -0.2613 -0.2316  0.4840
11097TIP3   OH254781   1.126   4.682  15.171 -0.1580  0.6926 -0.3861
11097TIP3    H154782   1.088   4.671  15.258 -0.5955 -1.1411 -0.7619
11097TIP3    H254783   1.050   4.689  15.112  0.1083  0.3432 -0.7804
11098TIP3   OH254784   2.500   5.110   5.508  0.0326  0.3239 -0.3221
11098TIP3    H154785   2.415   5.130   5.548 -0.0153  3.0948 -1.5635
11098TIP3    H254786   2.478   5.061   5.429 -0.0449 -2.6358  1.3860
11099TIP3   OH254787   6.395   6.209  15.426  0.6265  0.3253  0.0362
11099TIP3    H154788   6.421   6.292  15.467  1.1651 -0.0243  0.4207
11099TIP3    H254789   6.335   6.235  15.356 -0.8378  0.9195  1.4309
11100TIP3   OH254790   1.523   3.644  16.553  0.1488  0.1621 -0.2014
11100TIP3    H154791   1.499   3.552  16.564 -2.0758  0.5701 -1.0374
11100TIP3    H254792   1.468   3.691  16.615  0.6205  0.9952 -0.4008
11101TIP3   OH254793   1.433   5.901   0.411 -0.1785 -0.4989 -0.2313
11101TIP3    H154794   1.439   5.951   0.492  2.5292 -0.0291 -0.6241
11101TIP3    H254795   1.349   5.925   0.373 -0.1775  1.5945  0.9781
11102TIP3   OH254796   5.793   1.967  11.270 -0.1329 -0.3181  0.3525
11102TIP3    H154797   5.720   1.912  11.298 -1.1309  0.5298 -0.4859
11102TIP3    H254798   5.811   1.939  11.181 -0.6855  0.6986 -0.1061
11103TIP3   OH254799   2.897   0.961  10.955 -0.7656 -0.2985 -0.4793
11103TIP3    H154800   2.892   0.931  11.045 -0.3814 -0.2666 -0.4434
11103TIP3    H254801   2.809   0.950  10.920 -1.0275  0.1146  0.0331
11104TIP3   OH254802   4.018   1.077  11.519 -0.2523  0.0110 -0.0505
11104TIP3    H154803   3.959   1.108  11.450  0.3720  0.6677 -0.2950
11104TIP3    H254804   4.018   0.982  11.509  1.4476  0.1609 -2.3362
11105TIP3   OH254805   3.077   3.533   3.105 -0.1247  1.1536  0.3754
11105TIP3    H154806   3.093   3.448   3.065  0.1112  1.8251 -1.0484
11105TIP3    H254807   3.136   3.592   3.058  3.5977  1.3797  4.6089
11106TIP3   OH254808   4.748   2.085   0.488  0.4065 -0.1866  0.0694
11106TIP3    H154809   4.814   2.095   0.419 -2.3595 -1.0185 -2.9510
11106TIP3    H254810   4.701   2.168   0.489 -0.7577 -0.8109 -0.4541
11107TIP3   OH254811   5.464   6.594  14.151  0.4784 -0.5815 -0.4682
11107TIP3    H154812   5.380   6.624  14.115 -0.2352 -0.1195  1.4221
11107TIP3    H254813   5.515   6.674  14.161 -0.9143  0.0737  3.2911
11108TIP3   OH254814   6.413   2.841   3.878  0.4623  0.2834  0.0801
11108TIP3    H154815   6.497   2.802   3.905  0.2666 -0.3204 -0.1711
11108TIP3    H254816   6.358   2.766   3.855 -0.1759  0.6707  0.3116
11109TIP3   OH254817   5.940   0.209  11.889 -0.3749 -0.1430  0.2395
11109TIP3    H154818   6.029   0.223  11.858 -0.4603 -0.5348 -0.1815
11109TIP3    H254819   5.931   0.114  11.895 -0.7789 -0.1067  0.2371
11110TIP3   OH254820   5.642   5.904   3.131  0.0901  0.4086 -0.0056
11110TIP3    H154821   5.558   5.947   3.121 -0.1771 -0.4060 -1.5388
11110TIP3    H254822   5.690   5.959   3.194 -0.9521  1.8027 -0.3828
11111TIP3   OH254823   2.995   0.798   2.288  0.2495 -0.2213 -0.6862
11111TIP3    H154824   2.943   0.844   2.222 -0.6637 -0.3754 -0.1045
11111TIP3    H254825   2.991   0.706   2.262  0.4975 -0.1971 -0.8125
11112TIP3   OH254826   4.882   2.819  14.573  0.1552 -0.5867  0.6760
11112TIP3    H154827   4.889   2.903  14.527 -0.5043 -0.7298  0.3090
11112TIP3    H254828   4.970   2.804  14.607  1.0303 -1.0443 -1.5628
11113TIP3   OH254829   6.224   3.250   5.600  0.7044  0.1014  0.4768
11113TIP3    H154830   6.182   3.327   5.639  0.6850  0.4381 -0.1940
11113TIP3    H254831   6.176   3.176   5.637 -0.4204  0.4737 -0.1816
11114TIP3   OH254832   6.385   4.719   4.207  0.0335  0.4989 -0.1614
11114TIP3    H154833   6.461   4.770   4.238  0.4672  1.0047 -1.9577
11114TIP3    H254834   6.380   4.738   4.113 -0.4299 -1.9773 -0.6998
11115TIP3   OH254835   1.705   2.894  16.526 -0.4133 -0.3128  0.9239
11115TIP3    H154836   1.613   2.894  16.498 -0.9407 -2.3788  2.3674
11115TIP3    H254837   1.744   2.821  16.478 -0.2426 -1.1519  2.2924
11116TIP3   OH254838   6.801   6.026  10.662  0.2450 -0.0048  0.2284
11116TIP3    H154839   6.772   5.944  10.622  0.2202  0.1746 -0.1335
11116TIP3    H254840   6.893   6.012  10.682  0.2999 -0.0458 -0.0412
11117TIP3   OH254841   1.450   4.739   1.462  0.1415 -0.2423 -0.2940
11117TIP3    H154842   1.490   4.754   1.548  0.9518 -1.2157 -0.4904
11117TIP3    H254843   1.426   4.646   1.463  1.4629 -0.6292 -1.6472
11118TIP3   OH254844   6.261   6.773   0.677  0.1101  0.0255 -0.1166
11118TIP3    H154845   6.326   6.841   0.697  0.0706 -0.1200  0.5261
11118TIP3    H254846   6.193   6.785   0.743  0.3244 -0.9318  0.2965
11119TIP3   OH254847   0.613   2.168   0.792  0.3907 -0.1980  0.3918
11119TIP3    H154848   0.585   2.105   0.726 -2.3185 -0.0438  1.2616
11119TIP3    H254849   0.637   2.115   0.868  2.5419 -0.3201 -0.2978
11120TIP3   OH254850   0.506   1.821   5.658 -0.0324 -0.1316  0.5022
11120TIP3    H154851   0.472   1.791   5.743 -1.0894  0.8563  0.4673
11120TIP3    H254852   0.492   1.916   5.660 -0.9701 -0.1957 -1.1392
11121TIP3   OH254853   4.373   2.865  16.655  0.3196 -0.2048  0.3999
11121TIP3    H154854   4.354   2.954  16.626  2.0548 -0.6461 -2.4609
11121TIP3    H254855   4.287   2.826  16.670 -0.5928  1.1323 -1.0712
11122TIP3   OH254856   6.686   0.571   1.161  0.1223 -0.0837 -0.3173
11122TIP3    H154857   6.596   0.561   1.194  0.4086  1.1395  0.8915
11122TIP3    H254858   6.690   0.512   1.085 -0.8431 -2.3401  1.2755
11123TIP3   OH254859   1.848   5.816  10.351 -0.4633  0.1635 -0.2641
11123TIP3    H154860   1.922   5.855  10.397 -0.7886  0.7086 -0.1988
11123TIP3    H254861   1.872   5.724  10.342  0.0826  0.2707  0.0347
11124TIP3   OH254862   2.421   5.934  11.759 -0.2116 -0.0824 -0.4703
11124TIP3    H154863   2.452   5.989  11.831 -0.9393  0.9267 -0.9105
11124TIP3    H254864   2.329   5.916  11.780 -0.2387 -0.3545 -0.8093
11125TIP3   OH254865   0.319   3.634   3.829  0.5523 -0.2704  0.0562
11125TIP3    H154866   0.411   3.660   3.819  0.2139  1.9067  1.8715
11125TIP3    H254867   0.306   3.627   3.923 -0.9183 -1.5738 -0.2098
11126TIP3   OH254868   5.457   2.247  13.621 -0.3975  0.2936  0.6048
11126TIP3    H154869   5.453   2.290  13.536 -0.1425  1.0616  0.9802
11126TIP3    H254870   5.492   2.313  13.680 -0.4026 -0.2942  1.2732
11127TIP3   OH254871   1.624   6.257  14.490  0.6104  0.6224 -0.0659
11127TIP3    H154872   1.699   6.316  14.493  0.7856  0.5717 -1.9264
11127TIP3    H254873   1.660   6.170  14.510  1.2038  0.5049 -1.4962
11128TIP3   OH254874   5.249   2.349   1.510 -0.0435 -0.0245 -0.1781
11128TIP3    H154875   5.291   2.315   1.588 -1.3181 -1.1434  0.0551
11128TIP3    H254876   5.317   2.347   1.442  0.5889 -0.6595  0.4642
11129TIP3   OH254877   2.933   0.359   4.314 -0.6728 -0.3186 -0.4355
11129TIP3    H154878   3.005   0.366   4.251  1.0182 -0.9342  1.3339
11129TIP3    H254879   2.881   0.286   4.282 -0.4127 -0.0122 -1.6301
11130TIP3   OH254880   1.543   6.227  12.625  0.4498  0.6838  0.5849
11130TIP3    H154881   1.479   6.160  12.648  1.3548 -0.4054  0.0474
11130TIP3    H254882   1.499   6.281  12.558 -1.1878  2.2170  2.7604
11131TIP3   OH254883   5.476   3.382  15.831 -0.2379  0.1611 -0.1915
11131TIP3    H154884   5.536   3.328  15.882 -0.4674 -0.2208 -0.3249
11131TIP3    H254885   5.424   3.428  15.897 -0.1850  0.0571 -0.0776
11132TIP3   OH254886   5.671   0.537  16.131 -0.1525  0.0221 -0.3644
11132TIP3    H154887   5.658   0.460  16.187  0.2177  0.6686  0.6297
11132TIP3    H254888   5.590   0.587  16.140  0.5522  0.9912  1.0019
11133TIP3   OH254889   2.159   2.352   2.017 -0.4289  0.5877 -0.2253
11133TIP3    H154890   2.153   2.436   2.063 -0.0680  1.1921 -1.2553
11133TIP3    H254891   2.251   2.328   2.023 -0.8962 -1.0196  2.2211
11134TIP3   OH254892   2.706   5.980  10.491  0.0660  0.4713 -0.3932
11134TIP3    H154893   2.621   5.994  10.534 -0.4456  0.3180 -1.3346
11134TIP3    H254894   2.714   6.053  10.430  0.8850  0.8015  0.0947
11135TIP3   OH254895   3.686   4.173  13.945  0.0241 -0.0240 -0.7217
11135TIP3    H154896   3.656   4.156  13.856 -2.1148 -1.0781  0.1288
11135TIP3    H254897   3.636   4.250  13.973  0.4956  0.1503 -0.3306
11136TIP3   OH254898   0.640   1.981   0.992  0.9813 -0.2130 -0.1030
11136TIP3    H154899   0.676   1.977   1.081 -1.8932  1.6368  1.3075
11136TIP3    H254900   0.573   1.912   0.991 -1.3266  1.8709  0.4818
11137TIP3   OH254901   2.134   5.883   2.818  0.1226  0.2752  0.1744
11137TIP3    H154902   2.222   5.873   2.782 -0.0044 -1.5126  0.2876
11137TIP3    H254903   2.080   5.907   2.742  0.3070 -0.9440 -0.3567
11138TIP3   OH254904   2.457   4.478  14.488  0.1677  0.0500  0.2636
11138TIP3    H154905   2.539   4.435  14.463 -0.2011  0.2936 -1.5300
11138TIP3    H254906   2.391   4.410  14.480  0.0616  0.0788  0.8442
11139TIP3   OH254907   2.655   4.803   1.258  0.1802  0.2917 -0.4825
11139TIP3    H154908   2.593   4.744   1.215 -0.6515 -0.4627  1.5706
11139TIP3    H254909   2.731   4.748   1.277 -0.6469 -0.2739  1.5504
11140TIP3   OH254910   3.947   2.080   4.478 -0.1599  0.7172 -0.5294
11140TIP3    H154911   3.865   2.031   4.487  0.3291  0.0675  0.7080
11140TIP3    H254912   3.959   2.091   4.384 -0.8440 -0.6111 -0.7913
11141TIP3   OH254913   1.636   6.077   3.619 -0.2222  0.2412  0.0945
11141TIP3    H154914   1.659   6.158   3.574 -1.8657  0.6440 -0.0688
11141TIP3    H254915   1.642   6.010   3.551 -1.2406  0.6242 -0.4040
11142TIP3   OH254916   3.303   4.295   0.295  0.5602 -0.1325 -0.2528
11142TIP3    H154917   3.316   4.352   0.371  1.5644 -0.7494  0.0593
11142TIP3    H254918   3.222   4.327   0.254 -0.4509 -0.3143  1.5263
11143TIP3   OH254919   0.199   4.248   2.720  0.5894  0.2355 -0.0569
11143TIP3    H154920   0.212   4.266   2.627  2.0461  0.5153  0.1775
11143TIP3    H254921   0.249   4.168   2.736 -0.9469 -0.7114  0.1753
11144TIP3   OH254922   5.719   6.333   4.648  0.3077  0.4610  0.2390
11144TIP3    H154923   5.674   6.324   4.732 -0.3028  0.4325 -0.0846
11144TIP3    H254924   5.660   6.290   4.586  0.6310  0.7191 -0.2428
11145TIP3   OH254925   3.694   6.363   4.594  0.0559 -0.8608 -0.2783
11145TIP3    H154926   3.683   6.290   4.654  0.3748 -0.5724  0.1328
11145TIP3    H254927   3.721   6.323   4.512  0.1540 -1.2077 -0.0784
11146TIP3   OH254928   3.295   4.700   3.352  0.2565 -0.7387 -0.0722
11146TIP3    H154929   3.263   4.744   3.274  0.8776 -0.8205 -0.3842
11146TIP3    H254930   3.380   4.663   3.325  0.1645 -1.3436  0.4398
11147TIP3   OH254931   1.312   6.507   2.473  0.6077  0.3432 -0.7856
11147TIP3    H154932   1.301   6.601   2.457 -0.1410  0.3810 -0.1056
11147TIP3    H254933   1.223   6.472   2.468  0.6573 -0.0416  0.7441
11148TIP3   OH254934   2.388   2.051  16.023  0.5162 -0.0160 -0.0491
11148TIP3    H154935   2.299   2.017  16.018  0.5562 -0.0910 -0.2940
11148TIP3    H254936   2.407   2.057  16.117  0.0665  0.5018  0.0103
11149TIP3   OH254937   0.279   4.054   4.553 -0.0098  0.5024  0.8047
11149TIP3    H154938   0.322   4.079   4.471 -0.0854  2.6260  1.3494
11149TIP3    H254939   0.330   3.980   4.585  0.4926  0.1239 -0.7632
11150TIP3   OH254940   4.057   3.016  10.369 -0.1121  0.0869 -0.1358
11150TIP3    H154941   4.125   2.950  10.354 -0.1403 -0.2029  0.9253
11150TIP3    H254942   4.066   3.077  10.296  2.3663  0.9336  0.7711
11151TIP3   OH254943   6.019   4.059   2.680 -0.4469 -0.0650  0.6415
11151TIP3    H154944   5.950   4.016   2.731 -1.2448 -0.3212 -0.5918
11151TIP3    H254945   6.001   4.032   2.590  2.4680 -1.8163  0.4619
11152TIP3   OH254946   1.547   2.968  11.807 -0.2457  0.4836 -0.4096
11152TIP3    H154947   1.510   2.967  11.719 -0.5022  3.2734 -0.4199
11152TIP3    H254948   1.471   2.980  11.865  0.1139  0.7885  0.0066
11153TIP3   OH254949   4.969   0.563  13.260 -0.3738 -0.5211 -0.8689
11153TIP3    H154950   5.004   0.651  13.245  0.1465 -0.7672 -1.1212
11153TIP3    H254951   4.944   0.533  13.172 -0.4895 -0.6481 -0.7917
11154TIP3   OH254952   2.081   3.268  15.026  0.2468  1.0197  0.5229
11154TIP3    H154953   2.144   3.321  14.977  0.4935  2.0654  1.9133
11154TIP3    H254954   2.112   3.272  15.117 -0.1637 -0.9058  0.7944
11155TIP3   OH254955   2.545   1.215  14.652 -0.6313 -0.0087 -0.3422
11155TIP3    H154956   2.560   1.290  14.709 -0.3360 -1.5697  1.7378
11155TIP3    H254957   2.605   1.230  14.578  0.0971  1.3307  0.4622
11156TIP3   OH254958   0.002   4.068  17.026 -0.0162  0.0020  0.5739
11156TIP3    H154959   0.077   4.087  17.081 -1.2215 -0.4913  2.5065
11156TIP3    H254960  -0.021   4.152  16.986  0.7612  0.4239  0.9941
11157TIP3   OH254961   3.282   1.584   5.182 -0.2493 -0.4726  1.0689
11157TIP3    H154962   3.327   1.501   5.195  0.3643 -0.1462  1.0996
11157TIP3    H254963   3.339   1.649   5.224  0.4941  0.2799 -0.9735
11158TIP3   OH254964   0.306   0.018  10.495 -1.3040  0.7533  0.1881
11158TIP3    H154965   0.320  -0.031  10.577  0.6195 -1.6515 -1.4069
11158TIP3    H254966   0.238  -0.031  10.450 -0.4962  0.4530 -0.7423
11159TIP3   OH254967   2.429   2.840   0.232  0.1385 -0.0190  0.4073
11159TIP3    H154968   2.469   2.756   0.212 -0.2826 -0.4915  1.4672
11159TIP3    H254969   2.503   2.896   0.257  0.4166 -0.0768 -0.2801
11160TIP3   OH254970   2.900   4.191   4.956  0.2111 -0.2236 -0.5925
11160TIP3    H154971   2.828   4.178   5.017 -0.6147  1.7662 -1.0533
11160TIP3    H254972   2.891   4.282   4.927  1.2916 -0.7173 -2.7462
11161TIP3   OH254973   3.506   4.394  16.559 -0.0628  0.4281 -0.9016
11161TIP3    H154974   3.533   4.401  16.468  3.1877 -0.9860 -0.1761
11161TIP3    H254975   3.507   4.300  16.577 -0.4100  0.7014  0.6705
11162TIP3   OH254976   1.037   0.658  14.721 -0.4243 -0.8063  0.5701
11162TIP3    H154977   1.120   0.674  14.766  0.0059 -0.2007 -0.4173
11162TIP3    H254978   0.988   0.739  14.731 -1.8268 -1.8203  2.9605
11163TIP3   OH254979   5.629   6.753  15.218  0.4609  0.1780  0.5272
11163TIP3    H154980   5.571   6.683  15.248  0.5402  0.1111  0.5243
11163TIP3    H254981   5.578   6.799  15.152  0.2086  0.4478  0.9032
11164TIP3   OH254982   3.706   4.108  10.688 -0.2298  0.2844 -0.0148
11164TIP3    H154983   3.712   4.139  10.598  1.6709  0.1444  0.0379
11164TIP3    H254984   3.621   4.064  10.692 -0.4315  0.4503 -1.6773
11165TIP3   OH254985   5.345   6.820   4.471  0.0918 -0.1998  0.6152
11165TIP3    H154986   5.271   6.851   4.523  0.1296  0.8464  0.0817
11165TIP3    H254987   5.415   6.806   4.535 -0.1315  0.2213  0.9558
11166TIP3   OH254988   5.213   5.166  12.256 -0.2814 -0.5631  0.4139
11166TIP3    H154989   5.160   5.090  12.280 -0.1966 -0.9890 -0.6968
11166TIP3    H254990   5.196   5.179  12.163 -0.5771  1.0178  0.6566
11167TIP3   OH254991   6.420   5.590   1.543 -0.0886  0.1452  0.4745
11167TIP3    H154992   6.454   5.559   1.459 -2.9292 -0.1079 -0.6800
11167TIP3    H254993   6.448   5.681   1.548  0.2227  0.1281 -0.6866
11168TIP3   OH254994   5.590   3.226  16.017 -0.2681  0.5653  0.5794
11168TIP3    H154995   5.499   3.215  16.045 -0.1591 -1.2573  0.3437
11168TIP3    H254996   5.641   3.195  16.091  0.0634 -1.6163 -0.4783
11169TIP3   OH254997   0.203   5.901  15.197  0.3670  0.2863 -0.3445
11169TIP3    H154998   0.161   5.856  15.123 -1.3636  2.6124 -0.8651
11169TIP3    H254999   0.147   5.882  15.272  0.7227  0.0196 -0.1390
11170TIP3   OH255000   3.956   4.195   4.996 -0.7834 -0.0277  0.6183
11170TIP3    H155001   3.972   4.157   4.909 -1.6559  2.0596 -0.5207
11170TIP3    H255002   4.042   4.194   5.038  0.0087  0.3332 -0.8931
11171TIP3   OH255003   5.398   2.671   5.020  0.0683 -0.4262 -0.6393
11171TIP3    H155004   5.382   2.675   4.926 -0.9398  1.0642 -0.4300
11171TIP3    H255005   5.385   2.760   5.051  1.1752 -0.7263  0.8043
11172TIP3   OH255006   3.873   5.104   3.805  0.3882  0.1441  0.0403
11172TIP3    H155007   3.817   5.027   3.819 -0.2713  0.6313  0.1208
11172TIP3    H255008   3.939   5.074   3.743  0.7932 -0.8054  0.9027
11173TIP3   OH255009   4.761   4.234   3.251  0.2367  0.0836  0.1047
11173TIP3    H155010   4.727   4.245   3.162  0.4295  0.1030  0.0329
11173TIP3    H255011   4.759   4.140   3.266  0.0696  0.0910  0.1327
11174TIP3   OH255012   6.812   2.032   1.861  0.1840 -0.3461  0.1567
11174TIP3    H155013   6.731   2.047   1.812  1.3603  0.6297 -1.5830
11174TIP3    H255014   6.815   2.104   1.924  0.5978  0.7701 -1.0783
11175TIP3   OH255015   1.319   6.056  12.414  0.5537 -0.6756 -0.3272
11175TIP3    H155016   1.363   5.972  12.428  1.2562 -0.5113 -1.4004
11175TIP3    H255017   1.384   6.121  12.439  1.2534 -0.4120 -2.5785
11176TIP3   OH255018   6.411   1.029   1.388  0.0741  0.6638  0.2403
11176TIP3    H155019   6.486   1.028   1.328 -0.1710 -0.5735 -0.0739
11176TIP3    H255020   6.442   0.980   1.465 -0.4648 -0.0199  0.0292
11177TIP3   OH255021   1.384   1.500   5.814 -0.2155 -0.2888 -0.6147
11177TIP3    H155022   1.303   1.469   5.856  0.5552  0.2206  1.3223
11177TIP3    H255023   1.368   1.486   5.721 -1.1561 -3.5960 -0.1192
11178TIP3   OH255024   4.628   5.121   0.081 -0.2324 -0.4326  0.1103
11178TIP3    H155025   4.672   5.059   0.023  0.1690 -0.0114 -0.0432
11178TIP3    H255026   4.627   5.077   0.166  1.5847  0.0174  0.4071
11179TIP3   OH255027   6.297   1.870  15.173 -0.2667 -0.6898  0.0809
11179TIP3    H155028   6.374   1.886  15.118 -0.3206 -0.5633  0.0411
11179TIP3    H255029   6.333   1.844  15.258 -0.1450  1.0264  0.5909
11180TIP3   OH255030   3.451   4.770  13.726  0.0499 -0.3909  0.2980
11180TIP3    H155031   3.493   4.717  13.659 -2.2908 -1.0692 -0.7194
11180TIP3    H255032   3.491   4.857  13.717  0.8017 -0.8485 -0.9945
11181TIP3   OH255033   3.092   2.280   5.279  0.2918  0.3958 -0.2319
11181TIP3    H155034   3.031   2.209   5.301 -1.2084  0.8930 -2.5206
11181TIP3    H255035   3.074   2.348   5.343 -0.6014 -0.0001 -0.0470
11182TIP3   OH255036   4.698   0.268   2.028 -0.7435  0.1583  0.4898
11182TIP3    H155037   4.647   0.250   2.107 -1.0279 -1.4586 -0.0285
11182TIP3    H255038   4.782   0.225   2.043  0.3160  2.3196  1.0935
11183TIP3   OH255039   3.998   6.761  10.669 -0.1769 -0.0581 -0.0670
11183TIP3    H155040   3.938   6.814  10.722 -1.0884 -1.2452  0.1297
11183TIP3    H255041   3.958   6.760  10.582  1.7100  2.5399 -1.1057
11184TIP3   OH255042   1.509   3.915  16.654  0.0371 -0.4314 -0.1686
11184TIP3    H155043   1.533   3.907  16.561  2.4593  1.8429  0.1816
11184TIP3    H255044   1.413   3.913  16.653 -0.0267 -0.1214 -2.7665
11185TIP3   OH255045   1.814   6.700  14.744 -0.2628  0.6311  0.0761
11185TIP3    H155046   1.743   6.686  14.806 -0.0709  1.6915  0.5572
11185TIP3    H255047   1.884   6.643  14.774 -0.4330  0.5944  0.4116
11186TIP3   OH255048   6.660   0.158   1.611 -0.2236 -0.3587 -1.0864
11186TIP3    H155049   6.745   0.118   1.592 -0.3151 -0.4311 -1.3586
11186TIP3    H255050   6.679   0.229   1.672  0.1571  0.2129 -1.8465
11187TIP3   OH255051   4.871   5.150   4.034  0.1004 -0.1746  0.0163
11187TIP3    H155052   4.785   5.112   4.015  1.4475 -2.5016 -1.8512
11187TIP3    H255053   4.914   5.085   4.089  1.0782  0.4534  0.0059
11188TIP3   OH255054   3.478   1.685  12.215 -0.3196 -0.5939  0.3048
11188TIP3    H155055   3.430   1.603  12.211 -0.4408 -0.6425  2.1032
11188TIP3    H255056   3.456   1.730  12.133  0.5843 -2.7496 -1.2240
11189TIP3   OH255057   1.316   6.520  12.181  0.3078 -0.6587  0.0049
11189TIP3    H155058   1.248   6.582  12.208  2.0764  0.9292  1.1150
11189TIP3    H255059   1.271   6.435  12.177 -2.0494  0.5496 -0.8674
11190TIP3   OH255060   6.096   5.861  12.242 -0.4301  0.8070  0.4409
11190TIP3    H155061   6.038   5.800  12.196  0.9991  0.4895 -1.0024
11190TIP3    H255062   6.179   5.814  12.250  0.0894  1.8129  1.1407
11191TIP3   OH255063   0.590   1.893   5.999  0.6014 -0.3143  0.3048
11191TIP3    H155064   0.640   1.932   6.071  0.7483 -3.4971  2.0994
11191TIP3    H255065   0.515   1.851   6.042 -0.8484 -0.0442 -1.7664
11192TIP3   OH255066   4.383   4.724   0.684  0.0528 -0.3732 -0.1310
11192TIP3    H155067   4.407   4.703   0.774 -0.2655 -0.3823 -0.0473
11192TIP3    H255068   4.424   4.809   0.667 -1.6352  0.6708  0.7363
11193TIP3   OH255069   4.252   1.455  13.220  0.0140 -0.3947  0.1276
11193TIP3    H155070   4.332   1.457  13.167 -0.9252 -0.6352 -1.3769
11193TIP3    H255071   4.246   1.364  13.251  2.0908  0.3652  3.2263
11194TIP3   OH255072   2.965   1.697   4.434  0.2388 -0.3278  0.1957
11194TIP3    H155073   2.967   1.761   4.363  1.6692 -0.1506  0.3702
11194TIP3    H255074   2.983   1.747   4.513 -1.5059 -0.4981  0.7353
11195TIP3   OH255075   3.020   4.336  12.553 -0.1759 -0.8250 -0.6466
11195TIP3    H155076   3.045   4.396  12.484 -1.8833 -0.6246 -1.1293
11195TIP3    H255077   3.043   4.249  12.519  0.5427 -0.6049 -0.7363
11196TIP3   OH255078   6.514   5.020   5.295  0.0958 -0.4040 -0.0881
11196TIP3    H155079   6.492   4.929   5.317 -0.8329  0.0381  0.9227
11196TIP3    H255080   6.494   5.069   5.375 -0.0371  0.7939 -0.8335
11197TIP3   OH255081   2.800   1.723   3.110  0.1813  0.0625 -0.8594
11197TIP3    H155082   2.856   1.777   3.165  1.7708 -1.4383 -0.9510
11197TIP3    H255083   2.714   1.766   3.114  1.2398  2.2766 -0.5174
11198TIP3   OH255084   5.744   0.392  15.429 -0.5999 -0.0235 -0.4133
11198TIP3    H155085   5.791   0.350  15.356  1.5002  1.6645 -0.1500
11198TIP3    H255086   5.735   0.323  15.495  2.1167 -0.3233 -0.2522
11199TIP3   OH255087   3.432   2.542  12.819 -0.3903  0.1311 -0.6178
11199TIP3    H155088   3.424   2.634  12.794 -0.7105  0.5348  0.8597
11199TIP3    H255089   3.344   2.506  12.804 -1.1103  0.8257  1.4760
11200TIP3   OH255090   1.967   4.762   3.719  0.1804 -0.1844  0.1495
11200TIP3    H155091   1.886   4.794   3.759  1.0509  1.5938  0.5760
11200TIP3    H255092   2.036   4.811   3.763  1.4457 -1.1131 -0.7483
11201TIP3   OH255093   2.804   1.192   5.581  0.1949 -0.2979  0.0088
11201TIP3    H155094   2.899   1.205   5.578  0.0491  0.7762 -0.1363
11201TIP3    H255095   2.776   1.235   5.662 -0.2051 -0.3535 -0.0987
11202TIP3   OH255096   6.503   5.983   5.731  0.4225 -0.5040 -0.2095
11202TIP3    H155097   6.483   6.070   5.765 -1.3805 -1.3470  1.0239
11202TIP3    H255098   6.446   5.972   5.655 -0.4069 -1.1043  0.4737
11203TIP3   OH255099   0.886   1.672   1.689 -0.4789 -0.1262 -0.5969
11203TIP3    H155100   0.931   1.590   1.705 -0.4087 -0.3298 -1.7649
11203TIP3    H255101   0.956   1.735   1.673 -0.4896 -0.9190 -4.7588
11204TIP3   OH255102   2.536   6.715  12.581  0.3114 -0.2959 -0.1095
11204TIP3    H155103   2.553   6.719  12.675  0.1346  0.5967 -0.1072
11204TIP3    H255104   2.538   6.621  12.560  2.6167 -0.3973  0.3603
11205TIP3   OH255105   0.315   6.405  14.258  0.1188  0.6416  0.7681
11205TIP3    H155106   0.255   6.373  14.325 -1.1321  0.8529 -0.2144
11205TIP3    H255107   0.376   6.332  14.244 -0.0197  0.3486  1.6455
11206TIP3   OH255108   4.187   5.299  13.471 -0.0247 -0.2376  0.2394
11206TIP3    H155109   4.187   5.381  13.518  0.2294 -0.4975  0.6974
11206TIP3    H255110   4.095   5.280  13.454 -0.0220  0.9341 -1.2745
11207TIP3   OH255111   5.918   1.032   0.709  0.5122  0.1477 -0.1657
11207TIP3    H155112   5.850   1.083   0.753 -0.0144 -0.0651 -0.7149
11207TIP3    H255113   5.993   1.091   0.703  0.5556  0.2221  0.8908
11208TIP3   OH255114   2.839   2.536  10.908  0.0622  0.1954  0.0825
11208TIP3    H155115   2.759   2.493  10.939 -0.2915  0.0428 -0.9957
11208TIP3    H255116   2.825   2.629  10.928  0.2802 -0.0023  1.2585
11209TIP3   OH255117   0.073   1.151   4.734 -0.5362 -0.5507  0.1092
11209TIP3    H155118   0.165   1.170   4.754 -0.6309 -0.7204  0.7045
11209TIP3    H255119   0.023   1.210   4.791 -0.8040 -0.8632  0.1983
11210TIP3   OH255120   0.001   6.121  13.880  0.5760  0.0488 -0.1376
11210TIP3    H155121  -0.032   6.037  13.849  0.8096 -0.5427  1.1689
11210TIP3    H255122   0.096   6.113  13.875  0.5940  0.4156 -0.4484
11211TIP3   OH255123   2.777   4.503  14.776  0.3172  0.4690  0.5093
11211TIP3    H155124   2.687   4.475  14.757  0.0942  1.1659  0.5242
11211TIP3    H255125   2.773   4.598  14.778  0.8814  0.4848  1.4324
11212TIP3   OH255126   4.540   5.423   2.834  0.4604 -0.7756  0.8488
11212TIP3    H155127   4.614   5.404   2.892  0.1332 -1.0035  1.1922
11212TIP3    H255128   4.526   5.517   2.841  2.2469 -0.2925 -1.0358
11213TIP3   OH255129   5.512   2.780  12.635 -0.3635  0.2531  0.0544
11213TIP3    H155130   5.437   2.771  12.693  0.5559 -0.0511  1.2228
11213TIP3    H255131   5.473   2.794  12.548 -1.7929 -1.5914  0.3294
11214TIP3   OH255132   5.430   6.746  15.608  0.5516 -0.0652 -0.0759
11214TIP3    H155133   5.375   6.694  15.667 -1.5820  1.5440 -0.5011
11214TIP3    H255134   5.493   6.684  15.572 -1.5506 -2.2578 -0.1961
11215TIP3   OH255135   6.598   5.307  14.270 -0.1384  0.1180  0.5014
11215TIP3    H155136   6.520   5.252  14.261 -0.6172  1.0243 -1.3105
11215TIP3    H255137   6.564   5.396  14.278  0.6890  0.4658  0.2469
11216TIP3   OH255138   5.528   3.610  13.814 -0.1244  0.5180 -0.0403
11216TIP3    H155139   5.454   3.579  13.866 -0.7695 -0.0006 -1.2263
11216TIP3    H255140   5.488   3.647  13.736  0.8695  0.1945 -0.7211
11217TIP3   OH255141   3.117   0.194   3.664  0.5205 -0.4654  0.2416
11217TIP3    H155142   3.050   0.253   3.629  1.4543 -0.0425 -0.9031
11217TIP3    H255143   3.165   0.163   3.587  0.6836 -1.9542  0.9095
11218TIP3   OH255144   2.334   0.579   0.103 -0.5657  0.1111  0.1285
11218TIP3    H155145   2.356   0.580   0.196  0.1597 -1.4094  0.0089
11218TIP3    H255146   2.252   0.628   0.096 -0.1568  1.0094  1.4307
11219TIP3   OH255147   3.963   2.233  14.767 -0.2671  0.2673 -0.5155
11219TIP3    H155148   3.960   2.165  14.835  2.6856  1.3365  0.8393
11219TIP3    H255149   3.955   2.315  14.815 -0.9997  0.9861 -1.8240
11220TIP3   OH255150   3.887   3.020   4.897 -0.1813  0.9258  0.0845
11220TIP3    H155151   3.874   3.019   4.802  0.0712  1.9398  0.0334
11220TIP3    H255152   3.805   3.053   4.932 -0.4017  0.2112  0.2438
11221TIP3   OH255153   4.405   2.815   3.147 -0.1564 -0.3898  0.7587
11221TIP3    H155154   4.405   2.787   3.239  1.8201 -0.4556  0.7925
11221TIP3    H255155   4.497   2.807   3.120 -0.7028 -0.4316 -1.2534
11222TIP3   OH255156   0.793   0.722  14.071 -0.3848 -0.1404  0.1854
11222TIP3    H155157   0.878   0.730  14.114 -0.5584  1.0831  0.3419
11222TIP3    H255158   0.809   0.667  13.995  0.6684  0.5019 -0.0777
11223TIP3   OH255159   0.266   2.891  15.352  0.6710  0.4155  0.1676
11223TIP3    H155160   0.206   2.864  15.422  0.1500 -0.9169 -0.7542
11223TIP3    H255161   0.222   2.962  15.307  0.6557  0.7443  0.6984
11224TIP3   OH255162   3.242   4.548  17.010 -0.3589  0.0054 -0.7096
11224TIP3    H155163   3.231   4.560  17.104  1.1256 -0.2859 -0.4789
11224TIP3    H255164   3.312   4.609  16.986  1.4000 -2.0591 -1.0579
11225TIP3   OH255165   1.929   3.308   1.471 -0.1089 -0.0868 -0.0804
11225TIP3    H155166   1.919   3.397   1.437 -1.1156 -0.2584 -0.2686
11225TIP3    H255167   1.901   3.251   1.399 -0.3040 -0.5230  0.3277
11226TIP3   OH255168   2.910   4.131  15.784 -0.0258  0.7075  0.1387
11226TIP3    H155169   3.001   4.143  15.811  0.3469  1.0370 -1.1721
11226TIP3    H255170   2.915   4.111  15.690 -1.0636 -3.0643  0.7332
11227TIP3   OH255171   0.038   1.282  11.547  0.1909  0.1014  0.2746
11227TIP3    H155172   0.054   1.345  11.477  1.6454 -1.7479 -1.1627
11227TIP3    H255173  -0.056   1.269  11.548 -0.0578  1.7226  0.1329
11228TIP3   OH255174   4.948   2.282   5.965  0.3967  0.1039  0.3909
11228TIP3    H155175   4.960   2.376   5.952  1.1854  0.1758  1.4301
11228TIP3    H255176   4.864   2.274   6.011 -0.8430  0.0823 -1.7720
11229TIP3   OH255177   3.558   5.231  14.741  0.1512 -0.2395 -0.5911
11229TIP3    H155178   3.635   5.248  14.795 -0.3097  0.2524 -0.0713
11229TIP3    H255179   3.488   5.279  14.784 -1.2465 -3.3072  0.8828
11230TIP3   OH255180   3.040   5.202  16.974 -0.1147 -0.0555 -0.3499
11230TIP3    H155181   3.130   5.177  16.997 -0.4005 -0.0838  0.7601
11230TIP3    H255182   3.004   5.125  16.931 -0.8014 -1.4664  2.5205
11231TIP3   OH255183   5.504   0.651  15.345 -0.0374 -0.1606  0.1952
11231TIP3    H155184   5.460   0.666  15.428 -0.5439 -1.2114  0.1317
11231TIP3    H255185   5.597   0.644  15.368  0.1071  1.8723  0.3528
11232TIP3   OH255186   0.336   3.163  13.087  0.1372 -0.2241 -0.0552
11232TIP3    H155187   0.430   3.169  13.072 -0.0956  0.4806 -1.3763
11232TIP3    H255188   0.301   3.247  13.057 -0.8446 -0.2023  1.0655
11233TIP3   OH255189   5.556   1.188  13.719 -0.5629  0.3168  0.0669
11233TIP3    H155190   5.606   1.135  13.781 -0.9948  1.1712  1.1737
11233TIP3    H255191   5.607   1.269  13.710 -0.2299  0.0030 -1.1280
11234TIP3   OH255192   5.824   0.632   0.856  0.6041  0.6087  0.6459
11234TIP3    H155193   5.780   0.552   0.886 -0.0999  1.0715  0.8590
11234TIP3    H255194   5.754   0.695   0.844  1.0542  0.9450 -0.3678
11235TIP3   OH255195   5.958   0.240  11.544  0.1159 -0.3647  0.1310
11235TIP3    H155196   6.038   0.194  11.567 -0.6360 -1.0639  1.4941
11235TIP3    H255197   5.983   0.300  11.474  1.3636 -2.0253 -0.8949
11236TIP3   OH255198   4.667   6.134   2.890  0.2878  0.4754  0.1081
11236TIP3    H155199   4.689   6.082   2.967  0.7577 -0.8671 -0.8904
11236TIP3    H255200   4.584   6.096   2.859  0.4883  0.5040 -0.4719
11237TIP3   OH255201   4.547   1.006   3.328  0.0832  0.5978  0.3957
11237TIP3    H155202   4.576   1.063   3.399 -3.1663  1.0731  1.4900
11237TIP3    H255203   4.464   0.969   3.358  0.1314 -1.6830 -1.8973
11238TIP3   OH255204   1.822   5.244   1.229  0.5640  0.3179  0.6055
11238TIP3    H155205   1.766   5.222   1.154  1.1404 -1.0361  0.5496
11238TIP3    H255206   1.854   5.332   1.209 -2.7777  1.8918  1.4189
11239TIP3   OH255207   6.036   5.113   4.970 -0.0469 -0.2274 -0.0755
11239TIP3    H155208   6.103   5.128   4.903 -2.3774  0.9057 -2.2991
11239TIP3    H255209   6.073   5.151   5.050  2.5883 -1.1226 -0.7637
11240TIP3   OH255210   4.735   1.306   4.693 -0.2554  0.4191  0.7991
11240TIP3    H155211   4.641   1.292   4.681  0.0116 -0.8396 -0.1793
11240TIP3    H255212   4.745   1.401   4.699 -1.6183  0.5579  1.3177
11241TIP3   OH255213   6.618   0.756  14.781 -0.0261  0.0307 -0.3680
11241TIP3    H155214   6.583   0.730  14.695  0.4008  0.2468 -0.6109
11241TIP3    H255215   6.554   0.723  14.844  1.5555 -3.6941 -0.4716
11242TIP3   OH255216   4.311   2.718  16.951  0.1383  0.5680  0.2075
11242TIP3    H155217   4.235   2.753  16.999 -0.0263  0.4397  0.0390
11242TIP3    H255218   4.279   2.703  16.862 -0.1673 -1.2286  0.5778
11243TIP3   OH255219   5.767   1.756   6.302 -0.1859 -0.0734  0.3058
11243TIP3    H155220   5.762   1.802   6.386 -1.1183 -1.2352  0.9115
11243TIP3    H255221   5.860   1.762   6.277  0.1664  0.0495  1.5595
11244TIP3   OH255222   1.347   1.493  16.596 -0.0551  0.0532 -0.0183
11244TIP3    H155223   1.256   1.468  16.606 -0.7889  2.1412 -0.8596
11244TIP3    H255224   1.396   1.411  16.605 -1.9822 -1.0983  0.5356
11245TIP3   OH255225   0.487   2.481  14.623 -0.2163  0.1878 -0.2495
11245TIP3    H155226   0.439   2.399  14.623  0.2006 -0.0626  0.4934
11245TIP3    H255227   0.546   2.475  14.698  0.2433  0.9155 -0.5361
11246TIP3   OH255228   3.103   1.323   0.900  0.0621  0.2306 -0.3076
11246TIP3    H155229   3.024   1.280   0.867 -0.8120 -0.0612  1.9385
11246TIP3    H255230   3.072   1.372   0.977  1.7537  1.6341 -0.4675
11247TIP3   OH255231   2.801   5.934  14.019 -0.2070 -0.1481 -0.6738
11247TIP3    H155232   2.889   5.952  14.052 -0.7483 -2.5081  2.5216
11247TIP3    H255233   2.753   6.015  14.034  0.4558 -0.0837  1.4330
11248TIP3   OH255234   3.705   3.833   3.337  0.1370  0.4755  0.2403
11248TIP3    H155235   3.768   3.860   3.270 -0.2034 -0.7709 -0.6330
11248TIP3    H255236   3.639   3.783   3.289 -0.5923  0.2803  1.3933
11249TIP3   OH255237   2.312   1.918  11.232 -0.0935 -0.2930  0.1254
11249TIP3    H155238   2.373   1.854  11.195  0.5289  0.5936 -0.4262
11249TIP3    H255239   2.362   1.963  11.300 -0.4934 -0.3190  0.4383
11250TIP3   OH255240   5.691   5.369   3.608 -0.1090 -0.0310  0.0059
11250TIP3    H155241   5.757   5.382   3.676 -2.6861 -2.4080  3.2715
11250TIP3    H255242   5.625   5.436   3.625  0.3220  0.9690 -1.8935
11251TIP3   OH255243   2.611   6.167  13.130  0.3201  0.2604 -0.0134
11251TIP3    H155244   2.596   6.254  13.166 -1.7750 -0.1032  0.1175
11251TIP3    H255245   2.635   6.114  13.206  0.3099  0.4429  0.1186
11252TIP3   OH255246   2.133   4.219   5.334 -0.1818  0.4868  0.1158
11252TIP3    H155247   2.059   4.257   5.287 -0.5501 -2.1672 -1.6719
11252TIP3    H255248   2.124   4.251   5.423 -2.6710  1.3511 -0.3687
11253TIP3   OH255249   5.800   3.685  10.803  0.5313 -0.5077 -0.0457
11253TIP3    H155250   5.841   3.662  10.719 -0.6125  1.0708 -1.0894
11253TIP3    H255251   5.720   3.633  10.806  0.6269 -0.6447  0.1141
11254TIP3   OH255252   6.629   1.408  12.547 -0.0446 -0.0648  0.1561
11254TIP3    H155253   6.639   1.492  12.591  1.8627 -0.3978  0.4541
11254TIP3    H255254   6.647   1.343  12.615 -1.6808 -0.7543 -0.0229
11255TIP3   OH255255   6.131   5.638   4.971  0.2191 -0.1918  0.3106
11255TIP3    H155256   6.115   5.704   5.039  1.0398  1.3809 -0.9431
11255TIP3    H255257   6.205   5.586   5.004  0.1978  0.1531  0.9053
11256TIP3   OH255258   4.247   1.031   2.721 -0.1847 -0.0220  0.1224
11256TIP3    H155259   4.213   1.089   2.652  1.9694  0.1802 -0.8495
11256TIP3    H255260   4.245   0.944   2.682 -0.6892 -0.1943  0.5170
11257TIP3   OH255261   4.016   3.873  16.256 -0.4591  0.0331 -0.0789
11257TIP3    H155262   4.054   3.953  16.293  2.3573 -1.4025  0.4272
11257TIP3    H255263   4.002   3.816  16.332  2.3943 -1.7567 -0.7306
11258TIP3   OH255264   1.399   3.711  10.935 -0.0816 -0.5189 -0.1846
11258TIP3    H155265   1.379   3.735  10.844 -0.0760 -0.8917 -0.2833
11258TIP3    H255266   1.424   3.794  10.976 -0.3723 -0.2994 -0.4446
11259TIP3   OH255267   3.248   6.735   5.596  0.3397  0.2246 -0.0083
11259TIP3    H155268   3.293   6.673   5.539  0.3276  0.5836 -0.4168
11259TIP3    H255269   3.155   6.718   5.581  0.3166 -0.8866  1.2411
11260TIP3   OH255270   2.548   5.614  15.262  0.2556  0.0747 -0.1254
11260TIP3    H155271   2.627   5.661  15.236  0.6049 -1.9469 -3.2701
11260TIP3    H255272   2.477   5.660  15.218 -0.2080  1.0249  1.5280
11261TIP3   OH255273   6.297   5.908  17.145 -0.6366  0.1653 -0.0692
11261TIP3    H155274   6.262   5.896  17.233  1.4437  1.4667  1.0252
11261TIP3    H255275   6.384   5.868  17.148 -0.7183 -0.2097 -1.6987
11262TIP3   OH255276   3.333   1.445  15.120 -0.2612  0.2507 -0.4207
11262TIP3    H155277   3.416   1.492  15.126  0.1861 -0.1255 -2.7303
11262TIP3    H255278   3.321   1.428  15.026 -1.6150 -2.0907  0.0851
11263TIP3   OH255279   2.005   3.478   6.204 -0.0594 -0.0702 -0.5642
11263TIP3    H155280   2.016   3.416   6.276  1.0175  1.6878  0.8794
11263TIP3    H255281   1.988   3.423   6.127 -0.7122 -2.0399  0.9045
11264TIP3   OH255282   3.272   3.612   1.367  0.3070  0.1063 -0.3022
11264TIP3    H155283   3.310   3.660   1.293  1.8175  1.0282  1.0065
11264TIP3    H255284   3.264   3.677   1.436  0.9721 -1.1815  1.0509
11265TIP3   OH255285   2.337   3.480   4.385 -0.3859 -0.4353 -0.0894
11265TIP3    H155286   2.309   3.431   4.308 -1.0878  2.0968 -1.5321
11265TIP3    H255287   2.311   3.570   4.367 -0.0838  0.3415  2.8950
11266TIP3   OH255288   3.554   4.003   0.520 -0.1798  0.8759 -0.2152
11266TIP3    H155289   3.535   3.962   0.436  1.5544  1.9355 -1.1846
11266TIP3    H255290   3.650   4.008   0.523 -0.2741  3.2373  0.6347
11267TIP3   OH255291   1.930   1.372   3.508 -0.3612  0.0046 -0.9962
11267TIP3    H155292   1.870   1.435   3.548  0.3462  0.8162 -1.1773
11267TIP3    H255293   1.919   1.385   3.414 -0.9078 -0.8307 -1.0616
11268TIP3   OH255294   5.957   2.358  11.709 -0.4949 -0.3585 -0.4267
11268TIP3    H155295   5.922   2.321  11.790  0.5360 -0.4297  0.0019
11268TIP3    H255296   6.012   2.288  11.673 -0.0464  0.0696 -0.5886
11269TIP3   OH255297   3.494   2.148   1.729  0.3648 -0.2885  0.4976
11269TIP3    H155298   3.435   2.203   1.780  0.5656 -1.7376  2.3695
11269TIP3    H255299   3.455   2.061   1.731  0.4291 -0.4550 -1.8040
11270TIP3   OH255300   5.024   1.418  12.564 -0.2208 -0.8863 -0.1566
11270TIP3    H155301   5.074   1.342  12.593 -0.0799 -0.4489  0.7869
11270TIP3    H255302   5.050   1.488  12.624 -2.8707 -0.9503  1.2249
11271TIP3   OH255303   1.872   4.242   2.029 -0.1342 -0.3018 -0.5208
11271TIP3    H155304   1.960   4.255   1.995  0.2043  0.1984  0.4917
11271TIP3    H255305   1.872   4.152   2.062  0.3320 -0.0019  0.3541
11272TIP3   OH255306   2.518   2.501   3.566  0.4969 -0.1924 -0.1300
11272TIP3    H155307   2.566   2.497   3.648 -0.2910  1.3079  0.4366
11272TIP3    H255308   2.472   2.417   3.561 -1.0639  0.4383  2.0190
11273TIP3   OH255309   3.499   5.599   0.503 -0.0546 -0.0072 -0.2665
11273TIP3    H155310   3.448   5.541   0.446 -0.5911  1.2032 -1.0729
11273TIP3    H255311   3.468   5.579   0.592 -1.4418  0.2074 -0.6848
11274TIP3   OH255312   5.233   2.742  15.343  0.1415  0.1457 -0.0979
11274TIP3    H155313   5.182   2.755  15.422  2.3224  0.4142  1.3488
11274TIP3    H255314   5.277   2.658  15.356  0.8062  0.3580 -0.8733
11275TIP3   OH255315   5.699   4.103   2.620  0.0985 -0.2713 -0.0780
11275TIP3    H155316   5.683   4.039   2.551  0.6404  0.3398 -0.7944
11275TIP3    H255317   5.637   4.081   2.689 -0.9001 -0.5148 -1.0276
11276TIP3   OH255318   1.047   0.916  16.928 -0.5932 -0.0579  0.1775
11276TIP3    H155319   1.138   0.921  16.959 -0.2933 -0.9850 -0.5215
11276TIP3    H255320   1.053   0.920  16.833 -1.5195  2.8365  0.1371
11277TIP3   OH255321   2.274   6.137  11.491 -0.8570  0.0993 -0.4902
11277TIP3    H155322   2.216   6.117  11.418 -1.5599  0.2965 -0.0029
11277TIP3    H255323   2.360   6.149  11.452 -1.3569  0.9067 -1.3774
11278TIP3   OH255324   5.901   1.946   0.592  0.5203  0.7500  0.0130
11278TIP3    H155325   5.808   1.966   0.586  0.6610  1.0849 -1.2841
11278TIP3    H255326   5.904   1.851   0.605 -0.0372  0.9920  2.5171
11279TIP3   OH255327   6.376   2.822  14.479 -0.3998 -0.3901 -0.2978
11279TIP3    H155328   6.440   2.765  14.522  1.0123  0.3924 -1.2615
11279TIP3    H255329   6.315   2.762  14.437 -0.4499 -1.1645  0.8263
11280TIP3   OH255330   1.211   1.174   3.524  0.0572 -0.3371 -0.1624
11280TIP3    H155331   1.274   1.237   3.489  0.2390 -0.4340 -0.0097
11280TIP3    H255332   1.237   1.090   3.485  0.2811 -0.4512  0.2330
11281TIP3   OH255333   1.817   6.570  15.576 -0.7900  0.0392 -0.6225
11281TIP3    H155334   1.817   6.665  15.591 -0.4437  0.0477 -0.6719
11281TIP3    H255335   1.743   6.538  15.628 -1.0050  0.3554 -0.7283
11282TIP3   OH255336   6.555   2.727  14.815  0.4920 -0.0490  0.8928
11282TIP3    H155337   6.524   2.650  14.767  1.8230  0.8710 -1.6644
11282TIP3    H255338   6.651   2.724  14.804  0.4871  2.9526 -1.0730
11283TIP3   OH255339   5.295   3.482  17.181  0.1473 -0.4586 -0.6992
11283TIP3    H155340   5.209   3.509  17.211  0.1182  0.6706 -1.7323
11283TIP3    H255341   5.345   3.469  17.262 -1.1968 -1.9591 -0.0637
11284TIP3   OH255342   2.555   4.640   6.133  0.2321 -0.2453  0.1773
11284TIP3    H155343   2.560   4.545   6.143 -0.3754 -0.1641  1.3471
11284TIP3    H255344   2.471   4.655   6.089  0.8031 -0.2920 -0.9878
11285TIP3   OH255345   3.713   1.450  14.757  0.3947  0.1288  0.0020
11285TIP3    H155346   3.630   1.439  14.804  1.0982 -0.9938  1.0146
11285TIP3    H255347   3.691   1.432  14.665 -0.0690 -2.4277  0.5541
11286TIP3   OH255348   3.810   1.620   2.360  0.2185  0.1111  0.0185
11286TIP3    H155349   3.744   1.582   2.417 -1.9535  0.7628 -1.8902
11286TIP3    H255350   3.822   1.709   2.392 -1.9725  0.9150 -1.2128
11287TIP3   OH255351   3.931   1.593   5.994 -0.1455 -0.1625 -0.0938
11287TIP3    H155352   3.992   1.603   5.921 -1.0185 -1.1397 -0.9736
11287TIP3    H255353   3.948   1.670   6.049  1.4488 -0.1007 -0.6170
11288TIP3   OH255354   6.304   1.956  17.237 -0.9538  0.3837 -0.3242
11288TIP3    H155355   6.355   2.008  17.299  1.9363  0.2569 -2.3698
11288TIP3    H255356   6.249   2.020  17.192 -0.8131  0.9415  0.2827
11289TIP3   OH255357   4.649   3.669  15.203 -0.6828  0.4563 -0.3196
11289TIP3    H155358   4.640   3.679  15.298 -1.0580 -2.1799 -0.0047
11289TIP3    H255359   4.626   3.755  15.168 -2.7064  0.9194  1.8665
11290TIP3   OH255360   1.345   3.067  15.726 -0.3886 -0.3372 -0.4202
11290TIP3    H155361   1.411   3.091  15.661 -0.3531  0.5413 -0.0699
11290TIP3    H255362   1.299   2.993  15.686 -1.5425  1.2785 -2.2424
11291TIP3   OH255363   6.461   2.246  14.305  0.3649 -0.4493  0.2532
11291TIP3    H155364   6.554   2.226  14.318  0.4648 -0.5180 -0.4769
11291TIP3    H255365   6.459   2.293  14.221 -0.2324 -0.2291  0.3898
11292TIP3   OH255366   0.004   6.786  14.093  0.0627 -0.4089  0.3580
11292TIP3    H155367   0.053   6.774  14.011 -0.3856 -0.4191  0.0886
11292TIP3    H255368   0.034   6.716  14.150  1.8348  0.7309  0.9164
11293TIP3   OH255369   6.223   0.247  11.823 -0.5044  0.4786 -0.2714
11293TIP3    H155370   6.296   0.306  11.806  1.8666 -1.1830  2.9206
11293TIP3    H255371   6.226   0.184  11.751  2.4927 -0.5598  0.5933
11294TIP3   OH255372   1.427   0.387   1.868  0.4907  0.3649 -0.0399
11294TIP3    H155373   1.434   0.482   1.873 -0.5099  0.4114  0.6837
11294TIP3    H255374   1.374   0.371   1.790 -0.9283  0.5076  0.8515
11295TIP3   OH255375   3.697   6.736  10.426 -0.0753  0.5045 -0.2623
11295TIP3    H155376   3.655   6.776  10.349  1.1155  0.9577 -0.6983
11295TIP3    H255377   3.778   6.785  10.437 -0.3823  0.6722  1.5081
11296TIP3   OH255378   1.289   2.058  16.265 -0.2876 -0.0461 -0.0675
11296TIP3    H155379   1.263   2.147  16.240  3.8106  1.6377  0.9927
11296TIP3    H255380   1.277   2.055  16.360 -0.7883 -0.8060 -0.1456
11297TIP3   OH255381   6.402   2.273   2.758  0.1368  0.1176 -0.0184
11297TIP3    H155382   6.401   2.327   2.679 -1.4757 -0.7613 -0.6369
11297TIP3    H255383   6.430   2.187   2.728 -0.3435 -0.1824  0.3884
11298TIP3   OH255384   0.067   3.486   1.795 -0.1164 -0.2675 -0.0521
11298TIP3    H155385   0.004   3.558   1.789 -1.4126 -1.4159 -0.6087
11298TIP3    H255386   0.152   3.530   1.799 -0.8789  1.3036 -0.1885
11299TIP3   OH255387   1.694   5.576   1.355 -0.1925  0.8823  0.7358
11299TIP3    H155388   1.691   5.493   1.402 -0.9881  1.2479  1.3449
11299TIP3    H255389   1.778   5.614   1.380  0.0767  0.3701  0.6308
11300TIP3   OH255390   5.430   2.133  14.059  0.0385  0.4889  0.0083
11300TIP3    H155391   5.462   2.133  14.149 -0.8773  0.6676  0.3467
11300TIP3    H255392   5.504   2.164  14.007  1.2560 -1.4815  0.4468
11301TIP3   OH255393   1.448   2.026  14.757  1.1949 -0.1130  0.2410
11301TIP3    H155394   1.478   2.115  14.739 -0.9466  0.2947 -1.8018
11301TIP3    H255395   1.447   1.983  14.671  0.7091 -1.6036  0.9562
11302TIP3   OH255396   1.429   5.033   1.849  0.2341 -0.2519  0.2824
11302TIP3    H155397   1.358   4.973   1.872  0.2697 -0.5979 -0.4720
11302TIP3    H255398   1.466   5.060   1.933 -2.1599  1.6406  0.8712
11303TIP3   OH255399   1.640   6.639   2.816 -0.7109 -0.5871  0.4403
11303TIP3    H155400   1.609   6.577   2.750 -1.8421 -0.6303  0.9769
11303TIP3    H255401   1.561   6.662   2.866 -0.4123  1.5462  0.0483
11304TIP3   OH255402   3.734   2.031  15.105 -0.1934  0.2021 -0.3961
11304TIP3    H155403   3.719   2.024  15.011  0.1029 -0.9724 -0.3653
11304TIP3    H255404   3.719   1.943  15.138 -2.1707  0.9806  0.9468
11305TIP3   OH255405   3.743   2.650  15.946 -0.5489 -0.1016  0.2370
11305TIP3    H155406   3.664   2.622  15.900 -0.2923 -2.5656  1.1551
11305TIP3    H255407   3.801   2.574  15.942  1.0176  1.0014  1.2107
11306TIP3   OH255408   1.863   0.951   5.143  0.1368  0.5651 -0.4812
11306TIP3    H155409   1.947   0.944   5.188 -0.1399  2.4806  0.4162
11306TIP3    H255410   1.875   1.023   5.080 -0.9500  1.1839 -0.0048
11307TIP3   OH255411   3.006   3.240   5.668 -0.3043 -0.2103  0.3350
11307TIP3    H155412   2.992   3.153   5.631 -3.2171  0.8235 -1.2876
11307TIP3    H255413   2.987   3.230   5.761  0.1119 -1.4239  0.3066
11308TIP3   OH255414   3.020   6.028  15.147  0.1253  0.0544  0.0450
11308TIP3    H155415   3.106   5.993  15.124 -0.1994 -0.0251 -1.1121
11308TIP3    H255416   2.989   5.972  15.219  1.2192  0.3786  0.7878
11309TIP3   OH255417   1.771   0.613  17.136  0.2481  0.3907  0.0174
11309TIP3    H155418   1.736   0.575  17.216  1.2445 -1.6123 -0.4180
11309TIP3    H255419   1.865   0.596  17.141  0.7036  2.4887 -0.4443
11310TIP3   OH255420   3.138   0.875   5.358  0.2457 -0.0826  0.2430
11310TIP3    H155421   3.110   0.787   5.336 -0.3099  0.1731 -0.0809
11310TIP3    H255422   3.058   0.928   5.356  0.3851  0.2151  1.5441
11311TIP3   OH255423   2.433   2.714   5.910 -0.5332 -1.0439  0.1117
11311TIP3    H155424   2.459   2.726   5.818 -0.8769  0.9166  0.2402
11311TIP3    H255425   2.516   2.710   5.958 -0.3046  2.1666  0.1617
11312TIP3   OH255426   5.317   5.088  14.795 -0.9337  0.3781  0.0978
11312TIP3    H155427   5.388   5.025  14.784  0.2487  0.8728  3.5038
11312TIP3    H255428   5.293   5.114  14.706  0.4858 -2.6574 -1.3159
11313TIP3   OH255429   5.629   4.025  13.972  0.0602 -0.0166 -0.3563
11313TIP3    H155430   5.675   4.109  13.979 -0.0065  0.0798 -0.9583
11313TIP3    H255431   5.649   3.980  14.054  0.1223  0.5710 -0.0392
11314TIP3   OH255432   0.555   2.108  17.018  0.5148  0.3545 -0.0996
11314TIP3    H155433   0.565   2.199  16.992 -1.4350  0.2082 -1.5484
11314TIP3    H255434   0.461   2.093  17.021  0.7504 -2.0286 -1.5875
11315TIP3   OH255435   0.115   3.623   5.627  0.9619 -0.5919  0.4638
11315TIP3    H155436   0.063   3.605   5.548  0.0806 -0.8396  1.0825
11315TIP3    H255437   0.206   3.610   5.600  0.6951 -0.3024 -0.6077
11316TIP3   OH255438   4.846   2.608   4.691 -0.1381  0.2482 -0.1742
11316TIP3    H155439   4.807   2.655   4.618 -0.0613 -0.5752 -0.7603
11316TIP3    H255440   4.780   2.611   4.761  0.2336  2.0040  0.1374
11317TIP3   OH255441   6.227   3.466   5.185  0.0521 -0.1614 -0.0229
11317TIP3    H155442   6.195   3.430   5.102 -1.0951 -0.2295  0.4409
11317TIP3    H255443   6.260   3.553   5.161  1.3671 -0.8449 -0.8522
11318TIP3   OH255444   1.288   2.672   6.620 -0.3440 -0.2232  0.3082
11318TIP3    H155445   1.352   2.616   6.664  0.8486  0.6656 -0.2290
11318TIP3    H255446   1.278   2.634   6.533  1.0197  0.7540 -0.3135
11319TIP3   OH255447   1.694   6.330   2.953 -0.1960  0.0257  0.0212
11319TIP3    H155448   1.650   6.411   2.924 -1.5875 -0.4704  0.6733
11319TIP3    H255449   1.692   6.335   3.048  0.8134 -0.2206  0.0600
11320TIP3   OH255450   2.966   1.145   2.034  0.4213  0.6499  0.2234
11320TIP3    H155451   3.003   1.202   2.101  1.7095 -0.1654  0.2451
11320TIP3    H255452   3.038   1.131   1.972  0.1435 -0.8763  0.1970
11321TIP3   OH255453   1.702   3.181  11.902 -0.5248 -0.3435 -0.5933
11321TIP3    H155454   1.761   3.203  11.830  1.1004 -3.6577 -0.4664
11321TIP3    H255455   1.655   3.104  11.872 -2.9802  0.7010  0.3399
11322TIP3   OH255456   5.264   0.174   5.213 -0.1314 -0.7665 -0.0342
11322TIP3    H155457   5.248   0.175   5.307 -1.5095 -0.8544 -0.2373
11322TIP3    H255458   5.200   0.236   5.177  0.9215 -0.1116 -0.8496
11323TIP3   OH255459   5.318   1.178   3.760 -0.2622  0.3203 -0.0884
11323TIP3    H155460   5.315   1.246   3.828 -1.4420 -0.6438  0.8696
11323TIP3    H255461   5.330   1.226   3.679  1.2754  1.5060  0.7993
11324TIP3   OH255462   0.039   6.777  12.911 -0.4994  0.5364 -0.5815
11324TIP3    H155463  -0.035   6.741  12.862 -0.5740  0.7158 -0.5995
11324TIP3    H255464   0.116   6.744  12.866 -0.5659  0.0280 -0.3335
11325TIP3   OH255465   1.241   1.776   0.310 -0.7646  0.4740  0.2705
11325TIP3    H155466   1.312   1.732   0.263  0.0203  1.2123  0.7376
11325TIP3    H255467   1.165   1.764   0.254 -0.0663  0.4826 -0.7095
11326TIP3   OH255468   1.915   6.360   0.411 -0.2859  0.4098 -0.5538
11326TIP3    H155469   1.998   6.341   0.366 -0.1519 -0.3164 -0.0251
11326TIP3    H255470   1.849   6.354   0.343 -0.0983 -0.7869 -0.6497
11327TIP3   OH255471   3.079   0.030  10.419 -0.3534 -0.2880 -0.0899
11327TIP3    H155472   3.052   0.032  10.511  1.3955 -0.9561  0.4808
11327TIP3    H255473   3.040  -0.050  10.385  0.8664 -1.2587  0.7239
11328TIP3   OH255474   3.354   5.829  11.226 -0.0875 -0.1551  0.4546
11328TIP3    H155475   3.352   5.740  11.189 -0.7815 -0.3397  0.9199
11328TIP3    H255476   3.446   5.842  11.250  0.0464 -0.7034  0.2657
11329TIP3   OH255477   3.405   0.804   5.752 -0.0335  0.0873  0.2484
11329TIP3    H155478   3.492   0.843   5.762 -0.2898  0.7392  0.0032
11329TIP3    H255479   3.381   0.776   5.840 -0.5561  2.0640  0.8020
11330TIP3   OH255480   2.649   5.826   2.810  0.0737 -0.1028 -0.3020
11330TIP3    H155481   2.700   5.801   2.732  0.0688  1.6967 -0.9218
11330TIP3    H255482   2.714   5.847   2.876  0.0906 -2.8055  0.6564
11331TIP3   OH255483   2.397   0.376   1.379  0.1007  0.5792 -0.9075
11331TIP3    H155484   2.332   0.427   1.331 -0.0357 -0.7953 -2.2650
11331TIP3    H255485   2.351   0.347   1.458 -1.1173 -0.6922 -2.0272
11332TIP3   OH255486   1.578   1.337   2.905 -0.5072  0.1919  0.3156
11332TIP3    H155487   1.596   1.430   2.895  0.2185 -0.0308 -0.6212
11332TIP3    H255488   1.664   1.296   2.908 -0.8167 -0.4210  1.1200
11333TIP3   OH255489   3.299   4.514   1.413  0.0163 -0.3232  0.2838
11333TIP3    H155490   3.282   4.420   1.404 -0.6595  0.0067 -3.3889
11333TIP3    H255491   3.221   4.548   1.456 -2.0818 -0.8948 -2.7792
11334TIP3   OH255492   1.774   5.785  12.690  0.0944 -0.1767  0.5991
11334TIP3    H155493   1.806   5.875  12.697  1.7200 -0.7399  0.7612
11334TIP3    H255494   1.743   5.763  12.777  0.8498 -0.1791  0.8717
11335TIP3   OH255495   2.733   6.230  15.602  0.5709  0.0155  0.2287
11335TIP3    H155496   2.655   6.189  15.567 -0.2008  1.4655  0.1769
11335TIP3    H255497   2.722   6.227  15.697 -0.4633  1.7952  0.2194
11336TIP3   OH255498   3.630   0.304  12.794 -0.1441  0.1864 -0.1587
11336TIP3    H155499   3.658   0.306  12.702  1.3706  0.8015  0.3000
11336TIP3    H255500   3.539   0.275  12.789 -0.7158  2.0058 -2.0167
11337TIP3   OH255501   6.619   5.994   4.056  0.1080  0.5537  1.0132
11337TIP3    H155502   6.553   5.927   4.078  0.8733 -0.4479  0.3471
11337TIP3    H255503   6.574   6.077   4.069 -0.8928 -0.0871  1.8191
11338TIP3   OH255504   4.714   0.261  16.327 -0.1863 -0.1969  0.1930
11338TIP3    H155505   4.654   0.273  16.253  1.2164  0.6427 -0.8795
11338TIP3    H255506   4.717   0.346  16.369 -0.0199 -0.3316  0.4535
11339TIP3   OH255507   3.842   5.089   4.960 -0.0252 -0.4077  0.2425
11339TIP3    H155508   3.879   5.092   4.872  0.6433 -1.3608  0.4813
11339TIP3    H255509   3.749   5.110   4.948  0.0689 -0.4960 -0.6757
11340TIP3   OH255510   3.225   3.123  16.167  0.3236  0.2378  0.2430
11340TIP3    H155511   3.317   3.130  16.194  0.5788  0.2233 -0.6032
11340TIP3    H255512   3.201   3.212  16.141  0.0105  0.2953  0.7141
11341TIP3   OH255513   3.515   4.693  16.435  0.3711 -0.4089  0.1871
11341TIP3    H155514   3.547   4.612  16.393  1.0107 -0.3315  0.5055
11341TIP3    H255515   3.570   4.762  16.398  1.6092 -0.4509  1.8091
11342TIP3   OH255516   6.685   0.210  11.208 -0.1003  0.0141 -0.3057
11342TIP3    H155517   6.598   0.174  11.223 -0.2704  0.3004 -0.6004
11342TIP3    H255518   6.722   0.157  11.138 -0.1062  0.0106 -0.3058
11343TIP3   OH255519   2.430   6.069   2.899  0.4739 -0.2028 -0.4244
11343TIP3    H155520   2.454   5.992   2.951 -1.2762 -0.3163  0.3012
11343TIP3    H255521   2.456   6.046   2.809  0.3223 -1.5006 -0.1632
11344TIP3   OH255522   4.789   3.777  13.573 -0.0647  0.1827 -0.3223
11344TIP3    H155523   4.854   3.771  13.643 -1.2322  1.8010  0.9677
11344TIP3    H255524   4.738   3.855  13.594 -1.8515 -0.5205 -1.7819
11345TIP3   OH255525   0.519   4.761   0.726 -0.6064 -0.0347 -0.0606
11345TIP3    H155526   0.589   4.721   0.675  0.5318 -0.2079  1.5627
11345TIP3    H255527   0.545   4.852   0.736 -2.5484  0.9232 -2.6424
11346TIP3   OH255528   1.746   5.476  16.166  0.2334  0.2452 -0.0824
11346TIP3    H155529   1.808   5.540  16.130  0.0537  0.0718 -0.7082
11346TIP3    H255530   1.746   5.405  16.102 -0.4347  0.1328  0.0437
11347TIP3   OH255531   0.068   3.479   1.015  0.5276  0.7505  0.0910
11347TIP3    H155532   0.063   3.418   0.942  0.0672 -0.3908  1.0506
11347TIP3    H255533   0.002   3.448   1.077  1.7824  0.9351  1.5612
11348TIP3   OH255534   0.033   4.365   3.794 -0.4462  1.2155 -0.0448
11348TIP3    H155535  -0.034   4.299   3.778  1.9844 -1.2757 -0.9429
11348TIP3    H255536   0.007   4.407   3.875 -2.7913  0.0197 -0.0973
11349TIP3   OH255537   2.118   3.997  12.118  0.0289 -0.0447  0.0660
11349TIP3    H155538   2.106   3.902  12.126 -2.2063  0.0027 -1.4721
11349TIP3    H255539   2.092   4.016  12.027 -0.3403  2.1280  0.5697
11350TIP3   OH255540   1.490   2.266   6.405 -0.1269 -0.0233 -0.5714
11350TIP3    H155541   1.531   2.313   6.478 -0.0182  0.6967 -1.0808
11350TIP3    H255542   1.532   2.180   6.404  1.3469  0.6681 -1.0350
11351TIP3   OH255543   0.828   4.967  10.570  0.7908  0.0612 -0.5429
11351TIP3    H155544   0.898   4.973  10.636  1.7118 -0.1728 -1.4688
11351TIP3    H255545   0.854   5.030  10.503 -0.0795  0.2184 -0.7449
11352TIP3   OH255546   3.250   2.374  12.211 -0.1034 -0.1672 -0.3626
11352TIP3    H155547   3.245   2.388  12.306  0.8229 -0.3599 -0.2822
11352TIP3    H255548   3.316   2.306  12.200 -0.8330 -0.7849 -1.0973
11353TIP3   OH255549   3.319   6.729   4.559  0.4751 -0.5152  0.3524
11353TIP3    H155550   3.319   6.813   4.512  0.4168  0.5689  2.1967
11353TIP3    H255551   3.358   6.668   4.497 -0.7129  0.5518 -1.5596
11354TIP3   OH255552   4.584   0.070  14.047 -0.0711 -0.0645  0.0542
11354TIP3    H155553   4.662   0.100  14.001 -0.6425 -0.4978 -1.2293
11354TIP3    H255554   4.619   0.023  14.123  0.8624  1.9087  0.9133
11355TIP3   OH255555   3.615   1.689   4.176  0.1033  0.4082 -0.2942
11355TIP3    H155556   3.573   1.774   4.189 -0.4200  0.3145 -1.2588
11355TIP3    H255557   3.633   1.685   4.082 -0.3449 -0.7483 -0.3520
11356TIP3   OH255558   3.635   0.987  11.968 -0.1652 -0.0325 -0.0150
11356TIP3    H155559   3.573   1.046  12.009  0.9150  2.6339 -1.9150
11356TIP3    H255560   3.682   0.947  12.040 -0.3164  2.1687  1.3853
11357TIP3   OH255561   2.041   1.355   0.911  0.5238  0.4606 -0.1786
11357TIP3    H155562   2.013   1.331   1.000  3.6041 -0.4576  0.6919
11357TIP3    H255563   2.046   1.271   0.865  0.6755  0.7247 -0.6462
11358TIP3   OH255564   3.126   2.691   4.758  0.3463 -0.0136  0.5108
11358TIP3    H155565   3.209   2.722   4.722  0.1792  1.1609  1.1009
11358TIP3    H255566   3.060   2.748   4.718  0.1034  0.9469  2.1645
11359TIP3   OH255567   2.352   1.789   4.767  0.1974 -0.0657 -0.3278
11359TIP3    H155568   2.295   1.806   4.843  1.8547  1.8689  0.5632
11359TIP3    H255569   2.324   1.703   4.736 -1.1373 -0.5509  1.9425
11360TIP3   OH255570   5.890   6.351  16.097  0.9247 -0.0742 -0.1334
11360TIP3    H155571   5.926   6.293  16.030  0.9292  0.1835 -0.3585
11360TIP3    H255572   5.799   6.323  16.108  1.0276 -0.3492  0.0144
11361TIP3   OH255573   5.015   4.322  16.007 -0.2245 -0.0329  0.0235
11361TIP3    H155574   5.071   4.385  16.051  0.3992  0.2377 -1.1196
11361TIP3    H255575   5.035   4.333  15.914 -1.2758 -0.7975 -0.3105
11362TIP3   OH255576   5.473   6.216  15.193  0.1330 -0.2741 -0.1782
11362TIP3    H155577   5.531   6.261  15.255 -0.4253 -2.0103  1.6939
11362TIP3    H255578   5.386   6.249  15.214 -0.0162 -0.5892 -0.3032
11363TIP3   OH255579   3.200   2.093  16.464 -0.5213  0.3701 -0.1952
11363TIP3    H155580   3.107   2.084  16.488 -0.9693 -1.4716 -2.2977
11363TIP3    H255581   3.203   2.069  16.372  2.0451  0.6745 -0.2508
11364TIP3   OH255582   1.256   5.291   2.029  0.0674  0.5433  0.1620
11364TIP3    H155583   1.255   5.355   1.958 -0.3871  0.0683 -0.2695
11364TIP3    H255584   1.345   5.255   2.028  0.6829  1.9421  1.1359
11365TIP3   OH255585   4.529   4.727   1.229 -0.2842  0.3214  0.0574
11365TIP3    H155586   4.474   4.794   1.270  0.1571  0.3595  0.6023
11365TIP3    H255587   4.606   4.722   1.285  0.4961  0.6132 -0.9591
11366TIP3   OH255588   4.564   5.238   5.096  0.0529 -0.1878  0.0164
11366TIP3    H155589   4.483   5.193   5.120 -0.1565 -1.2497 -2.3654
11366TIP3    H255590   4.535   5.323   5.062 -0.1760 -0.8663 -1.5491
11367TIP3   OH255591   4.137   6.775   1.246 -0.0455  0.3671  0.0247
11367TIP3    H155592   4.073   6.779   1.175  0.9064  0.2032 -0.8736
11367TIP3    H255593   4.102   6.709   1.306 -0.5949  0.0929 -0.5773
11368TIP3   OH255594   4.806   5.652  13.066 -0.1813 -0.0928  0.2314
11368TIP3    H155595   4.782   5.725  13.123 -0.0849 -0.1119  0.2966
11368TIP3    H255596   4.892   5.675  13.032  0.4240 -0.7837  1.2659
11369TIP3   OH255597   3.436   2.172   0.179  0.4566  0.0990  0.4589
11369TIP3    H155598   3.426   2.079   0.159  1.4878 -0.1670  1.1181
11369TIP3    H255599   3.454   2.212   0.094 -1.0169 -0.1341  0.0135
11370TIP3   OH255600   0.490   6.352   5.819  0.7657 -0.2669 -0.4254
11370TIP3    H155601   0.528   6.406   5.887  1.9893 -0.7950 -0.6595
11370TIP3    H255602   0.431   6.411   5.771  0.8080  0.4081  0.3438
11371TIP3   OH255603   1.990   4.299  16.908  0.2965  0.2542 -0.3304
11371TIP3    H155604   2.034   4.342  16.981  2.4410  0.5349 -1.7056
11371TIP3    H255605   1.898   4.325  16.916  0.6262  0.9224  1.7672
11372TIP3   OH255606   3.341   4.386  15.112  0.0099 -0.1844  0.2009
11372TIP3    H155607   3.354   4.480  15.126 -0.0086  0.4010 -2.9631
11372TIP3    H255608   3.248   4.372  15.133  0.4265  0.0489  2.4509
11373TIP3   OH255609   5.888   4.092   2.028  0.4006  0.0283 -0.5221
11373TIP3    H155610   5.977   4.062   2.047  1.5859  2.1943 -2.1015
11373TIP3    H255611   5.900   4.156   1.958 -2.3014  1.1934 -0.0254
11374TIP3   OH255612   2.656   1.854   1.046  0.3882  0.4172  0.2341
11374TIP3    H155613   2.650   1.949   1.035  0.7054  0.4028 -0.0846
11374TIP3    H255614   2.566   1.826   1.064  0.3716  0.8345  0.8031
11375TIP3   OH255615   4.657   1.267  15.962 -0.1865  0.3088 -0.5075
11375TIP3    H155616   4.652   1.181  16.005  1.4382  0.5286  0.1746
11375TIP3    H255617   4.721   1.256  15.893  1.0536  1.2941  0.4448
11376TIP3   OH255618   2.660   0.997   1.426 -0.2173  0.5010 -0.7115
11376TIP3    H155619   2.599   0.928   1.454 -0.8168  0.9639 -0.8534
11376TIP3    H255620   2.651   1.065   1.493  1.0455  0.0768 -0.0713
11377TIP3   OH255621   5.559   6.583  12.482  0.4514 -0.1205 -0.4370
11377TIP3    H155622   5.602   6.657  12.523  0.0901 -1.0114  1.6464
11377TIP3    H255623   5.631   6.527  12.452  0.7188  0.7749 -1.5305
11378TIP3   OH255624   0.564   3.388   1.763 -0.6107  0.5168 -0.1121
11378TIP3    H155625   0.575   3.405   1.669  2.9551  1.8598  0.3999
11378TIP3    H255626   0.605   3.302   1.777 -2.1179 -0.1987  0.1090
11379TIP3   OH255627   2.397   6.467  17.008  0.9072  0.1391 -0.3344
11379TIP3    H155628   2.455   6.411  17.059  0.6283  1.2445  1.2874
11379TIP3    H255629   2.325   6.410  16.983 -1.0969  0.3009  4.1095
11380TIP3   OH255630   0.866   1.341   0.980  0.0015  0.2841 -0.0679
11380TIP3    H155631   0.903   1.387   1.055 -2.2847  1.0102  0.6667
11380TIP3    H255632   0.918   1.371   0.906  1.5820  0.4029  1.0365
11381TIP3   OH255633   4.371   6.151   6.424 -0.1250  0.3112  0.6488
11381TIP3    H155634   4.317   6.144   6.503  0.8758 -0.8284  1.2500
11381TIP3    H255635   4.307   6.164   6.354 -1.2399 -1.2809  1.2965
11382TIP3   OH255636   2.018   2.332   1.251 -0.3678  0.0427  0.0827
11382TIP3    H155637   2.003   2.352   1.343 -3.6680  0.5021 -0.4506
11382TIP3    H255638   2.045   2.240   1.250 -2.0512 -0.5058  1.4236
11383TIP3   OH255639   4.761   3.600  13.989 -0.1826 -0.0345 -0.4980
11383TIP3    H155640   4.791   3.682  14.029 -1.4190  0.5127 -0.6119
11383TIP3    H255641   4.736   3.545  14.063 -1.7280  0.6817 -0.4315
11384TIP3   OH255642   5.206   0.961  15.417  0.1195  0.2058 -0.0876
11384TIP3    H155643   5.110   0.960  15.421  0.0594  1.6611 -0.5604
11384TIP3    H255644   5.234   0.942  15.506 -0.6602  1.7761  0.5191
11385TIP3   OH255645   1.418   0.907   1.354 -0.1627  0.1681  0.2511
11385TIP3    H155646   1.376   0.823   1.373 -4.0243  2.0488  0.9357
11385TIP3    H255647   1.355   0.953   1.298  2.7032  1.9194 -1.7706
11386TIP3   OH255648   3.961   0.527   4.059  0.5426  0.2024  0.7118
11386TIP3    H155649   3.923   0.602   4.107 -0.3068  0.6645 -0.6213
11386TIP3    H255650   3.986   0.564   3.974 -0.8606 -1.2193 -0.3723
11387TIP3   OH255651   6.671   0.953   0.354 -0.6577  0.3777  0.1562
11387TIP3    H155652   6.590   0.995   0.325 -0.8307 -0.2893 -0.3526
11387TIP3    H255653   6.642   0.877   0.404 -0.3554 -0.3013 -0.6795
11388TIP3   OH255654   2.125   0.051   1.482  0.2706 -0.7469  0.1338
11388TIP3    H155655   2.138   0.112   1.555 -0.3143  0.3855 -0.6665
11388TIP3    H255656   2.085  -0.026   1.522 -4.1925  1.4388  0.5963
11389TIP3   OH255657   6.221   4.943   0.816 -0.2037  0.1138  0.0831
11389TIP3    H155658   6.262   4.955   0.902  2.7352 -0.0874 -1.1592
11389TIP3    H255659   6.261   5.011   0.761 -0.3609 -1.1181 -1.6360
11390TIP3   OH255660   3.016   3.744  13.667  0.3616 -0.5284  0.1140
11390TIP3    H155661   2.981   3.734  13.578 -1.1712  1.1448  0.4501
11390TIP3    H255662   2.938   3.744  13.723  1.2033 -0.2556  1.3192
11391TIP3   OH255663   3.403   1.951  14.707 -1.0608 -0.1913 -0.6844
11391TIP3    H155664   3.412   1.999  14.624 -0.6834 -1.9639 -1.7114
11391TIP3    H255665   3.312   1.967  14.733 -0.7646  1.6334 -0.5964
11392TIP3   OH255666   4.331   5.416   2.522  0.0286  0.0482 -0.5384
11392TIP3    H155667   4.291   5.503   2.526 -0.1000  0.2166 -3.2810
11392TIP3    H255668   4.425   5.432   2.532 -0.0824  0.3670  0.0141
11393TIP3   OH255669   2.000   0.330   1.135  0.6931 -0.2718  0.2003
11393TIP3    H155670   1.910   0.303   1.119  0.9221 -0.7538 -0.2929
11393TIP3    H255671   2.005   0.419   1.099  0.0798  0.2569  1.3716
11394TIP3   OH255672   4.487   4.086  10.365  0.4643  0.4689  0.8095
11394TIP3    H155673   4.468   4.040  10.283 -1.0318  1.4829  0.5564
11394TIP3    H255674   4.535   4.022  10.417  0.1159 -0.7184 -0.2711
11395TIP3   OH255675   3.490   3.887   1.408  1.0439 -0.5867  0.2114
11395TIP3    H155676   3.482   3.826   1.335 -0.0659 -0.0453 -0.1354
11395TIP3    H255677   3.558   3.948   1.381 -0.8151  0.9108 -1.3642
11396TIP3   OH255678   0.182   4.519  12.274  0.2839 -0.4041 -0.1412
11396TIP3    H155679   0.158   4.511  12.181  0.2510  0.0590 -0.1771
11396TIP3    H255680   0.260   4.574  12.273  0.9073 -1.2691  0.0341
11397TIP3   OH255681   5.430   3.622  12.240 -0.5206  0.1395 -0.1150
11397TIP3    H155682   5.484   3.578  12.175 -0.2046  0.3077  0.0299
11397TIP3    H255683   5.347   3.639  12.195 -1.0080 -1.4669  0.1245
11398TIP3   OH255684   3.591   0.288   0.715  0.8954 -0.1280 -0.2127
11398TIP3    H155685   3.624   0.198   0.710  2.4946  0.4321 -0.4346
11398TIP3    H255686   3.518   0.290   0.654  0.7814 -1.3002 -0.1399
11399TIP3   OH255687   0.604   5.089  15.932 -0.8644 -0.7144  0.0246
11399TIP3    H155688   0.583   5.032  16.006 -2.7725  0.1242  0.1649
11399TIP3    H255689   0.639   5.169  15.971 -0.7880 -0.7094 -0.0510
11400TIP3   OH255690   2.736   2.399  10.290 -0.1952 -0.1299 -0.2786
11400TIP3    H155691   2.700   2.318  10.254 -0.7051 -0.0182 -0.0302
11400TIP3    H255692   2.703   2.403  10.380 -0.3912  0.4756 -0.3675
11401TIP3   OH255693   2.170   6.491   5.457 -0.1942  0.2047  0.3313
11401TIP3    H155694   2.220   6.522   5.532 -0.4017  1.5426 -0.0618
11401TIP3    H255695   2.177   6.561   5.393 -1.6940 -0.0329 -0.1324
11402TIP3   OH255696   1.216   6.202   1.304 -0.3500  0.4899 -0.0645
11402TIP3    H155697   1.246   6.290   1.324  1.3982 -0.3353  1.1950
11402TIP3    H255698   1.275   6.170   1.236 -0.7088  0.1394 -0.2206
11403TIP3   OH255699   6.290   0.218  17.201 -0.5851  0.2949  0.1107
11403TIP3    H155700   6.225   0.149  17.213  0.5317 -0.7551  0.3234
11403TIP3    H255701   6.300   0.224  17.106 -0.7999  0.2700  0.0848
11404TIP3   OH255702   6.569   3.712   5.269  0.3629 -0.1612 -0.3762
11404TIP3    H155703   6.566   3.794   5.220 -1.9147  0.5386  0.7908
11404TIP3    H255704   6.608   3.649   5.208  3.3644  1.9945 -0.8563
11405TIP3   OH255705   0.555   5.426  16.981 -0.4765 -0.2484 -0.2683
11405TIP3    H155706   0.638   5.379  16.991  0.0143  0.4355 -0.9635
11405TIP3    H255707   0.553   5.453  16.889 -2.2567 -1.6563 -0.6907
11406TIP3   OH255708   2.148   2.629  13.684  1.1061  0.6152  0.0010
11406TIP3    H155709   2.138   2.597  13.594  2.2333 -0.5635  0.2602
11406TIP3    H255710   2.239   2.660  13.688  1.2736  0.0335  0.9082
11407TIP3   OH255711   4.041   0.398  16.329  0.3710 -0.3262 -0.0861
11407TIP3    H155712   3.979   0.425  16.397  1.5260 -0.2252  0.9709
11407TIP3    H255713   3.999   0.422  16.247 -0.6171  0.5067  0.6347
11408TIP3   OH255714   0.295   3.181  15.766 -0.2165  0.4188  0.7244
11408TIP3    H155715   0.372   3.229  15.736  0.3242  0.4184  2.0534
11408TIP3    H255716   0.224   3.245  15.764  0.1229  0.7980  0.8355
11409TIP3   OH255717   3.298   4.260   3.473 -0.2602 -0.3028 -0.2067
11409TIP3    H155718   3.295   4.257   3.378  0.4688  3.8670 -0.5404
11409TIP3    H255719   3.275   4.171   3.501  0.7162 -2.0056 -4.2191
11410TIP3   OH255720   2.198   1.218  12.079 -0.0282 -0.0449 -0.4487
11410TIP3    H155721   2.197   1.299  12.130  0.3037 -0.3040 -0.0277
11410TIP3    H255722   2.153   1.240  11.997 -0.8318  0.2906  0.0802
11411TIP3   OH255723   4.871   1.044   5.833 -0.0184  0.0083  0.2363
11411TIP3    H155724   4.833   0.964   5.868 -0.2115  0.9778  2.3900
11411TIP3    H255725   4.957   1.051   5.876  0.0276  0.9131  0.0128
11412TIP3   OH255726   0.530   5.495   5.377  0.3347  0.4924  0.1106
11412TIP3    H155727   0.607   5.454   5.418  1.1900  2.3733  0.4954
11412TIP3    H255728   0.456   5.463   5.429  0.9308 -0.6742  0.2831
11413TIP3   OH255729   4.558   5.303   2.089  0.3306 -0.0552  0.6096
11413TIP3    H155730   4.488   5.330   2.148  0.5363 -1.1410  1.3754
11413TIP3    H255731   4.521   5.228   2.041  1.0981 -0.9274  1.3448
11414TIP3   OH255732   5.500   2.416   3.927  0.0298  0.0156  0.3601
11414TIP3    H155733   5.492   2.454   4.014  0.1283  1.9084 -0.4153
11414TIP3    H255734   5.533   2.487   3.872  0.1167 -1.1710 -1.2015
11415TIP3   OH255735   3.919   1.892  12.754  0.2129  0.0471  0.0879
11415TIP3    H155736   3.935   1.818  12.695  0.8014  0.4700 -0.2918
11415TIP3    H255737   3.995   1.894  12.811  0.0260  0.1429  0.3346
11416TIP3   OH255738   1.076   3.203  16.602 -0.6019 -0.4789  0.1647
11416TIP3    H155739   0.992   3.158  16.592 -0.6146 -0.5634  0.6025
11416TIP3    H255740   1.124   3.150  16.667 -0.3945 -0.1786  0.2610
11417TIP3   OH255741   1.403   4.805   0.643  0.2762  0.5123  0.5939
11417TIP3    H155742   1.384   4.819   0.736 -0.8718 -0.4776  0.5353
11417TIP3    H255743   1.454   4.724   0.640 -2.3899 -1.3007  0.2050
11418TIP3   OH255744   4.553   4.473  16.691  0.2383  0.3097 -0.1881
11418TIP3    H155745   4.634   4.456  16.739 -0.2398 -0.3140  0.4237
11418TIP3    H255746   4.500   4.395  16.707 -0.8676  1.1319  0.2380
11419TIP3   OH255747   4.247   1.159  13.196 -0.2670  0.1458  0.5174
11419TIP3    H155748   4.274   1.142  13.105  0.8882 -1.2038  1.0595
11419TIP3    H255749   4.197   1.081  13.221  0.3877 -0.0197  1.3700
11420TIP3   OH255750   5.603   1.955  15.936  0.0306 -0.3491  1.0055
11420TIP3    H155751   5.684   1.979  15.980 -0.4151  1.3330  0.9924
11420TIP3    H255752   5.567   2.038  15.905 -0.8363 -1.2411 -0.5035
11421TIP3   OH255753   1.699   2.833   0.730 -0.1017  0.0875 -0.3428
11421TIP3    H155754   1.662   2.779   0.800  0.4275  1.0219  0.7095
11421TIP3    H255755   1.783   2.863   0.766  1.8978 -2.1927 -2.7452
11422TIP3   OH255756   4.193   5.602  12.185 -0.1680  0.3934  0.3614
11422TIP3    H155757   4.288   5.598  12.174 -0.3458 -0.5247 -1.1513
11422TIP3    H255758   4.162   5.648  12.107 -1.2823 -3.6412 -1.9110
11423TIP3   OH255759   1.609   2.756   2.142 -0.5274 -0.1378  0.7960
11423TIP3    H155760   1.517   2.766   2.119 -0.6241 -0.1411  1.1649
11423TIP3    H255761   1.656   2.808   2.077 -0.8589  0.7175  1.2254
11424TIP3   OH255762   1.587   6.784   0.556  0.0016  0.0381 -0.6259
11424TIP3    H155763   1.607   6.811   0.467 -0.6617  1.7980 -0.2843
11424TIP3    H255764   1.491   6.781   0.559  0.0287 -0.4413 -0.0939
11425TIP3   OH255765   0.442   4.197   2.549  0.1447 -0.0098  0.7486
11425TIP3    H155766   0.503   4.189   2.623  0.5437  0.2595  0.4534
11425TIP3    H255767   0.464   4.281   2.509  1.3337 -1.0563 -0.9138
11426TIP3   OH255768   5.803   1.844   5.963 -0.5552  0.0361 -0.4617
11426TIP3    H155769   5.884   1.859   6.012 -0.3705  1.8598 -1.2451
11426TIP3    H255770   5.734   1.877   6.020 -0.6059 -0.1854 -0.3934
11427TIP3   OH255771   5.786   1.226  11.580 -0.0773 -0.0506  0.6697
11427TIP3    H155772   5.824   1.209  11.494 -0.2298  0.6560  0.4537
11427TIP3    H255773   5.854   1.200  11.642  0.7980  1.2454  0.2918
11428TIP3   OH255774   2.924   3.649   1.565  0.2563 -0.1550  0.1364
11428TIP3    H155775   2.938   3.743   1.551  0.0941  0.1581  1.8904
11428TIP3    H255776   2.873   3.644   1.645  1.0341 -1.7857  0.5725
11429TIP3   OH255777   2.453   0.604  17.058  0.4035  0.1676  0.3304
11429TIP3    H155778   2.501   0.669  17.108  1.0836 -0.3300  0.3346
11429TIP3    H255779   2.457   0.525  17.112  2.3528 -0.7964 -1.0961
11430TIP3   OH255780   5.909   6.567   2.559  0.2495  0.3622 -0.6459
11430TIP3    H155781   5.976   6.536   2.499  1.7791 -1.3299  1.7732
11430TIP3    H255782   5.953   6.633   2.613  0.6708 -1.9455  2.0901
11431TIP3   OH255783   1.970   6.809   1.219 -0.2573 -0.0132 -0.4804
11431TIP3    H155784   1.989   6.810   1.126  1.1831  1.2768 -0.2136
11431TIP3    H255785   2.046   6.851   1.260 -0.7491 -0.7454  1.2928
11432TIP3   OH255786   5.628   3.701   1.385 -0.2227  0.4272 -0.6848
11432TIP3    H155787   5.568   3.773   1.362 -1.8953 -1.0592 -1.2155
11432TIP3    H255788   5.573   3.623   1.381  0.9324 -0.6641  2.2771
11433TIP3   OH255789   1.185   5.200  17.247  0.2621 -0.1098  0.1498
11433TIP3    H155790   1.184   5.203  17.343 -1.9487  1.3646  0.1386
11433TIP3    H255791   1.217   5.112  17.226  0.7313 -0.4826  2.2269
11434TIP3   OH255792   1.001   3.200   3.948 -0.6549  0.7123  0.3249
11434TIP3    H155793   1.004   3.107   3.968 -0.9882  0.5706 -0.2465
11434TIP3    H255794   1.006   3.205   3.853  1.9294  1.4169  0.4336
11435TIP3   OH255795   6.030   3.865  17.113  0.0208  0.1119 -0.2836
11435TIP3    H155796   6.044   3.952  17.151  4.0514 -0.7429  0.6055
11435TIP3    H255797   6.009   3.810  17.188  0.8021 -0.2633 -0.3332
11436TIP3   OH255798   6.766   4.095  15.231  0.5787 -0.4159  0.0425
11436TIP3    H155799   6.829   4.087  15.159 -0.0324  0.2200 -0.5709
11436TIP3    H255800   6.688   4.051  15.199  0.1861  0.1750  0.1756
11437TIP3   OH255801   4.144   4.551  14.169  0.2473  0.0484  0.1019
11437TIP3    H155802   4.153   4.506  14.085  1.9243 -1.5398  1.0820
11437TIP3    H255803   4.157   4.483  14.235 -0.0390  1.4473  1.6701
11438TIP3   OH255804   5.607   1.265  16.287 -0.2514  0.0177 -0.2198
11438TIP3    H155805   5.560   1.229  16.212 -1.6475  0.6293  0.3249
11438TIP3    H255806   5.640   1.349  16.256  1.4103 -0.8357 -0.9115
11439TIP3   OH255807   5.642   1.007   3.694 -0.9790  0.6475  0.1734
11439TIP3    H155808   5.606   0.932   3.646 -2.1271  1.8091 -0.8418
11439TIP3    H255809   5.711   0.969   3.749 -0.2591 -0.8870 -1.6670
11440TIP3   OH255810   5.819   0.351   4.224 -0.1093  0.8413 -0.5551
11440TIP3    H155811   5.885   0.308   4.170  1.3551 -0.3311  1.9608
11440TIP3    H255812   5.855   0.346   4.313 -3.7542 -0.2741  1.0489
11441TIP3   OH255813   4.082   0.782  11.563  0.4020  0.0538  0.1543
11441TIP3    H155814   4.175   0.763  11.574  0.5176  1.0246  1.0965
11441TIP3    H255815   4.038   0.704  11.598  0.8402 -0.6762 -0.8671
11442TIP3   OH255816   2.750   5.475   1.427  0.2907  0.0074  0.1042
11442TIP3    H155817   2.666   5.461   1.470  0.4794 -3.7599 -0.4749
11442TIP3    H255818   2.815   5.443   1.490  1.0250 -0.0817 -0.6769
11443TIP3   OH255819   4.321   6.368  16.173  0.3589 -0.3487  0.0120
11443TIP3    H155820   4.304   6.340  16.083  1.9957  3.1324 -1.6097
11443TIP3    H255821   4.235   6.386  16.210 -0.3286 -1.5321 -0.9491
11444TIP3   OH255822   3.437   5.211  12.634 -0.2510  0.5662  0.3510
11444TIP3    H155823   3.423   5.182  12.725  0.3856 -0.6559  0.0866
11444TIP3    H255824   3.388   5.148  12.581  1.9076 -0.6943 -0.2950
11445TIP3   OH255825   6.514   1.454   4.320 -0.1922 -0.6854 -0.3464
11445TIP3    H155826   6.501   1.505   4.400  0.6034 -0.0152 -0.6151
11445TIP3    H255827   6.431   1.459   4.274 -0.7311 -1.2855  0.5541
11446TIP3   OH255828   2.786   6.395   1.187  0.4861 -0.1423 -0.5067
11446TIP3    H155829   2.709   6.445   1.215  1.9860  1.1825  1.5763
11446TIP3    H255830   2.850   6.411   1.256  1.8028 -3.2514 -0.8871
11447TIP3   OH255831   3.361   2.993   2.780  0.4718 -0.1567  0.5247
11447TIP3    H155832   3.403   3.062   2.831 -0.8496  1.7133 -0.7961
11447TIP3    H255833   3.396   3.004   2.691 -1.0923 -0.0157 -0.0955
11448TIP3   OH255834   3.347   6.387  15.684  0.3014  0.0001 -0.4651
11448TIP3    H155835   3.308   6.425  15.605 -0.8372  1.6416  0.8151
11448TIP3    H255836   3.272   6.351  15.732  1.0791 -1.6754 -0.4620
11449TIP3   OH255837   6.604   6.185   5.433 -0.8522 -0.1673  0.3668
11449TIP3    H155838   6.629   6.123   5.365  0.7997  0.0889  0.6914
11449TIP3    H255839   6.510   6.170   5.447 -0.6543 -2.0512 -0.0816
11450TIP3   OH255840   4.938   4.028   0.629 -0.0952  0.4377  0.2427
11450TIP3    H155841   4.954   3.934   0.639  2.4927  0.9982  2.3939
11450TIP3    H255842   4.855   4.042   0.674 -2.3348 -1.1990 -2.9869
11451TIP3   OH255843   3.212   4.411  12.790 -0.5931  0.6327 -0.5104
11451TIP3    H155844   3.180   4.376  12.874 -0.0076  1.5184  0.0999
11451TIP3    H255845   3.153   4.373  12.725 -0.4692 -0.8518  0.1903
11452TIP3   OH255846   1.335   3.055  11.953  0.0984  0.3729 -0.7822
11452TIP3    H155847   1.329   3.113  11.876  3.4566  1.9626 -0.0345
11452TIP3    H255848   1.349   3.115  12.026 -0.6372 -1.2290  0.7150
11453TIP3   OH255849   5.252   3.330   6.471 -0.4576 -0.3439  0.1626
11453TIP3    H155850   5.321   3.273   6.505  0.2292  2.0604  3.2706
11453TIP3    H255851   5.173   3.276   6.473  0.6550 -2.0614  0.0503
11454TIP3   OH255852   4.983   0.684  14.115 -0.4932  0.2652  0.3600
11454TIP3    H155853   4.929   0.615  14.077  0.7976  0.6939 -2.6022
11454TIP3    H255854   4.940   0.765  14.088  1.3826  0.6138 -1.9702
11455TIP3   OH255855   0.392   3.148  13.616  0.2523  0.2355 -0.2744
11455TIP3    H155856   0.473   3.155  13.564  0.7539  0.6646  0.5453
11455TIP3    H255857   0.419   3.168  13.705 -1.0378  1.9528 -0.2158
11456TIP3   OH255858   3.832   1.414   6.183  0.0416 -0.5094 -0.4758
11456TIP3    H155859   3.847   1.450   6.095 -0.0357 -0.4360 -0.4587
11456TIP3    H255860   3.919   1.392   6.215  0.0952 -0.2730 -0.4585
11457TIP3   OH255861   3.171   3.986  10.277  0.0661 -0.2825 -0.5683
11457TIP3    H155862   3.077   3.973  10.267 -0.2920  1.7232 -0.3339
11457TIP3    H255863   3.186   3.987  10.371 -0.4421  3.2728 -0.3589
11458TIP3   OH255864   2.338   6.623   3.945  0.1546 -0.1134 -0.4237
11458TIP3    H155865   2.380   6.546   3.984  0.1232  0.2294  0.3046
11458TIP3    H255866   2.319   6.680   4.020  1.1716  1.0973 -1.0469
11459TIP3   OH255867   5.921   0.363  12.838 -0.0139 -0.3650  0.4374
11459TIP3    H155868   5.970   0.401  12.911  0.5567  0.4557 -0.3454
11459TIP3    H255869   5.839   0.411  12.836  0.4973  0.5259 -0.2332
11460TIP3   OH255870   5.376   2.137   2.453 -0.3398 -0.3154  0.2822
11460TIP3    H155871   5.435   2.146   2.379 -1.6232 -1.1593 -0.8925
11460TIP3    H255872   5.419   2.074   2.511  0.1061 -0.6168 -0.3633
11461TIP3   OH255873   5.508   3.655   4.377  0.1267 -0.5602  0.5362
11461TIP3    H155874   5.461   3.595   4.319  0.6074  0.4373 -0.9697
11461TIP3    H255875   5.554   3.714   4.317  1.0145  0.2529  1.9608
11462TIP3   OH255876   0.088   1.522  15.215  0.0876 -0.1599 -0.4699
11462TIP3    H155877   0.087   1.611  15.251  2.3656  0.1272 -0.9203
11462TIP3    H255878   0.103   1.466  15.291 -2.6436 -0.3475  0.0058
11463TIP3   OH255879   0.040   4.200  10.991 -0.7155 -0.2042 -0.2796
11463TIP3    H155880  -0.050   4.227  10.975 -0.2424  0.1818 -2.6946
11463TIP3    H255881   0.080   4.197  10.904  2.4788  2.8074  0.8521
11464TIP3   OH255882   1.270   4.523  12.324  0.9508  0.3821  0.7390
11464TIP3    H155883   1.329   4.495  12.394  1.4457 -1.3656 -0.3009
11464TIP3    H255884   1.292   4.465  12.251  1.9468  3.4674 -1.5980
11465TIP3   OH255885   1.803   5.024  13.888  0.0527  0.2862  0.2963
11465TIP3    H155886   1.872   4.979  13.937 -1.6348 -0.6585  1.9374
11465TIP3    H255887   1.722   5.000  13.933 -1.2827  2.1105 -0.9722
11466TIP3   OH255888   5.188   1.916   0.446  0.7193  0.8520  0.0644
11466TIP3    H155889   5.117   1.872   0.400  0.9041 -0.3420  0.8760
11466TIP3    H255890   5.267   1.872   0.417  0.9726  1.1101  0.3522
11467TIP3   OH255891   6.413   3.642   4.331  0.3030  0.0234  0.2986
11467TIP3    H155892   6.462   3.681   4.404 -0.2834 -2.2472  2.0054
11467TIP3    H255893   6.324   3.673   4.342  0.1011 -0.7472  0.8997
11468TIP3   OH255894   6.749   2.942   5.732 -0.1173  0.0563 -0.1965
11468TIP3    H155895   6.747   3.031   5.768 -0.2460 -0.1659  0.3558
11468TIP3    H255896   6.822   2.943   5.670 -0.9985  0.9422 -1.2671
11469TIP3   OH255897   1.703   2.479  10.625  0.3293 -0.0853  0.1005
11469TIP3    H155898   1.772   2.425  10.663  0.5589  0.5447  0.6087
11469TIP3    H255899   1.678   2.539  10.695 -0.9534 -0.4906  0.0160
11470TIP3   OH255900   3.053   5.444  16.828 -0.6619 -0.4428 -0.0324
11470TIP3    H155901   2.969   5.473  16.863 -1.1220 -1.2076 -0.4960
11470TIP3    H255902   3.075   5.366  16.878 -0.0742 -0.0858  0.2862
11471TIP3   OH255903   3.636   3.376  16.553 -0.8491  0.0165 -0.0956
11471TIP3    H155904   3.547   3.346  16.571 -1.1812  1.6009  1.1250
11471TIP3    H255905   3.667   3.412  16.636  1.1513 -0.9627 -0.3531
11472TIP3   OH255906   5.740   4.558   0.105 -0.2439 -0.9451 -0.6198
11472TIP3    H155907   5.682   4.558   0.181 -0.6368 -1.6312 -0.9101
11472TIP3    H255908   5.767   4.650   0.095 -0.0629 -0.8774  0.4296
11473TIP3   OH255909   3.535   1.575  15.346 -0.3164 -0.2322  0.3219
11473TIP3    H155910   3.459   1.630  15.368  1.2673  1.8781  0.8161
11473TIP3    H255911   3.589   1.574  15.425 -0.3950 -2.8662  0.4464
11474TIP3   OH255912   0.589   2.895  14.817  0.0053  0.2710  0.7065
11474TIP3    H155913   0.521   2.892  14.750  1.4722 -1.7885 -0.8227
11474TIP3    H255914   0.545   2.927  14.895 -1.9705  2.0296 -1.0024
11475TIP3   OH255915   4.462   2.502   5.287 -0.0119 -0.6202 -0.0756
11475TIP3    H155916   4.409   2.532   5.213 -1.6469 -0.6995  1.0031
11475TIP3    H255917   4.541   2.557   5.284 -0.1698 -0.4413 -1.6916
11476TIP3   OH255918   0.340   0.657   2.727  0.3058 -0.2475  0.3191
11476TIP3    H155919   0.402   0.587   2.747  0.3772 -0.1938  0.2848
11476TIP3    H255920   0.256   0.612   2.718 -0.0502 -0.0820  2.3496
11477TIP3   OH255921   1.311   2.197   5.128  0.1143  0.0731  0.3630
11477TIP3    H155922   1.337   2.141   5.055 -0.8754 -1.5249  1.1649
11477TIP3    H255923   1.368   2.170   5.200  1.0413  1.5947  0.2447
11478TIP3   OH255924   4.526   1.470   2.627 -0.1737 -0.0152  0.2184
11478TIP3    H155925   4.489   1.531   2.563  0.3659 -0.7557 -0.8271
11478TIP3    H255926   4.461   1.401   2.635 -0.0759 -0.1121  0.1811
11479TIP3   OH255927   2.609   6.042  15.027  0.4303  0.2648  0.1074
11479TIP3    H155928   2.538   6.106  15.016  0.5843  0.0340 -2.6910
11479TIP3    H255929   2.689   6.094  15.018  0.5986  0.0223  0.1945
11480TIP3   OH255930   5.551   5.305   5.549 -0.0518  0.0715 -0.2515
11480TIP3    H155931   5.591   5.357   5.479 -2.5957 -0.7960 -2.5391
11480TIP3    H255932   5.576   5.350   5.630  2.3401  1.6274 -1.7338
11481TIP3   OH255933   4.150   5.072   3.477 -0.5179  0.3507 -0.1173
11481TIP3    H155934   4.107   4.999   3.433  1.3541 -1.2369  0.5767
11481TIP3    H255935   4.207   5.110   3.411  0.3384 -0.3846  0.1857
11482TIP3   OH255936   2.853   5.096   2.067 -0.5660  0.1415 -0.2016
11482TIP3    H155937   2.944   5.126   2.062 -0.6378  0.4786  0.4723
11482TIP3    H255938   2.849   5.024   2.004  0.3174 -0.2397  0.1493
11483TIP3   OH255939   6.538   4.793  13.521  0.3517 -0.6744 -0.3567
11483TIP3    H155940   6.547   4.698  13.531  0.1986 -0.7271 -0.7154
11483TIP3    H255941   6.627   4.826  13.528  0.7045 -1.0550 -2.4284
11484TIP3   OH255942   5.199   5.229   1.227 -0.4930 -0.1622  0.6800
11484TIP3    H155943   5.197   5.316   1.188 -3.2488  0.0348  1.0839
11484TIP3    H255944   5.235   5.242   1.314  1.6895  0.0621 -0.1763
11485TIP3   OH255945   5.664   5.866   1.981  0.6510 -0.1678  0.6697
11485TIP3    H155946   5.572   5.876   1.959  0.8440 -1.5583 -0.9327
11485TIP3    H255947   5.670   5.891   2.073 -1.2593  0.1832  0.7267
11486TIP3   OH255948   5.346   6.383   0.953 -0.0068 -0.0882  0.2246
11486TIP3    H155949   5.266   6.422   0.916  1.6118  1.1000 -2.2899
11486TIP3    H255950   5.316   6.338   1.032 -2.8021  2.1862  0.6539
11487TIP3   OH255951   6.068   4.790   3.527 -0.3841  0.1070 -0.0116
11487TIP3    H155952   6.019   4.841   3.462  0.1008  1.3304  0.5506
11487TIP3    H255953   6.134   4.744   3.476  0.3769  1.5166 -0.3458
11488TIP3   OH255954   4.539   4.485  11.201 -0.1956 -0.1409 -0.2223
11488TIP3    H155955   4.585   4.410  11.163 -0.2107  0.3775 -1.2841
11488TIP3    H255956   4.593   4.510  11.276  0.5262 -0.3864 -0.6452
11489TIP3   OH255957   5.959   3.664  13.645 -0.0898  0.3700 -0.2274
11489TIP3    H155958   5.868   3.672  13.616  0.1779 -1.2371 -1.6327
11489TIP3    H255959   5.973   3.570  13.656  1.4662  0.5661 -0.2565
11490TIP3   OH255960   3.125   4.488  14.279  0.8221 -0.3913  0.0695
11490TIP3    H155961   3.211   4.517  14.310  2.2649 -1.5905 -2.5210
11490TIP3    H255962   3.137   4.474  14.185 -2.5759  0.6378 -0.6426
11491TIP3   OH255963   0.048   1.369  10.693 -0.1206 -0.2554  0.0438
11491TIP3    H155964  -0.026   1.429  10.702  0.0922  0.5120 -2.3335
11491TIP3    H255965   0.124   1.422  10.717 -0.0910 -0.0901 -0.4006
11492TIP3   OH255966   4.482   6.808   0.610  0.1032  0.1304  0.5755
11492TIP3    H155967   4.450   6.748   0.678  0.6977 -0.3486  0.4426
11492TIP3    H255968   4.404   6.833   0.561 -0.0328 -1.3623 -0.0256
11493TIP3   OH255969   1.209   6.546  13.809 -0.2567  0.6449 -0.6509
11493TIP3    H155970   1.192   6.571  13.900 -1.5424 -1.7228 -0.1609
11493TIP3    H255971   1.122   6.541  13.769  0.1623 -0.0827 -1.4991
11494TIP3   OH255972   0.909   4.334  10.676 -0.3969  0.1526  0.1293
11494TIP3    H155973   0.933   4.426  10.669 -0.8082  0.4646  2.2290
11494TIP3    H255974   0.813   4.334  10.681 -0.5110 -0.5499 -1.5329
11495TIP3   OH255975   5.523   2.948  14.818  0.0931 -0.4148 -0.3190
11495TIP3    H155976   5.495   3.029  14.861 -2.9981 -1.2329 -0.5084
11495TIP3    H255977   5.518   2.882  14.886 -1.5497 -1.1200 -1.0586
11496TIP3   OH255978   2.741   0.845   5.263  0.0465  0.1148 -0.7140
11496TIP3    H155979   2.754   0.789   5.338 -3.2858  0.0960  0.0264
11496TIP3    H255980   2.814   0.907   5.265  0.9485 -0.9423  1.5012
11497TIP3   OH255981   2.340   5.393   4.169  0.0747 -0.2731  0.2203
11497TIP3    H155982   2.333   5.331   4.242  0.6552 -0.3791  0.1877
11497TIP3    H255983   2.363   5.339   4.094  1.6480  0.1061  0.4049
11498TIP3   OH255984   4.245   1.411   3.033  0.3854  1.2764 -0.0752
11498TIP3    H155985   4.157   1.378   3.049  0.5563 -0.0654 -1.6023
11498TIP3    H255986   4.243   1.502   3.063 -1.5264  1.3001 -0.1563
11499TIP3   OH255987   5.554   2.464  11.194 -0.5183  0.0767 -0.1581
11499TIP3    H155988   5.616   2.391  11.190  0.1272  0.5464  0.8627
11499TIP3    H255989   5.504   2.457  11.113  0.8977 -0.2895 -1.0369
11500TIP3   OH255990   4.439   6.048   0.126  0.2856  0.1755  0.1814
11500TIP3    H155991   4.387   6.011   0.197 -0.9834  0.1541 -0.7181
11500TIP3    H255992   4.414   5.997   0.049 -0.4143  1.9150 -0.8063
11501TIP3   OH255993   4.272   2.162   5.269  0.0568  1.2091  0.2421
11501TIP3    H155994   4.202   2.138   5.329 -1.3828  0.8092 -1.5067
11501TIP3    H255995   4.227   2.204   5.196  1.1430 -2.0317 -2.5629
11502TIP3   OH255996   0.931   4.951   1.698 -0.4486  0.0850 -0.5027
11502TIP3    H155997   0.981   4.897   1.760 -0.2493  4.1251  3.3272
11502TIP3    H255998   0.992   4.972   1.629  1.0587 -0.4743  0.6060
11503TIP3   OH255999   5.810   6.190   2.769  0.2252  0.4300 -0.6153
11503TIP3    H156000   5.727   6.192   2.818 -0.1163  0.8404 -1.2070
11503TIP3    H256001   5.803   6.262   2.707  1.2942  0.8545 -0.2522
11504TIP3   OH256002   2.411   1.841  14.717  0.4976 -0.4353  0.2351
11504TIP3    H156003   2.455   1.820  14.635  0.7381  0.8859  0.0081
11504TIP3    H256004   2.324   1.803  14.708 -0.9689  3.0374 -2.3943
11505TIP3   OH256005   2.223   6.772   3.702  0.3110 -0.2657  0.2307
11505TIP3    H156006   2.239   6.861   3.734 -2.1477  0.5327 -0.4801
11505TIP3    H256007   2.232   6.717   3.780 -1.2811  1.0681  1.4487
11506TIP3   OH256008   2.430   2.808   1.347 -0.1712 -0.0882 -0.4260
11506TIP3    H156009   2.352   2.863   1.334 -1.7104 -1.9393  0.4127
11506TIP3    H256010   2.470   2.842   1.427 -1.4137 -0.4606  0.3932
11507TIP3   OH256011   2.537   4.975  12.368 -0.2065  0.5796 -0.8476
11507TIP3    H156012   2.516   4.882  12.354  0.8394  0.2238 -0.1511
11507TIP3    H256013   2.524   4.988  12.462  1.0874  0.7564 -0.6866
11508TIP3   OH256014   3.870   4.151   3.234  0.8330  0.0772 -0.0951
11508TIP3    H156015   3.799   4.195   3.187  0.2098 -1.9195 -1.1077
11508TIP3    H256016   3.935   4.131   3.167  1.1567 -0.4363  0.3604
11509TIP3   OH256017   4.011   4.713   3.826  0.2977 -0.2914  0.4122
11509TIP3    H156018   4.017   4.789   3.768 -0.8511 -0.9206 -0.5724
11509TIP3    H256019   3.930   4.727   3.875  1.2185  0.2029  1.8884
11510TIP3   OH256020   1.378   5.172  14.091 -0.0315 -0.0585 -0.3659
11510TIP3    H156021   1.432   5.099  14.121  0.5958  0.4630 -0.2129
11510TIP3    H256022   1.432   5.250  14.107  0.1054  0.2909 -2.3355
11511TIP3   OH256023   1.464   1.617  15.602  0.0982 -0.1550 -0.5081
11511TIP3    H156024   1.498   1.583  15.685  2.2089  1.6110 -0.5638
11511TIP3    H256025   1.496   1.556  15.536 -0.5773 -0.8939 -0.1794
11512TIP3   OH256026   0.211   3.290   4.876  0.5502  0.1538  0.4810
11512TIP3    H156027   0.178   3.362   4.929 -0.6218 -0.3543  0.4598
11512TIP3    H256028   0.266   3.239   4.937  0.1481  0.2162  0.8985
11513TIP3   OH256029   5.772   0.082   0.796  0.8280 -0.4662  0.1577
11513TIP3    H156030   5.822   0.059   0.718  0.1551 -1.5148  0.0084
11513TIP3    H256031   5.688   0.037   0.785  0.4557 -0.0595  1.1568
11514TIP3   OH256032   1.411   2.004  10.750 -0.0718 -0.3672 -0.0748
11514TIP3    H156033   1.432   2.003  10.657  0.3441  0.5723 -0.0086
11514TIP3    H256034   1.330   2.056  10.755  0.7244  0.9014  0.2100
11515TIP3   OH256035   1.007   1.861   2.811  0.1414 -0.9483  0.0022
11515TIP3    H156036   1.020   1.943   2.763  1.6127 -1.3976 -0.4188
11515TIP3    H256037   1.015   1.792   2.745 -0.1303 -1.4713  0.4997
11516TIP3   OH256038   2.229   5.297   5.402 -0.1691 -0.4253  0.1939
11516TIP3    H156039   2.155   5.298   5.462 -1.9338 -2.3518 -1.7857
11516TIP3    H256040   2.191   5.280   5.316  2.3995  0.5692 -1.2753
11517TIP3   OH256041   2.868   3.067  11.988 -0.0597  0.1038 -0.1572
11517TIP3    H156042   2.801   3.109  11.934 -1.0931 -2.3265 -0.8798
11517TIP3    H256043   2.939   3.132  11.993 -1.8238  2.1652 -0.6030
11518TIP3   OH256044   1.424   3.442  10.969  0.5545  0.8977 -0.1630
11518TIP3    H156045   1.429   3.533  10.938  0.0661  0.5868 -1.1879
11518TIP3    H256046   1.372   3.397  10.903 -1.6711  0.4768  1.7305
11519TIP3   OH256047   6.459   3.595   1.883 -0.5646  0.2059  0.3309
11519TIP3    H156048   6.439   3.640   1.965 -1.4569  0.8540 -0.2174
11519TIP3    H256049   6.542   3.633   1.854 -0.6126  0.4969  0.5758
11520TIP3   OH256050   2.936   5.480   5.883  0.4593  0.3705  0.0906
11520TIP3    H156051   2.858   5.446   5.927  1.1615 -0.7277  0.5233
11520TIP3    H256052   3.003   5.483   5.951  1.3211 -0.5359 -0.6815
11521TIP3   OH256053   5.034   6.133   2.006  0.3023  0.5327  0.0007
11521TIP3    H156054   5.112   6.117   1.952  0.1665  1.4153 -0.4807
11521TIP3    H256055   5.054   6.214   2.053 -0.2879  0.7240 -0.0711
11522TIP3   OH256056   2.516   6.744  13.141  0.6599 -0.1898  0.4869
11522TIP3    H156057   2.476   6.830  13.150  0.5442 -0.1830 -0.0629
11522TIP3    H256058   2.479   6.692  13.212 -2.2496 -0.9110 -1.3823
11523TIP3   OH256059   4.711   3.661   5.542  0.0458  0.2794  0.9270
11523TIP3    H156060   4.630   3.620   5.573 -0.0227  2.0358  3.2626
11523TIP3    H256061   4.766   3.669   5.620  1.4611  1.4362 -0.1338
11524TIP3   OH256062   3.246   1.880  11.913  0.1590  0.4773 -0.1732
11524TIP3    H156063   3.215   1.960  11.872  2.4352  1.3416 -0.3899
11524TIP3    H256064   3.169   1.823  11.917 -1.5943  2.7533  0.2796
11525TIP3   OH256065   5.890   1.825  13.186  0.1902 -0.1981  0.1478
11525TIP3    H156066   5.846   1.750  13.146  1.3183 -0.3020 -0.9359
11525TIP3    H256067   5.858   1.901  13.138  0.9206 -0.2447 -0.4359
11526TIP3   OH256068   1.278   5.761  12.985 -0.0416 -0.1506 -0.1083
11526TIP3    H156069   1.251   5.737  12.896 -1.4828 -1.2268  0.5827
11526TIP3    H256070   1.333   5.688  13.014 -0.7169 -0.4799  0.3680
11527TIP3   OH256071   6.256   2.535  14.512 -0.3646  0.3498  0.1095
11527TIP3    H156072   6.170   2.560  14.479 -0.4533 -0.4113 -0.2590
11527TIP3    H256073   6.253   2.440  14.520  0.4104  0.3191  0.1782
11528TIP3   OH256074   5.046   6.346   3.603 -0.4635  0.2104 -0.2383
11528TIP3    H156075   5.093   6.370   3.683  0.8602 -2.0080 -0.2778
11528TIP3    H256076   5.069   6.415   3.541 -0.3205  1.1756  0.8396
11529TIP3   OH256077   2.223   6.419   1.073 -0.3727 -0.1249 -0.6809
11529TIP3    H156078   2.130   6.428   1.093 -0.8273 -0.2154 -2.5592
11529TIP3    H256079   2.255   6.509   1.066 -1.1168  0.0210 -3.2139
11530TIP3   OH256080   0.763   0.197   4.645  0.4137  0.0104 -0.4673
11530TIP3    H156081   0.718   0.177   4.563 -0.3156  0.5155 -0.1984
11530TIP3    H256082   0.714   0.270   4.682  1.2712  0.3727 -0.0141
11531TIP3   OH256083   2.781   1.178   5.868 -0.4691 -0.7738 -0.4328
11531TIP3    H156084   2.870   1.206   5.847 -0.7316  1.2260  0.8539
11531TIP3    H256085   2.790   1.125   5.947 -0.2848 -1.9300 -1.2063
11532TIP3   OH256086   4.423   1.329  11.244 -0.1181  0.1835 -0.0491
11532TIP3    H156087   4.330   1.350  11.249 -0.0355  0.3866  0.8142
11532TIP3    H256088   4.460   1.396  11.187 -0.3865  0.4991  0.1443
11533TIP3   OH256089   6.470   6.299  14.133  0.1593  0.6267 -0.1068
11533TIP3    H156090   6.480   6.368  14.199  0.6043  0.6764 -0.2269
11533TIP3    H256091   6.501   6.339  14.052 -2.3682  1.3139 -0.8373
11534TIP3   OH256092   2.772   2.941  13.499  0.0594  0.5426  0.3683
11534TIP3    H156093   2.717   2.944  13.577 -1.7814  0.8416 -0.8722
11534TIP3    H256094   2.744   3.017  13.447  0.9837  0.1559 -0.7463
11535TIP3   OH256095   4.317   5.354   5.429  0.1854 -0.8053  0.3039
11535TIP3    H156096   4.287   5.281   5.375  0.3014 -1.9807  1.7619
11535TIP3    H256097   4.410   5.362   5.410  0.3464 -1.5900  0.7141
11536TIP3   OH256098   6.243   4.013   0.695  0.1848  0.1457 -0.4982
11536TIP3    H156099   6.236   4.025   0.790  0.4132 -2.4836 -0.0719
11536TIP3    H256100   6.260   4.100   0.661 -4.1524  2.0375  1.3970
11537TIP3   OH256101   0.665   0.028  15.108 -0.1911 -0.0607  0.0887
11537TIP3    H156102   0.685   0.004  15.199  0.1818 -1.4885 -0.3415
11537TIP3    H256103   0.747   0.063  15.074 -0.8659  2.4808  0.8646
11538TIP3   OH256104   2.765   1.729   1.711 -0.0080  0.3628  0.3072
11538TIP3    H156105   2.702   1.708   1.780  1.4109  0.6179  1.7646
11538TIP3    H256106   2.836   1.773   1.757  1.4985 -0.4130 -1.1646
11539TIP3   OH256107   2.211   4.192   5.844  0.0657 -0.2328  0.0266
11539TIP3    H156108   2.238   4.136   5.916 -2.1067 -0.1884  0.9518
11539TIP3    H256109   2.251   4.277   5.864 -1.8164  0.2594  2.1948
11540TIP3   OH256110   2.711   1.799   5.620 -0.3612  0.2608  0.0311
11540TIP3    H156111   2.679   1.875   5.668 -0.1567  0.0101  0.5753
11540TIP3    H256112   2.646   1.783   5.552 -0.7241  0.5398  0.3138
11541TIP3   OH256113   4.985   6.389  15.181 -0.2975 -0.0727 -0.0635
11541TIP3    H156114   4.898   6.364  15.152 -1.0655 -0.9073  2.6447
11541TIP3    H256115   4.971   6.468  15.234  0.9688  1.2143 -1.5308
11542TIP3   OH256116   1.697   2.251   4.511 -0.0690  0.5135 -0.2421
11542TIP3    H156117   1.671   2.291   4.594  0.1385  1.6817 -0.7181
11542TIP3    H256118   1.702   2.324   4.450  0.4887 -0.2303 -1.1144
11543TIP3   OH256119   2.225   0.625   1.433  0.0036 -0.4516 -0.1710
11543TIP3    H156120   2.235   0.598   1.341  1.1527  2.6432 -1.1012
11543TIP3    H256121   2.252   0.717   1.433 -0.9936 -0.0528  3.1189
11544TIP3   OH256122   6.353   4.700  13.997  0.3292 -0.0009  0.0913
11544TIP3    H156123   6.380   4.678  13.908  0.7145 -1.9330  0.6279
11544TIP3    H256124   6.273   4.648  14.010  0.8446 -0.5413  1.1961
11545TIP3   OH256125   3.885   4.426  13.517  0.1098 -0.0277 -0.0320
11545TIP3    H156126   3.842   4.381  13.445  1.5162 -0.2764 -0.7647
11545TIP3    H256127   3.814   4.457  13.573 -0.9897 -0.3253 -1.2243
11546TIP3   OH256128   1.741   3.751  10.366 -0.5492 -0.3705  0.7185
11546TIP3    H156129   1.674   3.810  10.401 -1.1515 -0.8343  0.3666
11546TIP3    H256130   1.697   3.703  10.296  0.7683  0.9639 -1.1380
11547TIP3   OH256131   1.269   3.843  16.556  0.1980  0.2812  0.5229
11547TIP3    H156132   1.180   3.808  16.557 -0.2244  1.2019 -0.5936
11547TIP3    H256133   1.281   3.873  16.465  1.2651  1.1007  0.9124
11548TIP3   OH256134   2.385   2.098  17.174  0.0156 -0.0434 -0.6153
11548TIP3    H156135   2.395   2.072  17.082  1.7801 -0.9025 -0.2150
11548TIP3    H256136   2.348   2.020  17.216 -0.5721  0.2700 -0.5436
11549TIP3   OH256137   4.378   5.002  14.178  0.2464 -0.4062 -0.2859
11549TIP3    H156138   4.383   4.915  14.218  0.3169  0.5486  1.9011
11549TIP3    H256139   4.439   4.998  14.105  1.2633 -1.7949  0.5762
11550TIP3   OH256140   2.057   1.882  15.426  0.6101  0.3402 -0.0333
11550TIP3    H156141   2.127   1.851  15.483 -0.8358 -0.9274  1.1389
11550TIP3    H256142   2.017   1.954  15.475  1.2024  1.2007 -0.7932
11551TIP3   OH256143   5.571   1.018   6.740 -0.0579 -0.4510 -0.2439
11551TIP3    H156144   5.527   1.076   6.678 -1.1029  0.1665  1.0155
11551TIP3    H256145   5.500   0.967   6.779  0.2543  0.6194  1.8999
11552TIP3   OH256146   2.864   6.490  15.552  0.1218 -0.7837  0.3434
11552TIP3    H156147   2.816   6.408  15.560  0.2421 -0.9967 -0.9344
11552TIP3    H256148   2.880   6.500  15.458 -0.2062  0.8824  0.4306
11553TIP3   OH256149   5.922   0.857  16.403  0.2295 -0.1759 -0.8574
11553TIP3    H156150   5.972   0.777  16.389 -0.1455 -0.2789 -1.6851
11553TIP3    H256151   5.875   0.870  16.321 -0.6875  0.2129 -0.2780
11554TIP3   OH256152   4.739   1.963   6.004 -0.2652  0.7502  0.1977
11554TIP3    H156153   4.653   1.933   6.033 -0.1527  0.3419  0.1284
11554TIP3    H256154   4.728   1.983   5.911 -0.2109  0.3822  0.1089
11555TIP3   OH256155   0.090   1.109   4.444  0.9239 -0.6178 -0.7517
11555TIP3    H156156   0.068   1.067   4.527  0.3927 -1.3185 -1.2380
11555TIP3    H256157   0.024   1.177   4.433  2.1701  0.8147  0.3547
11556TIP3   OH256158   3.553   3.952  14.976 -0.2074 -0.2639  0.1467
11556TIP3    H156159   3.559   4.033  15.025 -0.3855  0.1625 -0.5264
11556TIP3    H256160   3.549   3.979  14.885 -0.3833 -1.0231 -0.0795
11557TIP3   OH256161   0.391   5.089  12.849  0.0254  0.3351  0.0571
11557TIP3    H156162   0.472   5.133  12.873 -0.7729  0.2823  3.3118
11557TIP3    H256163   0.323   5.153  12.866 -0.7816 -0.3706 -0.4177
11558TIP3   OH256164   0.832   4.357   4.862  0.1908 -0.2960 -0.3545
11558TIP3    H156165   0.903   4.421   4.870  0.4508 -0.6748  0.6023
11558TIP3    H256166   0.753   4.409   4.848  0.6781  0.1218 -1.6729
11559TIP3   OH256167   4.665   2.657   5.158 -0.0169  0.1831  0.3888
11559TIP3    H156168   4.708   2.572   5.144 -0.8029 -0.6859  2.8130
11559TIP3    H256169   4.731   2.711   5.201  0.0284  0.3185  0.1489
11560TIP3   OH256170   0.567   5.164  14.014 -0.1511 -0.2101 -0.5940
11560TIP3    H156171   0.474   5.144  14.013 -0.4855  1.2389 -0.6536
11560TIP3    H256172   0.595   5.146  14.104 -0.6034 -0.1610 -0.4441
11561TIP3   OH256173   2.948   2.200  11.081 -0.7434 -0.0739  0.3968
11561TIP3    H156174   3.012   2.129  11.079 -0.6506 -0.0310  1.2992
11561TIP3    H256175   2.901   2.193  10.998  1.2200  0.6122 -0.8478
11562TIP3   OH256176   2.005   1.072  17.197 -0.1936  0.4676 -0.4739
11562TIP3    H156177   2.071   1.004  17.214 -1.0814 -0.8143 -1.9390
11562TIP3    H256178   1.925   1.038  17.236 -1.2077 -0.5005 -3.1833
11563TIP3   OH256179   3.425   0.139  16.693 -0.5661 -0.2978 -0.2691
11563TIP3    H156180   3.517   0.164  16.681 -0.4665 -0.7706 -0.5167
11563TIP3    H256181   3.377   0.197  16.635 -0.6499  1.4390  1.4195
11564TIP3   OH256182   5.700   6.047  14.537 -0.3770  0.0152 -0.0230
11564TIP3    H156183   5.655   6.125  14.570 -0.2260 -0.1302  0.5428
11564TIP3    H256184   5.731   6.072  14.450 -0.5921  0.4864  0.0310
11565TIP3   OH256185   3.983   2.012   6.344 -0.2473 -0.0765  0.0867
11565TIP3    H156186   3.978   1.935   6.287  1.3781 -0.2612  0.1475
11565TIP3    H256187   4.034   1.982   6.420 -0.0817  0.9078  0.3750
11566TIP3   OH256188   5.781   2.402  13.494 -0.0906  0.6958 -0.8845
11566TIP3    H156189   5.692   2.404  13.457 -0.2131 -0.3695 -0.6805
11566TIP3    H256190   5.825   2.332  13.447  0.4388  0.7777 -0.5185
11567TIP3   OH256191   5.710   2.642   1.237  0.8378  0.0535 -0.1201
11567TIP3    H156192   5.700   2.736   1.220  2.3389 -0.1418 -2.6508
11567TIP3    H256193   5.785   2.636   1.296  0.0178  0.4650  0.9904
11568TIP3   OH256194   4.830   3.649   1.081  0.3956 -1.0003  0.2658
11568TIP3    H156195   4.910   3.675   1.128  0.3554 -2.8152  1.4328
11568TIP3    H256196   4.859   3.579   1.022 -0.0898 -0.6625 -0.3902
11569TIP3   OH256197   4.165   3.115   5.714  0.4510 -0.1225  0.2910
11569TIP3    H156198   4.116   3.196   5.727 -1.2515 -1.1895  0.7618
11569TIP3    H256199   4.191   3.118   5.621 -2.1840 -0.3711 -0.5374
11570TIP3   OH256200   2.920   2.666  14.802 -0.2781 -0.6658  0.5530
11570TIP3    H156201   3.005   2.684  14.844 -0.0261  0.4336 -0.3935
11570TIP3    H256202   2.865   2.741  14.826 -1.2680 -1.7124  1.7767
11571TIP3   OH256203   1.384   2.840   3.119  0.3086  1.2929 -0.4104
11571TIP3    H156204   1.337   2.801   3.193 -0.6454  0.2193 -1.5331
11571TIP3    H256205   1.447   2.773   3.093  1.0652  1.9099 -0.2129
11572TIP3   OH256206   3.907   5.394   1.716  0.2144 -0.2896 -0.3431
11572TIP3    H156207   3.845   5.323   1.730  0.3058 -0.3628 -0.3135
11572TIP3    H256208   3.918   5.433   1.803  0.4254 -0.4527 -0.2965
11573TIP3   OH256209   2.336   6.459  16.339  0.3924 -0.2560 -0.2582
11573TIP3    H156210   2.412   6.489  16.389 -1.3798  0.3659  2.2544
11573TIP3    H256211   2.272   6.435  16.406 -1.2369 -1.8198 -2.2821
11574TIP3   OH256212   6.495   5.845   1.577 -0.2544  0.0501  0.2697
11574TIP3    H156213   6.452   5.887   1.503  0.0946 -0.7335 -0.3957
11574TIP3    H256214   6.570   5.901   1.597  1.3285 -1.1503 -1.8326
11575TIP3   OH256215   6.016   6.258  10.969  0.0129  0.2546 -0.2600
11575TIP3    H156216   6.076   6.221  10.904 -0.3463  0.7112 -0.8588
11575TIP3    H256217   6.046   6.349  10.980 -0.2583  0.3355 -0.1833
11576TIP3   OH256218   2.930   0.411   0.405 -0.0786 -0.9252 -0.2278
11576TIP3    H156219   2.884   0.377   0.329  1.5920 -1.5037 -1.0209
11576TIP3    H256220   2.946   0.334   0.460  2.8687 -1.4140 -1.5784
11577TIP3   OH256221   5.163   1.332   0.899  0.1644 -0.3042 -0.2492
11577TIP3    H156222   5.180   1.357   0.809 -0.9110 -1.2236 -0.7288
11577TIP3    H256223   5.068   1.338   0.909  0.3365  0.7744  1.1397
11578TIP3   OH256224   5.668   2.938  15.261  0.2592  0.3216 -0.4975
11578TIP3    H156225   5.703   2.849  15.266 -2.5872 -0.9869 -1.5250
11578TIP3    H256226   5.629   2.953  15.347 -0.5574 -0.0670 -0.7862
11579TIP3   OH256227   4.730   4.711   3.271  0.6908 -0.2325 -0.1659
11579TIP3    H156228   4.755   4.782   3.212 -0.8333 -1.1987 -2.1003
11579TIP3    H256229   4.672   4.752   3.335  0.2115  0.3751 -0.9661
11580TIP3   OH256230   3.538   5.500   3.062 -0.3495  0.6802 -0.1841
11580TIP3    H156231   3.529   5.582   3.013  1.7341  1.7401  1.0453
11580TIP3    H256232   3.495   5.434   3.008 -0.7645  2.3156 -1.9421
11581TIP3   OH256233   0.209   2.892   6.811  0.1643  0.2628  0.3039
11581TIP3    H156234   0.266   2.860   6.742  0.3342  0.6391  0.2637
11581TIP3    H256235   0.190   2.983   6.786 -2.7700 -0.6544 -1.1746
11582TIP3   OH256236   2.116   6.194   1.528  0.7765 -0.1836 -0.4040
11582TIP3    H156237   2.032   6.241   1.523  0.1305 -1.3394 -0.7389
11582TIP3    H256238   2.177   6.259   1.562 -0.7592  0.0418  2.2202
11583TIP3   OH256239   0.099   0.725  14.548  0.0059  0.1626 -0.3679
11583TIP3    H156240   0.069   0.813  14.571  1.5461  0.5199  0.4064
11583TIP3    H256241   0.124   0.685  14.632 -1.1862 -1.2374 -0.6374
11584TIP3   OH256242   5.313   2.726  12.804 -0.2039  0.2843 -0.6128
11584TIP3    H156243   5.357   2.718  12.889 -1.7526  0.5813  0.2485
11584TIP3    H256244   5.224   2.694  12.820 -0.1911 -0.7972 -2.4360
11585TIP3   OH256245   2.054   0.878  14.842 -0.6073  0.2220 -0.0960
11585TIP3    H156246   2.117   0.807  14.841 -0.1381  0.6345 -0.8766
11585TIP3    H256247   2.099   0.949  14.888 -0.1496  0.8165 -1.4365
11586TIP3   OH256248   0.284   5.142   5.282  0.2639  0.1168  0.3855
11586TIP3    H156249   0.294   5.096   5.199 -0.8831  0.2107  0.1755
11586TIP3    H256250   0.190   5.142   5.298  0.4525  0.2304  1.6171
11587TIP3   OH256251   1.216   6.137   1.612  0.7050  0.1717  0.5728
11587TIP3    H156252   1.137   6.190   1.616  0.6667  0.1669 -0.1026
11587TIP3    H256253   1.221   6.107   1.521  1.2912 -0.1153  0.6944
11588TIP3   OH256254   5.309   6.178  12.308  0.3179  0.1799 -0.5274
11588TIP3    H156255   5.366   6.102  12.296  1.6186  0.9416  0.5529
11588TIP3    H256256   5.367   6.253  12.294 -0.0246  0.9951  2.0594
11589TIP3   OH256257   2.660   5.393  15.151 -0.2840 -0.2034  0.3615
11589TIP3    H156258   2.603   5.317  15.141 -1.5032  0.9673 -2.9147
11589TIP3    H256259   2.604   5.461  15.188 -0.3753  0.2088 -0.4901
11590TIP3   OH256260   0.614   6.081  16.375  0.0533 -0.1355 -0.6988
11590TIP3    H156261   0.595   5.992  16.407  1.4940 -0.4317 -0.5743
11590TIP3    H256262   0.538   6.132  16.400  0.3465 -0.7509  1.7024
11591TIP3   OH256263   1.475   1.167   5.821 -0.2036 -0.1817  0.0360
11591TIP3    H156264   1.410   1.208   5.879 -1.6601 -1.0436 -0.9062
11591TIP3    H256265   1.481   1.077   5.853 -0.0223 -0.3008 -0.3318
11592TIP3   OH256266   6.053   2.007  15.154 -0.6650 -0.1867  0.1461
11592TIP3    H156267   6.122   1.945  15.178 -0.7219  0.1061  1.0920
11592TIP3    H256268   6.100   2.084  15.121 -0.5417 -0.1144  0.4821
11593TIP3   OH256269   4.336   6.679   0.231 -0.2795 -0.0150 -0.4555
11593TIP3    H156270   4.274   6.697   0.160 -1.7066 -3.3021 -0.2714
11593TIP3    H256271   4.377   6.596   0.206  0.8862 -0.0847  1.4672
11594TIP3   OH256272   1.240   1.842   5.699  0.0311  0.2751 -0.1453
11594TIP3    H156273   1.252   1.928   5.739 -0.2285  0.2170  0.0658
11594TIP3    H256274   1.311   1.834   5.636  0.9013  0.0650  0.8165
11595TIP3   OH256275   6.460   2.146   5.586  0.8876 -0.3157  0.6332
11595TIP3    H156276   6.499   2.158   5.499 -1.0815  3.5566  0.0694
11595TIP3    H256277   6.382   2.094   5.570  1.4047 -1.0447  0.4107
11596TIP3   OH256278   2.729   2.600  14.421  0.0594 -0.0084  0.0449
11596TIP3    H156279   2.658   2.591  14.357 -0.0014  0.2502  0.0756
11596TIP3    H256280   2.708   2.537  14.489  1.0602 -1.6019 -1.0350
11597TIP3   OH256281   2.870   0.559  15.677 -0.4398 -0.2538  0.0859
11597TIP3    H156282   2.948   0.581  15.727 -0.4917  1.2995 -0.4564
11597TIP3    H256283   2.823   0.496  15.732  1.3258 -1.4831  0.2661
11598TIP3   OH256284   1.107   4.897   0.115  0.3932  0.4387  0.1209
11598TIP3    H156285   1.031   4.849   0.081  1.2233 -1.2906  0.5883
11598TIP3    H256286   1.165   4.905   0.039 -0.4068  2.1610 -0.3489
11599TIP3   OH256287   6.210   4.838   5.586 -0.1637 -0.4740  0.0389
11599TIP3    H156288   6.301   4.853   5.611 -0.5018  1.1570  0.4045
11599TIP3    H256289   6.160   4.898   5.641 -1.3711 -0.5872 -0.9006
11600TIP3   OH256290   0.520   1.115   6.236  0.3292  0.0752  0.2018
11600TIP3    H156291   0.615   1.113   6.232  0.3885  1.7653 -0.0275
11600TIP3    H256292   0.493   1.157   6.155 -0.8066 -2.7534 -0.9964
11601TIP3   OH256293   1.344   6.613  15.014 -0.1814  0.8475  0.0371
11601TIP3    H156294   1.344   6.651  14.926  0.1823  0.4442 -0.1430
11601TIP3    H256295   1.279   6.543  15.010  1.2790 -0.5567 -0.5462
11602TIP3   OH256296   0.392   0.293  13.504  0.7410  0.0008 -0.2984
11602TIP3    H156297   0.418   0.222  13.446  0.3730 -0.9384  0.6517
11602TIP3    H256298   0.300   0.309  13.482 -0.0695 -1.8493  1.4403
11603TIP3   OH256299   0.318   2.931   2.610 -0.2636  0.2051  0.1699
11603TIP3    H156300   0.365   2.866   2.663  0.1564  1.6269  1.6287
11603TIP3    H256301   0.357   2.924   2.523  1.7212  0.3816  0.9959
11604TIP3   OH256302   0.225   4.217  15.526 -0.2289 -0.8379  0.2378
11604TIP3    H156303   0.257   4.157  15.594  0.7643 -0.7877 -0.1723
11604TIP3    H256304   0.299   4.228  15.467  0.7239  3.1641  1.8528
11605TIP3   OH256305   2.582   0.597  15.530 -0.2354 -0.5028 -0.2224
11605TIP3    H156306   2.663   0.551  15.511 -0.3489 -1.4093  1.3611
11605TIP3    H256307   2.513   0.533  15.510 -0.4387 -0.6632  0.9634
11606TIP3   OH256308   6.188   0.319  12.074  0.4527  0.2332  0.2988
11606TIP3    H156309   6.188   0.302  11.980  1.8850 -1.7435  0.6087
11606TIP3    H256310   6.270   0.366  12.090  0.2663  0.4663  0.5914
11607TIP3   OH256311   2.487   3.811   1.553  0.5453 -0.1504  0.9136
11607TIP3    H156312   2.575   3.836   1.526  0.7797 -0.5315  1.3231
11607TIP3    H256313   2.440   3.794   1.471  1.1334 -0.9056  0.7265
11608TIP3   OH256314   0.077   0.134   3.769  0.1401  0.0700  0.3348
11608TIP3    H156315   0.077   0.167   3.679  0.0389 -2.9250 -0.8474
11608TIP3    H256316   0.156   0.081   3.775 -0.4506 -0.6941  1.6623
11609TIP3   OH256317   4.891   4.166   6.687  0.0914 -0.1215 -0.1368
11609TIP3    H156318   4.985   4.149   6.679  0.2186 -0.5026  1.6892
11609TIP3    H256319   4.850   4.079   6.679  0.2534 -0.5906  2.9114
11610TIP3   OH256320   1.717   4.406  14.275  0.1912  0.0591 -0.3213
11610TIP3    H156321   1.667   4.411  14.357  0.7157  1.2508 -0.0473
11610TIP3    H256322   1.669   4.344  14.221 -0.8554  0.1958  0.4279
11611TIP3   OH256323   6.655   3.419  15.557 -0.6513 -0.0790  0.6637
11611TIP3    H156324   6.685   3.507  15.532 -0.7991 -0.0119  0.7262
11611TIP3    H256325   6.666   3.367  15.477  0.7868 -0.3529  1.0064
11612TIP3   OH256326   1.909   3.424  16.755  0.1248  0.4493 -0.2512
11612TIP3    H156327   1.914   3.407  16.661 -1.0570 -2.5958  0.1407
11612TIP3    H256328   1.973   3.494  16.770  0.0669  1.3006 -3.3338
11613TIP3   OH256329   0.572   3.938  16.585 -0.7101  0.0886 -0.6821
11613TIP3    H156330   0.524   3.888  16.520 -1.9926 -0.9384  0.9790
11613TIP3    H256331   0.510   4.002  16.618 -1.8544 -2.5236  2.9141
11614TIP3   OH256332   6.115   0.917  14.459 -0.7815 -0.2319  0.9477
11614TIP3    H156333   6.066   0.880  14.385 -1.5411  0.8357  0.8868
11614TIP3    H256334   6.138   1.006  14.430  0.3681 -0.3803  1.3617
11615TIP3   OH256335   5.413   0.873   6.078 -0.0753 -0.1307 -0.4939
11615TIP3    H156336   5.423   0.831   5.993 -0.0379  1.3862 -1.2521
11615TIP3    H256337   5.318   0.872   6.094 -0.0883 -0.3352 -0.5792
11616TIP3   OH256338   5.248   0.036  15.975 -0.3762  0.3229  0.2287
11616TIP3    H156339   5.212   0.019  15.888  0.5456 -2.5621  0.2888
11616TIP3    H256340   5.180   0.002  16.035 -2.2635  4.6963  0.9325
11617TIP3   OH256341   3.248   3.608   0.463  0.1751  0.1229  0.1836
11617TIP3    H156342   3.220   3.517   0.462  0.6974 -0.0355  0.1119
11617TIP3    H256343   3.166   3.658   0.471 -0.1458 -0.3332 -0.1959
11618TIP3   OH256344   0.961   6.538  13.702 -0.6043  0.0162 -0.1495
11618TIP3    H156345   0.939   6.630  13.685  0.8750  0.2896 -0.7015
11618TIP3    H256346   0.882   6.502  13.742 -1.1818  1.5535  0.1713
11619TIP3   OH256347   6.760   1.868   0.385 -0.3893 -0.8753  0.0415
11619TIP3    H156348   6.803   1.894   0.304 -0.8510  0.8979  0.3119
11619TIP3    H256349   6.831   1.847   0.445 -0.0352 -1.6943 -0.6556
11620TIP3   OH256350   5.902   6.293   0.949 -0.3976 -0.0763 -0.1680
11620TIP3    H156351   5.812   6.325   0.944 -0.9026 -1.3068  0.4996
11620TIP3    H256352   5.935   6.329   1.031 -1.1549 -1.6257  0.8748
11621TIP3   OH256353   0.735   4.690   5.486 -0.3173 -0.2623  0.0407
11621TIP3    H156354   0.743   4.782   5.461 -2.2037  0.3984  1.6181
11621TIP3    H256355   0.744   4.641   5.404 -1.1491  1.4364 -1.1131
11622TIP3   OH256356   5.088   0.188   4.475  0.4444  0.1014  0.1496
11622TIP3    H156357   5.104   0.202   4.382  0.9413  0.4622  0.2848
11622TIP3    H256358   4.993   0.178   4.482  0.4991 -1.0142 -0.5284
11623TIP3   OH256359   4.696   1.538   6.062  0.5979 -0.1104 -0.0463
11623TIP3    H156360   4.667   1.528   5.971  0.2725 -0.3626  0.0842
11623TIP3    H256361   4.763   1.607   6.058  0.5014 -0.0360 -0.4588
11624TIP3   OH256362   6.181   0.940  16.719  0.1899  0.5043 -0.2351
11624TIP3    H156363   6.186   1.021  16.769  0.3687  1.6518 -2.0096
11624TIP3    H256364   6.157   0.968  16.630 -1.3738 -1.5384 -0.5405
11625TIP3   OH256365   4.575   3.174   1.102 -0.0929 -0.5386  0.4018
11625TIP3    H156366   4.569   3.263   1.136 -0.9730  0.0409 -1.1619
11625TIP3    H256367   4.647   3.176   1.039 -0.8530 -0.6161 -0.4894
11626TIP3   OH256368   6.332   1.449  13.663  0.3524  0.3120  0.3440
11626TIP3    H156369   6.314   1.369  13.613 -2.4254  0.3047  1.1789
11626TIP3    H256370   6.396   1.496  13.610  1.5319 -2.0970 -0.5306
11627TIP3   OH256371   4.276   5.612   2.053  0.3681  0.2390  0.7460
11627TIP3    H156372   4.335   5.651   2.118  1.4795  0.4496 -0.3684
11627TIP3    H256373   4.234   5.540   2.100  1.4191  0.1631  1.6125
11628TIP3   OH256374   6.484   6.526  14.317  0.0020  0.4094  0.4338
11628TIP3    H156375   6.522   6.607  14.283  1.7269 -1.3603 -2.2751
11628TIP3    H256376   6.507   6.524  14.409  1.2892  2.2738  0.1932
11629TIP3   OH256377   3.885   6.483  12.665  0.9507 -0.3091 -0.0697
11629TIP3    H156378   3.911   6.573  12.646  1.4508 -0.2198  0.9952
11629TIP3    H256379   3.792   6.489  12.687  0.5667 -0.3002 -1.5722
11630TIP3   OH256380   6.496   5.594   3.177 -0.1649 -0.2772  0.1922
11630TIP3    H156381   6.505   5.674   3.126 -0.4038  0.9893  2.0350
11630TIP3    H256382   6.586   5.567   3.197 -0.0772 -0.6568 -0.6655
11631TIP3   OH256383   5.833   6.647  14.993 -0.0009  0.1501  0.3217
11631TIP3    H156384   5.832   6.742  14.988 -1.8888  0.2191  1.2468
11631TIP3    H256385   5.741   6.622  14.993  0.4232 -1.5809  1.6194
11632TIP3   OH256386   2.562   4.983  13.252  0.2056 -0.1684  0.2019
11632TIP3    H156387   2.577   4.978  13.157  2.0251  1.0988  0.3819
11632TIP3    H256388   2.566   5.077  13.272 -0.7570 -0.3731  1.4660
11633TIP3   OH256389   1.942   0.110   1.778  0.9190 -0.0821  0.7166
11633TIP3    H156390   1.982   0.185   1.822  0.1646  0.8851 -0.1968
11633TIP3    H256391   1.873   0.081   1.839  0.7129  0.4496  0.7467
11634TIP3   OH256392   0.036   6.252   5.141 -0.1290  0.1269 -0.4366
11634TIP3    H156393   0.090   6.243   5.063  1.7611  0.6072  0.7368
11634TIP3    H256394  -0.043   6.298   5.112  1.0724  1.3762 -1.8289
11635TIP3   OH256395   1.506   1.027  15.193  0.5541 -0.0528  0.0503
11635TIP3    H156396   1.434   1.087  15.170 -0.2339 -0.4999  1.2601
11635TIP3    H256397   1.582   1.084  15.201 -0.1345  0.7816  0.9683
11636TIP3   OH256398   2.099   0.802   5.523 -0.0916  0.2140  0.2073
11636TIP3    H156399   2.150   0.854   5.461 -1.7613  2.0341  0.2708
11636TIP3    H256400   2.146   0.810   5.606  0.1997  0.8296 -0.0124
11637TIP3   OH256401   3.872   0.423   1.419 -0.3428 -0.7168 -0.8633
11637TIP3    H156402   3.868   0.512   1.454  0.8793 -0.3722 -1.5338
11637TIP3    H256403   3.854   0.433   1.326  0.9261 -0.9940 -1.1573
11638TIP3   OH256404   1.535   1.173   2.162  0.0822 -0.4790 -0.6164
11638TIP3    H156405   1.566   1.166   2.252 -0.3980  0.0816 -0.3976
11638TIP3    H256406   1.463   1.237   2.166  0.6089  0.2031 -1.5289
11639TIP3   OH256407   0.156   1.802   3.176  0.6143  0.3789  0.3357
11639TIP3    H156408   0.126   1.763   3.258 -0.5812  2.4649  0.9630
11639TIP3    H256409   0.096   1.769   3.110 -2.2181  3.0661  1.2942
11640TIP3   OH256410   6.754   2.384  16.130  0.2849  0.0624 -0.2503
11640TIP3    H156411   6.702   2.450  16.084  2.0538  3.1830  1.7945
11640TIP3    H256412   6.834   2.375  16.078 -0.3661 -1.3659 -1.0645
11641TIP3   OH256413   4.111   3.535   2.181  0.1564 -0.2028  0.0064
11641TIP3    H156414   4.029   3.515   2.135 -0.1800 -0.5326  0.7280
11641TIP3    H256415   4.167   3.573   2.114 -0.1758 -1.0515 -0.7775
11642TIP3   OH256416   5.415   6.733  11.089 -0.2864 -0.4108  0.8968
11642TIP3    H156417   5.334   6.742  11.038 -0.3376 -1.9863  0.6323
11642TIP3    H256418   5.447   6.646  11.066  3.1553  1.2411 -1.4224
11643TIP3   OH256419   3.953   5.201   6.020  0.2096  0.2861 -0.0653
11643TIP3    H156420   3.883   5.265   6.012 -0.8375 -0.8359 -0.1439
11643TIP3    H256421   3.932   5.152   6.100  1.2942  0.3854  0.3026
11644TIP3   OH256422   1.402   6.795  12.411 -0.5995  0.5701 -0.3933
11644TIP3    H156423   1.493   6.785  12.383 -0.8124  0.6275 -1.1206
11644TIP3    H256424   1.399   6.881  12.453 -0.1017  0.1502  0.5212
11645TIP3   OH256425   4.094   2.564  13.293 -0.3115  0.3679  0.4797
11645TIP3    H156426   4.112   2.587  13.385 -0.9819 -0.8951  0.9533
11645TIP3    H256427   4.177   2.529  13.261 -0.1371  0.5959  0.6782
11646TIP3   OH256428   0.524   0.241   3.403  0.0721 -0.0122 -0.3667
11646TIP3    H156429   0.618   0.251   3.418  0.7226 -2.7243 -1.8956
11646TIP3    H256430   0.492   0.200   3.484 -0.2524  2.5732  0.9113
11647TIP3   OH256431   0.513   6.375  15.192  0.2397  0.1494  0.0465
11647TIP3    H156432   0.459   6.452  15.174  0.6918  0.8427  1.5212
11647TIP3    H256433   0.454   6.301  15.177 -0.5221  0.8162 -0.3332
11648TIP3   OH256434   5.430   1.090   1.826  0.3420  0.0642  0.2043
11648TIP3    H156435   5.505   1.032   1.837  0.2378 -0.1272 -0.0511
11648TIP3    H256436   5.376   1.075   1.903 -0.4831 -1.4033 -0.6100
11649TIP3   OH256437   0.759   4.502   5.301 -0.0287  0.3180  0.3578
11649TIP3    H156438   0.805   4.419   5.306  1.0035  0.9152  1.0650
11649TIP3    H256439   0.739   4.513   5.208  0.8137 -0.1873  0.1111
11650TIP3   OH256440   5.800   2.788  14.106  0.4390 -0.5344  0.6998
11650TIP3    H156441   5.883   2.764  14.065 -0.3587 -1.6289 -0.3330
11650TIP3    H256442   5.821   2.797  14.199  1.9931  0.6088  0.2773
11651TIP3   OH256443   0.863   1.998  12.693  0.1776 -0.1142  0.0916
11651TIP3    H156444   0.926   1.964  12.630  2.0232  1.2153  1.1521
11651TIP3    H256445   0.815   2.066  12.645  1.0310  0.3468 -0.1164
11652TIP3   OH256446   0.470   0.059  16.011  0.4442 -0.0036 -0.0654
11652TIP3    H156447   0.469  -0.036  15.998  0.0822 -0.0138  0.0367
11652TIP3    H256448   0.430   0.095  15.932  2.3762  0.1814 -1.0321
11653TIP3   OH256449   3.021   3.109  10.714 -0.0527 -0.6764  0.1114
11653TIP3    H156450   3.032   3.042  10.781 -2.6104 -0.8562  0.4685
11653TIP3    H256451   3.082   3.084  10.645  1.4254 -1.4466  1.6240
11654TIP3   OH256452   4.808   0.327   2.369  0.4338  0.0253 -0.3416
11654TIP3    H156453   4.890   0.352   2.410 -0.4525  0.1499  1.4321
11654TIP3    H256454   4.834   0.290   2.285  2.2645  0.3761  0.0250
11655TIP3   OH256455   6.585   4.482  14.548 -0.0491  0.1016  0.2251
11655TIP3    H156456   6.553   4.478  14.458  0.9335 -0.1780 -0.1177
11655TIP3    H256457   6.680   4.483  14.540  0.0695 -0.7430  1.2908
11656TIP3   OH256458   6.502   6.189  14.951  0.2154  0.5648 -0.6782
11656TIP3    H156459   6.554   6.193  14.871  0.5057 -2.0626 -0.7251
11656TIP3    H256460   6.510   6.097  14.979 -2.1949  0.7360  0.7936
11657TIP3   OH256461   1.219   2.054  16.579 -0.0572  0.1390 -0.5132
11657TIP3    H156462   1.142   2.022  16.533 -0.4846  0.4532 -0.0202
11657TIP3    H256463   1.227   1.998  16.656  0.3437 -0.0433 -0.6855
11658TIP3   OH256464   1.911   0.425  14.861  0.1294  0.1451  0.3611
11658TIP3    H156465   1.997   0.440  14.901  0.1219 -1.9400  1.2653
11658TIP3    H256466   1.852   0.411  14.935 -1.1390  2.0285 -0.2231
11659TIP3   OH256467   4.853   2.438   5.159  0.1740 -0.4905  0.5381
11659TIP3    H156468   4.934   2.406   5.118  1.7741  1.0775  2.2914
11659TIP3    H256469   4.828   2.369   5.220  0.7569 -0.5620  0.6997
11660TIP3   OH256470   5.219   0.689  13.976 -0.3169  0.4415 -0.0476
11660TIP3    H156471   5.126   0.678  13.995 -0.2098 -0.9853 -0.2291
11660TIP3    H256472   5.256   0.724  14.057 -0.8742  0.2675  0.2876
11661TIP3   OH256473   3.153   6.342   0.982 -0.0180 -0.2767 -0.5653
11661TIP3    H156474   3.204   6.281   0.928 -1.4501 -1.5645 -0.5540
11661TIP3    H256475   3.092   6.382   0.920 -1.1739 -1.2122 -0.0726
11662TIP3   OH256476   2.313   6.444   3.074  1.0874  0.2483 -0.3800
11662TIP3    H156477   2.369   6.504   3.124 -1.5546  2.1543  0.5376
11662TIP3    H256478   2.298   6.490   2.991  2.7638 -1.3797 -1.6587
11663TIP3   OH256479   6.768   6.252  15.486  0.2479 -0.0132  0.1586
11663TIP3    H156480   6.758   6.197  15.408  1.3123 -0.4467  0.3101
11663TIP3    H256481   6.689   6.235  15.538  0.7285 -1.6950  0.3755
11664TIP3   OH256482   6.433   0.472  15.338 -0.2400 -0.2419  0.0367
11664TIP3    H156483   6.426   0.568  15.345  0.4076 -0.1368 -0.6200
11664TIP3    H256484   6.407   0.440  15.424  1.2846  0.6230  0.8726
11665TIP3   OH256485   2.174   0.013  15.624 -0.6201  0.0114 -0.0173
11665TIP3    H156486   2.225  -0.062  15.656  0.2152  0.1194 -1.0275
11665TIP3    H256487   2.140   0.055  15.703  0.3247 -0.4502  0.6543
11666TIP3   OH256488   1.348   5.541   3.573 -0.2846  0.0294  0.0997
11666TIP3    H156489   1.341   5.461   3.625 -0.0780 -0.5904 -0.8056
11666TIP3    H256490   1.308   5.609   3.627 -0.0459 -0.5941  1.0688
11667TIP3   OH256491   5.618   0.522  14.215  0.2232 -0.3928  0.1662
11667TIP3    H156492   5.603   0.609  14.178  1.4890  0.0216  0.5701
11667TIP3    H256493   5.699   0.531  14.266 -1.3479 -0.9291  3.0085
11668TIP3   OH256494   3.040   1.550   5.882 -0.5327  0.0567  0.1118
11668TIP3    H156495   3.086   1.500   5.814 -0.8004  0.0429 -0.0620
11668TIP3    H256496   3.101   1.553   5.955 -0.0274  0.5002 -0.3085
11669TIP3   OH256497   6.512   5.703   5.856 -0.2061  0.6321  0.3083
11669TIP3    H156498   6.603   5.717   5.879 -0.3663  0.0910  1.3321
11669TIP3    H256499   6.480   5.789   5.829  0.8492  0.6396 -1.0402
11670TIP3   OH256500   6.649   2.663  14.466 -0.2202 -0.7301  0.0699
11670TIP3    H156501   6.704   2.607  14.520 -1.8457 -0.5597  2.0261
11670TIP3    H256502   6.708   2.732  14.434  0.7640 -0.6470  1.9297
11671TIP3   OH256503   5.172   6.099  16.218 -0.0423 -0.4957 -0.3339
11671TIP3    H156504   5.214   6.051  16.290 -1.0819  0.8888  1.2639
11671TIP3    H256505   5.245   6.131  16.165  0.7489 -1.5768  0.0577
11672TIP3   OH256506   0.194   3.957  14.198 -0.0628 -0.1023 -0.8662
11672TIP3    H156507   0.283   3.964  14.163  0.0936 -0.3855 -0.5252
11672TIP3    H256508   0.156   4.044  14.183 -0.2905 -0.4513 -2.5085
11673TIP3   OH256509   0.863   3.366  11.778 -0.1473  0.2012 -0.5987
11673TIP3    H156510   0.896   3.437  11.834 -0.2676  1.4251 -2.0310
11673TIP3    H256511   0.941   3.332  11.735  0.0530 -1.2643  0.8358
11674TIP3   OH256512   6.385   5.577   3.472  0.1525 -0.0108 -0.1913
11674TIP3    H156513   6.462   5.601   3.523  0.1747 -0.0666 -0.1986
11674TIP3    H256514   6.415   5.579   3.381  0.7592 -2.2317 -0.0941
11675TIP3   OH256515   0.020   3.136   0.130 -0.3236 -0.1029 -0.0677
11675TIP3    H156516   0.082   3.202   0.163  0.2424 -0.4163 -0.4970
11675TIP3    H256517  -0.005   3.086   0.208 -1.5711  1.2559  0.4597
11676TIP3   OH256518   1.947   5.070   3.876 -0.0322 -0.4257  0.1325
11676TIP3    H156519   1.911   5.103   3.793 -1.1466  0.6433  0.9913
11676TIP3    H256520   2.008   5.001   3.851 -1.3694 -1.0665 -1.5188
11677TIP3   OH256521   3.315   2.975   5.103 -0.3246 -0.0263 -0.6196
11677TIP3    H156522   3.228   2.936   5.102 -0.6811  0.6323  1.1300
11677TIP3    H256523   3.300   3.068   5.084 -0.0522  0.1586  0.0483
11678TIP3   OH256524   2.118   0.449   5.472 -0.3131  0.0259 -0.4441
11678TIP3    H156525   2.086   0.516   5.411 -1.5555  0.8615  1.0459
11678TIP3    H256526   2.081   0.474   5.556  2.5844 -0.2008  1.0169
11679TIP3   OH256527   3.895   3.167  10.651 -0.4001  0.4587 -0.2257
11679TIP3    H156528   3.845   3.149  10.571 -3.4196  0.7118  1.4467
11679TIP3    H256529   3.925   3.081  10.680 -2.4425 -0.1850  0.1916
11680TIP3   OH256530   3.182   1.609   2.840 -0.1798 -0.2439 -0.1156
11680TIP3    H156531   3.260   1.638   2.792 -1.7580  0.6694 -2.2437
11680TIP3    H256532   3.152   1.532   2.792 -1.0417 -0.1114  0.2067
11681TIP3   OH256533   1.839   3.849  15.323 -0.1871 -0.4655  0.1457
11681TIP3    H156534   1.908   3.902  15.283 -0.5593  0.6913  0.9844
11681TIP3    H256535   1.815   3.896  15.403 -0.3413 -2.0450  1.0912
11682TIP3   OH256536   6.368   1.627   3.401 -0.0981 -0.6993  0.5291
11682TIP3    H156537   6.427   1.690   3.443 -0.0757 -1.1646  1.2065
11682TIP3    H256538   6.390   1.543   3.439 -1.2478 -0.8753  0.8635
11683TIP3   OH256539   1.063   0.466   1.382 -0.3235  0.4768  0.6371
11683TIP3    H156540   1.075   0.514   1.300 -1.7950 -0.1712  0.0150
11683TIP3    H256541   1.139   0.408   1.387 -0.1430  0.6284 -0.1852
11684TIP3   OH256542   5.479   0.390  14.478 -0.0604 -0.4255  0.4630
11684TIP3    H156543   5.432   0.317  14.519  1.1334 -0.1670  2.4107
11684TIP3    H256544   5.445   0.393  14.388 -2.4980 -1.2965  1.2780
11685TIP3   OH256545   0.370   6.811  15.483  0.0518  0.4971 -0.2659
11685TIP3    H156546   0.415   6.858  15.413  1.1571  0.1519  0.2046
11685TIP3    H256547   0.356   6.723  15.448  1.1901  0.1263  0.1623
11686TIP3   OH256548   6.330   5.072  16.520  0.1267  0.3904 -0.1364
11686TIP3    H156549   6.395   5.046  16.455  0.0072 -3.1595  0.9482
11686TIP3    H256550   6.263   5.004  16.516 -0.6598  0.8619  2.5905
11687TIP3   OH256551   1.278   1.924   2.645 -0.3126  0.2233  0.9191
11687TIP3    H156552   1.277   1.958   2.556 -1.0411 -0.7830  0.5187
11687TIP3    H256553   1.215   1.851   2.644  1.4014 -1.3530  1.6268
11688TIP3   OH256554   2.721   3.730  12.549 -0.0146  0.2687 -0.5160
11688TIP3    H156555   2.671   3.655  12.515 -0.0865  0.9137 -1.9277
11688TIP3    H256556   2.759   3.771  12.471 -1.4955  2.7955 -0.0283
11689TIP3   OH256557   5.361   5.410  14.012  0.0627 -0.6600  0.3477
11689TIP3    H156558   5.281   5.389  13.965  0.8879  2.5623 -2.9531
11689TIP3    H256559   5.335   5.476  14.076  0.0070  0.4107 -0.7462
11690TIP3   OH256560   0.367   4.255  10.856  0.0482 -0.3374 -0.0943
11690TIP3    H156561   0.409   4.270  10.771 -0.8789 -2.4257 -0.9860
11690TIP3    H256562   0.360   4.160  10.863  0.8022 -0.2572  2.7190
11691TIP3   OH256563   0.544   5.353   4.419 -0.3137 -0.0926  0.1048
11691TIP3    H156564   0.524   5.444   4.397  1.0001  0.5015  1.2118
11691TIP3    H256565   0.607   5.326   4.352  1.4237  0.7596  1.3094
11692TIP3   OH256566   6.168   0.379   6.430 -0.1581  0.0295 -0.3724
11692TIP3    H156567   6.214   0.308   6.475  1.9737  0.7718 -1.2423
11692TIP3    H256568   6.095   0.336   6.386 -0.4181 -1.1977  1.1468
11693TIP3   OH256569   5.901   1.449  12.347 -0.3886 -0.0627 -0.6185
11693TIP3    H156570   5.810   1.441  12.319 -0.9879 -2.2491  1.6027
11693TIP3    H256571   5.949   1.467  12.267 -2.6515  0.2018 -2.0019
11694TIP3   OH256572   2.525   1.046  13.874  0.2135  0.2262 -0.4727
11694TIP3    H156573   2.535   0.996  13.793  2.7445 -1.6571  0.8523
11694TIP3    H256574   2.520   0.979  13.942 -0.6935  1.7884  1.0720
11695TIP3   OH256575   6.604   1.433  14.673 -0.0031 -0.0934 -0.1504
11695TIP3    H156576   6.658   1.361  14.706  0.2935  0.7842  1.3551
11695TIP3    H256577   6.665   1.506  14.664 -0.6412  0.4681  0.0371
11696TIP3   OH256578   2.990   6.666   5.559  1.4903  0.0669  0.0477
11696TIP3    H156579   2.930   6.702   5.624  0.0871 -1.6353 -0.2276
11696TIP3    H256580   2.972   6.572   5.559  2.7040 -0.2106 -1.5335
11697TIP3   OH256581   1.386   1.064   4.145  0.2701 -0.4001  0.5313
11697TIP3    H156582   1.298   1.027   4.153  0.5795 -1.2076  0.3337
11697TIP3    H256583   1.372   1.151   4.107 -0.3659 -0.9811 -0.6295
11698TIP3   OH256584   5.729   1.024   4.547 -0.1421  0.3966 -0.8305
11698TIP3    H156585   5.708   0.953   4.486  0.0371 -1.2473  0.9387
11698TIP3    H256586   5.818   1.005   4.575 -0.1904  1.1907 -0.1144
11699TIP3   OH256587   0.112   3.589  11.792 -0.2438 -0.3898  0.0382
11699TIP3    H156588   0.197   3.620  11.821  0.1270  0.3649 -1.7111
11699TIP3    H256589   0.086   3.524  11.857  1.4553 -0.3112  0.8384
11700TIP3   OH256590   5.175   2.420  12.123  0.1571  0.1392 -0.5515
11700TIP3    H156591   5.242   2.373  12.171  1.3682  0.9574 -1.3897
11700TIP3    H256592   5.100   2.423  12.183  0.8566 -0.7780  0.4000
11701TIP3   OH256593   5.604   2.735  16.528  0.1393  0.9056  0.1919
11701TIP3    H156594   5.538   2.794  16.493 -0.1117 -0.7109 -2.3231
11701TIP3    H256595   5.558   2.684  16.595 -1.6239 -0.8404 -2.1391
11702TIP3   OH256596   1.795   4.998  13.015  0.0406 -0.0876 -0.1500
11702TIP3    H156597   1.769   4.964  13.101 -0.9604 -0.0435 -0.4274
11702TIP3    H256598   1.888   4.975  13.008  0.3794  0.6972  1.3154
11703TIP3   OH256599   4.538   2.635   0.421 -0.4905  0.2198 -0.3749
11703TIP3    H156600   4.456   2.607   0.462 -1.5710  0.8255 -2.0148
11703TIP3    H256601   4.511   2.674   0.338  1.4009  1.2779 -0.5469
11704TIP3   OH256602   4.090   3.810  10.824 -0.0320  0.1551 -0.0794
11704TIP3    H156603   4.001   3.814  10.789  0.1621 -0.4355 -0.6547
11704TIP3    H256604   4.140   3.765  10.756  0.2442 -1.5066  1.1900
11705TIP3   OH256605   2.940   4.070   3.829 -0.0007  0.2803 -0.1143
11705TIP3    H156606   2.897   3.997   3.784 -2.5845  2.0973 -0.8169
11705TIP3    H256607   2.899   4.072   3.915  2.2798 -0.9082  1.0681
11706TIP3   OH256608   6.638   6.234   0.403  0.3604  0.0554 -0.3677
11706TIP3    H156609   6.631   6.208   0.495 -1.0866 -1.2260 -0.8148
11706TIP3    H256610   6.665   6.154   0.357 -1.0664  0.0875 -1.3338
11707TIP3   OH256611   0.357   2.139  14.125  0.6255 -0.8515 -0.3162
11707TIP3    H156612   0.433   2.100  14.082  0.4712  0.5632 -2.0063
11707TIP3    H256613   0.372   2.234  14.119 -1.9841 -0.4402 -2.2614
11708TIP3   OH256614   2.959   4.797  14.818  0.3426 -0.1640 -0.1544
11708TIP3    H156615   3.042   4.791  14.771  1.0204  0.8459  0.8851
11708TIP3    H256616   2.983   4.806  14.910 -0.9697 -2.2029  0.4711
11709TIP3   OH256617   5.286   4.049  12.178  0.3508 -0.1065 -0.3350
11709TIP3    H156618   5.333   4.132  12.186 -0.3364  0.1452  1.7485
11709TIP3    H256619   5.289   4.029  12.085  0.5331  2.2604 -0.9168
11710TIP3   OH256620   4.479   4.318  15.107  0.5054 -0.1623  0.5498
11710TIP3    H156621   4.461   4.408  15.078 -0.8968 -0.2422  1.0644
11710TIP3    H256622   4.503   4.327  15.200 -0.7904 -0.3904  0.9290
11711TIP3   OH256623   1.686   0.864   6.102 -1.1119  0.3525  0.4042
11711TIP3    H156624   1.657   0.871   6.193 -1.4391 -1.2562  0.4468
11711TIP3    H256625   1.772   0.823   6.107 -0.0499  2.4158  0.0925
11712TIP3   OH256626   5.452   1.224   1.321  0.8288  0.0174 -0.6263
11712TIP3    H156627   5.356   1.221   1.320  0.7807  1.3412 -1.1693
11712TIP3    H256628   5.476   1.173   1.398 -0.3431  0.4523  0.0495
11713TIP3   OH256629   1.658   1.895  14.018 -0.4708  0.2971  0.3692
11713TIP3    H156630   1.688   1.984  13.996  3.8364 -1.4399 -2.0926
11713TIP3    H256631   1.640   1.854  13.933 -2.2461 -1.2714  1.4360
11714TIP3   OH256632   1.916   4.366   5.226 -0.6826  0.5074 -0.0971
11714TIP3    H156633   1.895   4.458   5.235 -3.3377 -0.0812  0.5090
11714TIP3    H256634   1.946   4.356   5.136  0.3117  2.0344  0.0330
11715TIP3   OH256635   2.394   0.500   3.743  0.3956 -0.0759 -0.4949
11715TIP3    H156636   2.485   0.525   3.754  0.8507 -0.6474 -2.5812
11715TIP3    H256637   2.395   0.405   3.733 -0.4956 -0.1563  0.0551
11716TIP3   OH256638   1.077   1.157   4.156  0.3995  0.4981 -0.3677
11716TIP3    H156639   0.993   1.202   4.163  0.1738 -0.1278  1.2329
11716TIP3    H256640   1.069   1.104   4.077 -0.5573  0.7339 -0.4350
11717TIP3   OH256641   4.390   1.500   1.125  0.5838 -0.2291 -0.5448
11717TIP3    H156642   4.421   1.590   1.114  1.5985 -0.4225  0.4649
11717TIP3    H256643   4.429   1.472   1.208  0.0605 -1.5114 -0.7130
11718TIP3   OH256644   3.973   5.895  13.579 -0.3332  0.0497  0.3418
11718TIP3    H156645   3.905   5.845  13.533 -0.0618 -1.3431  1.3778
11718TIP3    H256646   4.038   5.829  13.604  0.7969  1.1748  0.4406
11719TIP3   OH256647   1.647   1.602  11.359  0.4698 -0.1356 -0.4040
11719TIP3    H156648   1.741   1.586  11.364  0.7973  1.8261  1.0290
11719TIP3    H256649   1.610   1.553  11.433  0.2082 -1.4940 -1.3837
11720TIP3   OH256650   4.551   1.649  11.604 -0.2488  0.4484 -0.0719
11720TIP3    H156651   4.592   1.720  11.554 -0.2645  1.1912  0.9269
11720TIP3    H256652   4.620   1.583  11.612 -0.6882 -0.3715 -2.2998
11721TIP3   OH256653   0.636   0.299   0.507  0.0254 -0.3934  0.6106
11721TIP3    H156654   0.653   0.284   0.414 -0.7642  2.2964 -0.0433
11721TIP3    H256655   0.689   0.375   0.530 -2.1999  0.9923  1.4838
11722TIP3   OH256656   4.417   4.618  11.615 -0.2714  0.0514 -0.3612
11722TIP3    H156657   4.345   4.655  11.564 -1.1451 -2.7302 -1.3658
11722TIP3    H256658   4.450   4.691  11.668 -3.9854  1.4393  0.3419
11723TIP3   OH256659   5.045   1.101  14.986  0.0533 -1.1625 -0.3413
11723TIP3    H156660   5.079   1.104  14.897 -0.5579 -2.5624 -0.6478
11723TIP3    H256661   4.951   1.114  14.977  0.1996  0.6863  0.3149
11724TIP3   OH256662   0.829   6.537   5.265 -0.1945  0.1677 -0.5646
11724TIP3    H156663   0.900   6.578   5.216 -1.1719  0.4947 -1.7502
11724TIP3    H256664   0.803   6.462   5.211  2.6002 -3.1791  2.2643
11725TIP3   OH256665   5.324   2.558  15.751  0.5751 -0.1822  0.1264
11725TIP3    H156666   5.344   2.642  15.710 -0.3258  1.2636  2.4184
11725TIP3    H256667   5.258   2.579  15.817  1.5284 -2.4000  1.9193
11726TIP3   OH256668   0.661   3.955   5.802  0.1291 -0.2949  0.3646
11726TIP3    H156669   0.639   4.031   5.855  3.1470  1.0423 -0.0721
11726TIP3    H256670   0.690   3.992   5.718 -0.6314 -2.0916 -0.7523
11727TIP3   OH256671   1.120   4.223   1.639  0.2539 -0.0449  0.1260
11727TIP3    H156672   1.057   4.289   1.608 -1.2448 -1.5636 -0.2075
11727TIP3    H256673   1.070   4.170   1.701  1.9753  0.2496  1.8954
11728TIP3   OH256674   6.230   3.515  12.751  0.2651 -0.1599  0.9504
11728TIP3    H156675   6.166   3.583  12.769  0.9524  0.0141  2.9932
11728TIP3    H256676   6.218   3.451  12.820  2.0865 -0.2592  1.2262
11729TIP3   OH256677   2.382   5.108  14.111  0.0953  0.3222 -0.3361
11729TIP3    H156678   2.320   5.166  14.066 -0.8199  0.2595  0.8159
11729TIP3    H256679   2.460   5.162  14.124 -1.3436  1.9760  2.3039
11730TIP3   OH256680   2.435   4.508  13.403 -0.1739 -0.0942 -0.4191
11730TIP3    H156681   2.478   4.594  13.402  0.5654 -0.4336  0.5619
11730TIP3    H256682   2.365   4.515  13.338  1.7474  0.2820 -2.5717
11731TIP3   OH256683   3.036   0.665  12.696 -0.0124 -0.4219 -0.6677
11731TIP3    H156684   2.992   0.630  12.618 -2.2854 -0.6248  0.6454
11731TIP3    H256685   3.035   0.592  12.758  0.1774  0.2842  0.1700
11732TIP3   OH256686   0.006   0.491  13.857  0.1932  0.3891  0.4670
11732TIP3    H156687  -0.002   0.396  13.871  2.0129  0.2595  0.8848
11732TIP3    H256688   0.100   0.506  13.849 -0.1075  2.0864 -0.2976
11733TIP3   OH256689   2.768   5.499   1.176 -0.3360  0.0836 -0.0121
11733TIP3    H156690   2.747   5.507   1.269  1.8068 -0.3250  0.5651
11733TIP3    H256691   2.794   5.407   1.165  3.9217  1.0369  0.1446
11734TIP3   OH256692   6.001   2.101  13.884 -0.4904 -0.1495 -0.4091
11734TIP3    H156693   6.024   2.095  13.791 -1.3785  0.3562 -0.6721
11734TIP3    H256694   6.084   2.119  13.928  0.4534 -3.0142 -0.7874
11735TIP3   OH256695   2.402   3.514   0.997 -0.1676  0.2832  0.4721
11735TIP3    H156696   2.471   3.581   0.996  0.2496 -0.1096  1.7946
11735TIP3    H256697   2.444   3.436   1.033 -1.0299 -0.2844  0.2792
11736TIP3   OH256698   1.437   5.955  13.426 -0.1865 -0.5868 -0.3733
11736TIP3    H156699   1.394   6.040  13.411 -1.3556 -1.4849 -2.4689
11736TIP3    H256700   1.455   5.921  13.338  3.3489 -1.0791  0.3543
11737TIP3   OH256701   6.081   6.053  11.470  0.1572  0.2155 -0.5457
11737TIP3    H156702   6.071   6.008  11.386 -0.6054 -0.5692 -0.0530
11737TIP3    H256703   6.161   6.016  11.507 -0.3596 -0.5989 -0.2314
11738TIP3   OH256704   5.367   0.416   2.293 -0.1929 -0.2004  0.2570
11738TIP3    H156705   5.296   0.403   2.230 -0.1985 -0.2517  0.2741
11738TIP3    H256706   5.428   0.344   2.276  0.6613  0.7503 -0.8608
11739TIP3   OH256707   2.973   3.062   0.604 -0.9236 -0.4102  0.5141
11739TIP3    H156708   2.939   3.144   0.640  1.5912  0.0451  2.1196
11739TIP3    H256709   3.000   3.012   0.680 -0.3108 -1.7734 -0.5583
11740TIP3   OH256710   0.366   6.633   0.386 -0.0349  0.3891 -0.4146
11740TIP3    H156711   0.458   6.616   0.407  0.1337  0.2468 -1.2379
11740TIP3    H256712   0.354   6.726   0.406  1.0101  1.1060 -2.6984
11741TIP3   OH256713   6.256   0.395   3.686 -0.4863 -0.0644 -0.4580
11741TIP3    H156714   6.202   0.445   3.625  0.2037  0.7321 -0.4468
11741TIP3    H256715   6.194   0.357   3.748 -1.0360  0.8063 -0.4600
11742TIP3   OH256716   3.541   1.074  17.143  0.2147 -0.0501 -0.1675
11742TIP3    H156717   3.485   1.130  17.197  0.1904 -1.0925  0.9298
11742TIP3    H256718   3.579   1.133  17.078  0.3755  1.2825  1.1015
11743TIP3   OH256719   4.412   3.015  14.506  0.2642  0.5462  0.4313
11743TIP3    H156720   4.438   3.071  14.433  0.7430  0.9056  0.8761
11743TIP3    H256721   4.316   3.016  14.504  0.2138 -1.1683 -1.5196
11744TIP3   OH256722   1.848   3.323  13.568 -0.5537  0.4822  0.6001
11744TIP3    H156723   1.801   3.292  13.645  0.8670 -0.1957  1.2170
11744TIP3    H256724   1.940   3.321  13.593 -0.1675  1.6760 -0.6207
11745TIP3   OH256725   4.485   0.100   6.311  0.0288 -0.1177  0.1426
11745TIP3    H156726   4.549   0.074   6.244  0.4809  0.8566  0.1707
11745TIP3    H256727   4.538   0.121   6.387 -0.4173 -0.3212  0.5123
11746TIP3   OH256728   6.676   2.357   1.757  0.0942  0.1841 -0.3569
11746TIP3    H156729   6.681   2.409   1.677  0.5791  0.7711  0.0496
11746TIP3    H256730   6.658   2.420   1.826 -0.7268 -0.3670 -0.0455
11747TIP3   OH256731   6.518   1.009  15.960 -0.2503 -0.6771  0.0606
11747TIP3    H156732   6.516   0.927  16.009  0.7548 -0.4419  0.5121
11747TIP3    H256733   6.470   1.071  16.014  0.4996 -0.5253  0.5657
11748TIP3   OH256734   2.229   1.817  12.508  0.4060 -0.0095  0.5379
11748TIP3    H156735   2.148   1.867  12.513  0.7346  0.3900  2.3851
11748TIP3    H256736   2.234   1.790  12.416 -1.4293  0.5679  0.2217
11749TIP3   OH256737   0.099   0.245   3.471  0.0364  0.2421 -0.4004
11749TIP3    H156738   0.175   0.188   3.462 -0.7519 -0.8340 -0.4308
11749TIP3    H256739   0.042   0.222   3.398 -0.8992  0.1087  0.3398
11750TIP3   OH256740   5.496   5.791  12.868 -0.0097 -0.5927  0.1397
11750TIP3    H156741   5.436   5.863  12.888  0.9384  0.1010  0.5855
11750TIP3    H256742   5.582   5.825  12.892  0.4943 -1.7700  0.0479
11751TIP3   OH256743   3.579   1.288   6.135 -0.0233  0.3834 -0.1731
11751TIP3    H156744   3.543   1.294   6.046  2.2787  2.9421 -1.0977
11751TIP3    H256745   3.666   1.327   6.127  0.3947  0.3691  3.1696
11752TIP3   OH256746   6.541   6.448  15.880  0.3819  0.1489 -0.0565
11752TIP3    H156747   6.447   6.431  15.890  0.8994 -3.2866  0.1344
11752TIP3    H256748   6.547   6.543  15.869 -2.9621  0.6890  1.4643
11753TIP3   OH256749   2.492   6.323   4.306  0.5501 -0.1755  0.3249
11753TIP3    H156750   2.542   6.405   4.307 -0.1507  0.2642  0.0580
11753TIP3    H256751   2.545   6.262   4.356  0.8479  0.5876  0.9607
11754TIP3   OH256752   3.774   6.090   6.148 -0.0903  0.1103  0.2651
11754TIP3    H156753   3.865   6.121   6.141 -0.1520  0.1862 -0.2999
11754TIP3    H256754   3.726   6.144   6.085 -0.5552  0.1552  0.6515
11755TIP3   OH256755   6.806   0.584   4.078 -0.3265  0.3491 -0.5082
11755TIP3    H156756   6.829   0.492   4.091 -2.0991 -0.3475 -1.9306
11755TIP3    H256757   6.860   0.611   4.003 -0.4272  0.2201 -0.6279
11756TIP3   OH256758   5.273   2.397   0.281 -0.0068 -0.0025  0.5631
11756TIP3    H156759   5.210   2.469   0.280 -0.9043 -0.7586  0.2753
11756TIP3    H256760   5.237   2.335   0.345  1.3661  0.3115  1.6896
11757TIP3   OH256761   4.632   0.404  14.305 -0.4107 -0.1031  0.0534
11757TIP3    H156762   4.585   0.443  14.378 -0.3408  0.3554 -0.1476
11757TIP3    H256763   4.582   0.325  14.283 -0.1590 -0.5224  0.9152
11758TIP3   OH256764   1.269   0.160   2.950  0.0671 -0.2211  0.6011
11758TIP3    H156765   1.363   0.147   2.938  0.4149  3.0361 -1.5692
11758TIP3    H256766   1.228   0.093   2.895  1.1829 -0.7147  0.3503
11759TIP3   OH256767   4.558   0.031  15.042 -0.3539 -0.0419 -0.2080
11759TIP3    H156768   4.533   0.104  15.099 -0.2910  0.0449 -0.2915
11759TIP3    H256769   4.482  -0.027  15.045 -0.5299  0.1771 -0.3853
11760TIP3   OH256770   2.430   2.294  15.048  0.6489  0.4911 -0.2362
11760TIP3    H156771   2.499   2.227  15.046  0.7563  0.4255  2.6489
11760TIP3    H256772   2.349   2.244  15.043  0.7041  0.4945 -2.3077
11761TIP3   OH256773   3.145   2.334  17.216  0.2132  0.0905 -0.0158
11761TIP3    H156774   3.074   2.392  17.243  0.4186  0.1004  0.5029
11761TIP3    H256775   3.111   2.245  17.230  0.6578  0.0974  1.1748
11762TIP3   OH256776   6.319   3.200  12.817 -0.4665 -0.6324  0.3664
11762TIP3    H156777   6.321   3.219  12.723 -1.6558 -0.2965  0.3909
11762TIP3    H256778   6.359   3.113  12.825 -1.4801 -1.2175 -0.6083
11763TIP3   OH256779   2.213   2.007  14.005 -0.5705  0.0811  0.0204
11763TIP3    H156780   2.213   2.013  13.910 -1.8133 -0.4576 -0.0286
11763TIP3    H256781   2.297   2.045  14.031  0.5432 -1.2590 -1.3839
11764TIP3   OH256782   5.517   0.725  12.315  0.0223 -0.0949  0.6185
11764TIP3    H156783   5.504   0.638  12.353  0.7067 -0.2668  0.4687
11764TIP3    H256784   5.459   0.782  12.366 -1.4387 -0.8411 -0.1465
11765TIP3   OH256785   5.078   0.985   4.069  0.0814  0.0565 -0.3820
11765TIP3    H156786   5.104   1.048   4.136  0.0024 -1.0653  0.7277
11765TIP3    H256787   5.062   1.039   3.991 -5.2556  2.2908  1.7662
11766TIP3   OH256788   0.464   1.654  12.606  0.7903  0.4088  0.3306
11766TIP3    H156789   0.529   1.721  12.625  0.8787  0.0237  1.4648
11766TIP3    H256790   0.421   1.638  12.690 -1.3230  1.2051 -0.5115
11767TIP3   OH256791   3.734   6.347   0.506  0.4690  0.7998 -0.0518
11767TIP3    H156792   3.782   6.296   0.441  0.2330  2.1191 -1.3193
11767TIP3    H256793   3.656   6.377   0.460 -0.9646 -0.2519  1.5967
11768TIP3   OH256794   2.584   1.490  16.574  0.5422  0.8380  0.1677
11768TIP3    H156795   2.545   1.504  16.661  2.1799 -1.2414  1.3163
11768TIP3    H256796   2.528   1.540  16.515 -1.1446  1.6286  2.2929
11769TIP3   OH256797   2.471   4.818  11.611  0.5256  0.4152  0.4534
11769TIP3    H156798   2.454   4.777  11.526  1.0870  0.0601  0.5078
11769TIP3    H256799   2.384   4.826  11.651  0.2155  0.8778 -0.2780
11770TIP3   OH256800   3.934   0.947  14.796 -0.2606 -0.3917 -0.1254
11770TIP3    H156801   3.923   0.903  14.711 -3.3272 -1.5711  0.7388
11770TIP3    H256802   3.962   0.878  14.856 -0.0508 -0.0064  0.2273
11771TIP3   OH256803   1.195   4.927  16.904  0.4021 -0.3774  0.0770
11771TIP3    H156804   1.206   4.996  16.968 -0.3810 -1.2653  1.2145
11771TIP3    H256805   1.261   4.862  16.926 -0.4717 -1.1129  0.5976
11772TIP3   OH256806   0.009   4.635  13.294  0.7707  0.1734 -0.8604
11772TIP3    H156807  -0.019   4.698  13.361  1.3666 -1.1949  0.7373
11772TIP3    H256808   0.072   4.684  13.241  1.8445  0.7305  0.8598
11773TIP3   OH256809   6.540   3.957   1.066  0.2180 -0.0527  0.5917
11773TIP3    H156810   6.565   3.911   0.986  0.1591  0.0718  0.5017
11773TIP3    H256811   6.560   3.895   1.137  0.8128  0.0565  0.5246
11774TIP3   OH256812   2.302   4.874  13.435 -0.6725  0.0513  0.5526
11774TIP3    H156813   2.210   4.849  13.421 -0.1810 -1.2476 -0.5658
11774TIP3    H256814   2.329   4.911  13.351  0.3358 -1.3203  0.2328
11775TIP3   OH256815   0.873   4.748  17.241 -0.5219  0.8363  0.4037
11775TIP3    H156816   0.890   4.655  17.223 -1.6106  0.4174  1.4024
11775TIP3    H256817   0.800   4.770  17.183 -0.5041  0.9728  0.4343
11776TIP3   OH256818   5.794   2.169   1.457 -0.5534 -0.2064 -0.2182
11776TIP3    H156819   5.786   2.260   1.429  0.3220 -0.5576 -1.7278
11776TIP3    H256820   5.851   2.172   1.534 -0.1047  0.4804 -0.5683
11777TIP3   OH256821   5.663   0.595  12.681 -0.2551 -0.2694 -0.3413
11777TIP3    H156822   5.650   0.571  12.589 -0.1906 -0.5620 -0.2739
11777TIP3    H256823   5.595   0.548  12.728  0.8074 -1.5539 -0.0286
11778TIP3   OH256824   0.903   6.657  13.972  0.0033  0.1786 -0.0349
11778TIP3    H156825   0.934   6.567  13.982  0.3958  0.2216 -0.8001
11778TIP3    H256826   0.820   6.659  14.020 -0.9759 -1.1217 -1.5727
11779TIP3   OH256827   4.037   2.477  12.479 -0.4557 -0.3378 -0.3776
11779TIP3    H156828   4.099   2.544  12.451  2.0998 -1.9662  1.0016
11779TIP3    H256829   4.038   2.412  12.409  1.6748 -1.7087  0.8064
11780TIP3   OH256830   5.430   0.414   3.553  0.0303  0.2359  0.6419
11780TIP3    H156831   5.457   0.385   3.640  2.1069  2.1552  0.7211
11780TIP3    H256832   5.392   0.501   3.567 -1.3463 -0.2018 -0.1720
11781TIP3   OH256833   6.654   6.322   3.619 -0.0271  0.5880  0.7968
11781TIP3    H156834   6.654   6.232   3.587  1.6528 -0.3759  3.1924
11781TIP3    H256835   6.678   6.375   3.543  1.3879 -1.2682 -0.1276
11782TIP3   OH256836   0.091   5.035  12.046 -0.4147  0.1257  0.1503
11782TIP3    H156837   0.045   5.116  12.024  0.2809  0.4832 -0.0029
11782TIP3    H256838   0.183   5.054  12.030 -0.3784 -1.2493 -1.6905
11783TIP3   OH256839   1.699   3.999   4.615 -0.4713 -0.3612  0.2465
11783TIP3    H156840   1.624   3.950   4.649 -1.6986  0.6453 -0.9005
11783TIP3    H256841   1.736   4.043   4.692 -1.0197 -0.8999  0.8259
11784TIP3   OH256842   3.789   4.041  17.029 -0.5100  0.2790 -0.1641
11784TIP3    H156843   3.826   4.036  16.941 -1.8042  0.3260 -0.7250
11784TIP3    H256844   3.856   4.002  17.085  0.4495  0.5022 -1.1208
11785TIP3   OH256845   0.973   3.032   3.162  0.0925 -0.9411  0.0518
11785TIP3    H156846   1.014   2.955   3.121  1.1953  0.6294 -2.0176
11785TIP3    H256847   1.045   3.095   3.170 -1.6313  1.7761 -3.2910
11786TIP3   OH256848   3.416   1.373   5.309  0.7927  0.3954 -0.5953
11786TIP3    H156849   3.416   1.277   5.299 -0.6545  0.1249  1.3265
11786TIP3    H256850   3.394   1.387   5.401  0.4920  2.6044 -0.9532
11787TIP3   OH256851   5.076   2.931  15.003 -0.0286 -0.0114  0.7367
11787TIP3    H156852   5.148   2.993  15.011  0.6138 -0.6163 -0.1271
11787TIP3    H256853   5.017   2.971  14.940  1.2701 -1.0153 -1.2437
11788TIP3   OH256854   5.997   0.835  11.097 -0.4916 -0.0692  0.1132
11788TIP3    H156855   6.010   0.924  11.065  1.3483 -0.6649 -0.9482
11788TIP3    H256856   5.982   0.783  11.018 -3.8020 -0.4489  0.8506
11789TIP3   OH256857   5.056   5.155  17.230 -0.3082 -0.0145  0.4826
11789TIP3    H156858   5.076   5.087  17.165  0.1732  0.9476 -0.3946
11789TIP3    H256859   5.017   5.106  17.303  1.1788 -1.3926  0.4136
11790TIP3   OH256860   3.977   4.067  17.248  0.4664 -0.0848 -0.1734
11790TIP3    H156861   4.071   4.084  17.247  0.0941  2.3453 -0.7886
11790TIP3    H256862   3.938   4.153  17.267 -1.6965 -0.5699 -2.0934
11791TIP3   OH256863   0.666   1.816  16.064  0.0853  0.0626  0.1699
11791TIP3    H156864   0.744   1.849  16.109  0.4696 -0.3963 -0.1538
11791TIP3    H256865   0.675   1.721  16.066 -0.5208  0.0018  0.2196
11792TIP3   OH256866   3.458   0.029  12.023  0.1418  0.3554 -0.1136
11792TIP3    H156867   3.449  -0.052  11.974 -0.4977  1.7041 -2.3482
11792TIP3    H256868   3.520   0.008  12.093 -2.0118 -2.7337  1.0428
11793TIP3   OH256869   2.780   4.587  12.148 -0.1236 -0.1378  0.3613
11793TIP3    H156870   2.836   4.598  12.225 -1.3070 -0.1778  1.2602
11793TIP3    H256871   2.695   4.560  12.184 -0.8596  0.3734 -0.9216
11794TIP3   OH256872   1.433   5.524  13.958  0.5507  0.5519 -0.0004
11794TIP3    H156873   1.500   5.464  13.991 -0.1448 -1.1113 -1.4561
11794TIP3    H256874   1.410   5.578  14.034  2.0422 -0.2235  1.0605
11795TIP3   OH256875   1.952   6.149   4.967  0.2630  0.2788  0.5924
11795TIP3    H156876   1.980   6.239   4.952  0.4385  0.0168 -0.7500
11795TIP3    H256877   2.032   6.102   4.989  0.5577  0.0110 -0.9360
11796TIP3   OH256878   4.998   6.565  15.581  1.1771  0.5945  0.0811
11796TIP3    H156879   4.912   6.561  15.623  0.2981  1.8930 -1.4806
11796TIP3    H256880   4.979   6.561  15.487  3.0721 -2.4060 -0.3346
11797TIP3   OH256881   1.577   4.457  14.503 -0.2923  0.2357  0.8087
11797TIP3    H156882   1.526   4.390  14.548 -1.2814  0.2097 -0.3124
11797TIP3    H256883   1.525   4.536  14.511 -0.6532  0.1573 -0.5368
11798TIP3   OH256884   2.051   5.336   3.855  0.3911 -0.0241 -0.0223
11798TIP3    H156885   2.060   5.249   3.895  1.0671 -1.0104 -2.2008
11798TIP3    H256886   2.132   5.381   3.880  0.4323 -0.3313  0.4204
11799TIP3   OH256887   5.786   1.098  12.568 -0.2774 -0.2482 -0.4640
11799TIP3    H156888   5.827   1.096  12.655 -1.6597  0.9699  0.2669
11799TIP3    H256889   5.853   1.065  12.509  0.6784 -1.1832  1.0785
11800TIP3   OH256890   6.563   4.103   6.119 -0.4610 -0.2751  0.1375
11800TIP3    H156891   6.593   4.168   6.182  2.1746 -2.5320  1.4098
11800TIP3    H256892   6.470   4.121   6.108 -0.6527  1.3364  3.3197
11801TIP3   OH256893   3.188   2.920  12.171  0.0181 -0.4274  0.7855
11801TIP3    H156894   3.194   3.016  12.170 -1.2440 -0.3204 -0.0893
11801TIP3    H256895   3.107   2.902  12.218 -0.5228 -0.9708 -0.2964
11802TIP3   OH256896   1.493   0.763   2.757  0.0824 -0.0390  0.4913
11802TIP3    H156897   1.448   0.685   2.789  1.0419 -0.1737  1.5774
11802TIP3    H256898   1.585   0.748   2.777  0.3826  1.0535  0.0258
11803TIP3   OH256899   2.506   1.740  11.883 -0.3371 -0.3558  0.1484
11803TIP3    H156900   2.519   1.749  11.977  0.9932 -0.5320  0.0086
11803TIP3    H256901   2.465   1.822  11.857 -0.1322 -0.0372  0.7967
11804TIP3   OH256902   2.392   6.206  14.120  0.4054 -0.1077  0.4663
11804TIP3    H156903   2.369   6.246  14.036 -0.2311 -0.2335  0.5716
11804TIP3    H256904   2.311   6.162  14.147  0.6910 -0.2931  1.0127
11805TIP3   OH256905   0.016   1.010  14.604 -0.2113  0.5075  0.4462
11805TIP3    H156906  -0.068   0.999  14.559 -0.4581 -0.9494  1.1900
11805TIP3    H256907  -0.007   1.018  14.697  0.4659  0.0064  0.6688
11806TIP3   OH256908   0.640   4.939   0.391 -0.0567  0.4049  0.1527
11806TIP3    H156909   0.692   4.906   0.465 -0.6062  1.2212  0.9350
11806TIP3    H256910   0.653   4.875   0.322 -0.8163 -1.2588  1.4847
11807TIP3   OH256911   0.339   0.973   0.718 -0.5913  0.1407  0.0284
11807TIP3    H156912   0.279   0.910   0.678 -1.1278 -0.6067  1.8927
11807TIP3    H256913   0.424   0.929   0.717 -1.1314 -1.1190  2.1653
11808TIP3   OH256914   1.520   4.120  15.141 -0.1090 -0.3986 -0.0622
11808TIP3    H156915   1.510   4.027  15.162 -3.4686 -0.6912 -2.0991
11808TIP3    H256916   1.431   4.149  15.122  0.8761  3.2193  0.2069
11809TIP3   OH256917   2.105   5.294   3.048 -0.0489  0.1877 -0.0739
11809TIP3    H156918   2.191   5.288   3.090 -0.1627  1.3548  0.3647
11809TIP3    H256919   2.100   5.384   3.016 -2.0008  0.8833  1.9286
11810TIP3   OH256920   1.593   2.968   3.289 -0.1265 -0.4240 -0.0951
11810TIP3    H156921   1.529   2.982   3.358 -2.3177  1.6514 -2.3421
11810TIP3    H256922   1.544   2.926   3.218  0.7251  1.7416 -2.1030
11811TIP3   OH256923   0.336   4.111   5.593  0.2413 -0.0267  0.5316
11811TIP3    H156924   0.258   4.070   5.632 -0.1154  0.6950  0.6045
11811TIP3    H256925   0.307   4.137   5.506  0.4432  0.1423  0.5163
11812TIP3   OH256926   0.193   4.485  13.524  0.1267  0.3204 -0.1262
11812TIP3    H156927   0.256   4.414  13.517  0.0292  0.1640  0.5305
11812TIP3    H256928   0.171   4.507  13.433  0.3650 -0.3001 -0.3352
11813TIP3   OH256929   4.000   0.944  12.087 -0.3633  0.6940  0.2337
11813TIP3    H156930   4.051   0.864  12.099  0.0212  1.1646  1.9982
11813TIP3    H256931   4.037   0.984  12.008 -0.1870 -0.5610 -0.3503
11814TIP3   OH256932   6.575   5.466  11.214 -0.6808 -0.0974 -0.6996
11814TIP3    H156933   6.639   5.512  11.158 -1.5575  0.4620 -1.2722
11814TIP3    H256934   6.513   5.428  11.152  0.8416 -3.4810 -0.3690
11815TIP3   OH256935   1.034   1.970   2.232  0.0179  0.2675  0.2748
11815TIP3    H156936   1.036   1.982   2.137 -1.0322  1.6528  0.3961
11815TIP3    H256937   0.958   2.021   2.261  0.1773 -0.3260  1.8395
11816TIP3   OH256938   4.469   3.335  12.381 -0.1567  0.0415 -0.8445
11816TIP3    H156939   4.553   3.292  12.396  0.6644  2.0690  0.7755
11816TIP3    H256940   4.479   3.379  12.297  0.6407  0.7717 -0.3737
11817TIP3   OH256941   0.121   2.792   2.038  0.3176 -0.4509  0.1807
11817TIP3    H156942   0.085   2.726   2.096  2.3183  0.0557  2.1459
11817TIP3    H256943   0.164   2.855   2.096 -1.3432  2.5433 -1.5923
11818TIP3   OH256944   2.116   5.714   1.798 -0.9669 -0.1240 -0.6947
11818TIP3    H156945   2.026   5.724   1.826 -1.1590  0.1468 -1.3828
11818TIP3    H256946   2.163   5.785   1.841 -1.4605  0.9653 -1.8737
11819TIP3   OH256947   0.856   5.006   3.457 -0.1521 -0.5582 -0.0127
11819TIP3    H156948   0.891   5.022   3.544  0.2539 -1.2809 -0.0378
11819TIP3    H256949   0.907   5.064   3.400 -0.2150 -0.3052  0.1863
11820TIP3   OH256950   5.236   0.323  12.474 -0.5660  0.0891 -0.1145
11820TIP3    H156951   5.205   0.366  12.395  2.0814  1.2453 -0.6227
11820TIP3    H256952   5.159   0.275  12.507 -2.3448  1.4049 -2.0934
11821TIP3   OH256953   5.213   3.415   6.135 -0.1585 -0.2879  0.2206
11821TIP3    H156954   5.285   3.464   6.176 -0.1457 -0.1307  0.0107
11821TIP3    H256955   5.254   3.337   6.099 -0.3313 -0.9664  1.4231
11822TIP3   OH256956   5.788   4.064  17.075  0.6639 -0.3337  0.0010
11822TIP3    H156957   5.840   4.057  17.155 -1.1596  0.2100  1.3032
11822TIP3    H256958   5.811   4.150  17.038  0.3882  0.0827  0.7873
11823TIP3   OH256959   2.732   3.342   4.193  0.0969 -0.1105 -0.4161
11823TIP3    H156960   2.647   3.313   4.224  0.4064 -0.3518  0.2306
11823TIP3    H256961   2.740   3.432   4.226 -0.4609  0.4052 -1.6147
11824TIP3   OH256962   6.147   5.793   5.192  0.2711  0.2342  0.1628
11824TIP3    H156963   6.211   5.860   5.169 -0.0148  0.1349 -0.9516
11824TIP3    H256964   6.077   5.842   5.237  0.2335  0.6314 -0.3181
11825TIP3   OH256965   6.416   5.721   2.517 -0.0651 -0.2585  0.0016
11825TIP3    H156966   6.454   5.733   2.604 -0.1731 -1.2986  0.2031
11825TIP3    H256967   6.444   5.633   2.490 -1.1111 -0.4739 -0.4539
11826TIP3   OH256968   5.604   2.886   5.988 -0.2624  0.4669 -0.2412
11826TIP3    H156969   5.518   2.926   5.980 -1.2970 -1.6200 -0.1121
11826TIP3    H256970   5.593   2.797   5.953  1.0255 -0.9089  2.5408
11827TIP3   OH256971   0.190   2.114   0.411 -0.1718 -0.0322  0.1209
11827TIP3    H156972   0.107   2.071   0.393 -1.2311  1.6587  0.7475
11827TIP3    H256973   0.182   2.201   0.371  0.7724  0.6185  1.2784
11828TIP3   OH256974   6.807   3.743  15.865 -0.5541 -0.5321 -0.3081
11828TIP3    H156975   6.884   3.687  15.861 -0.3650 -0.3289  0.3812
11828TIP3    H256976   6.814   3.799  15.788  0.1997 -0.2447 -0.0385
11829TIP3   OH256977   0.915   4.861  16.858  0.4601 -0.2510  0.3971
11829TIP3    H156978   0.935   4.772  16.888  0.9784 -0.1622  0.3199
11829TIP3    H256979   1.000   4.907  16.860 -0.2042  1.0755  3.2173
11830TIP3   OH256980   0.460   0.413  15.478  0.3784 -0.3024 -0.3518
11830TIP3    H156981   0.379   0.461  15.459 -0.0756 -0.5746  0.8223
11830TIP3    H256982   0.530   0.474  15.454 -0.1799  0.2764 -0.5365
11831TIP3   OH256983   0.375   3.731   3.506 -0.6042 -0.3155  0.1242
11831TIP3    H156984   0.418   3.667   3.449  2.4972  2.5932 -1.2313
11831TIP3    H256985   0.282   3.724   3.486 -0.0210 -2.1151 -2.4035
11832TIP3   OH256986   2.670   1.186   0.905  0.0771 -0.0651 -0.7980
11832TIP3    H156987   2.575   1.181   0.919  0.2882 -0.4365  0.5820
11832TIP3    H256988   2.706   1.113   0.954  1.3439  1.9381  1.4901
11833TIP3   OH256989   2.558   3.529   5.335 -0.1854  0.4757  0.5934
11833TIP3    H156990   2.544   3.465   5.406 -5.0319  0.3456 -0.1242
11833TIP3    H256991   2.600   3.478   5.266 -0.7248 -1.0234  1.3101
11834TIP3   OH256992   4.197   0.879   1.735  0.9783 -0.3872  0.3341
11834TIP3    H156993   4.230   0.927   1.658 -0.5995 -0.2206 -0.2895
11834TIP3    H256994   4.233   0.791   1.726  0.5389 -0.4750 -0.8298
11835TIP3   OH256995   5.894   6.825  15.274 -0.1194 -0.7567 -0.2938
11835TIP3    H156996   5.935   6.779  15.347 -2.2185 -2.2134  0.0839
11835TIP3    H256997   5.804   6.790  15.272 -0.9886  1.3686 -1.7541
11836TIP3   OH256998   4.705   3.056  12.392 -0.0051 -0.5521  0.8197
11836TIP3    H156999   4.649   2.995  12.343  1.4248 -2.7190  1.7149
11836TIP3    H257000   4.666   3.058  12.480 -0.2026  0.0770  0.7220
11837TIP3   OH257001   6.091   1.155  14.330  0.6151  0.6101  0.6904
11837TIP3    H157002   6.127   1.242  14.317  0.5356  0.5396 -0.0458
11837TIP3    H257003   5.996   1.169  14.336  0.5040  0.4734 -0.5090
11838TIP3   OH257004   2.244   5.716   1.231 -0.1236  0.0392 -0.4570
11838TIP3    H157005   2.339   5.715   1.231 -0.0772  1.6448 -0.7529
11838TIP3    H257006   2.221   5.798   1.276 -1.3308  0.4176 -1.6972
11839TIP3   OH257007   0.900   3.804  16.945  0.5526 -0.3425  0.0300
11839TIP3    H157008   0.968   3.800  16.878  1.2454  1.4253  0.5710
11839TIP3    H257009   0.929   3.873  17.005 -2.0880  1.0337 -0.1222
11840TIP3   OH257010   5.025   5.615   2.548  0.1901  0.0201 -0.1922
11840TIP3    H157011   5.102   5.575   2.508  0.7230  0.8651 -0.0287
11840TIP3    H257012   5.043   5.614   2.642 -0.5665 -0.9378 -0.0443
11841TIP3   OH257013   4.527   2.357  16.407  0.2599 -0.0775 -0.3871
11841TIP3    H157014   4.454   2.410  16.439 -0.5597 -1.5111  0.2210
11841TIP3    H257015   4.580   2.340  16.484 -0.6542 -1.8929 -0.0967
11842TIP3   OH257016   2.858   2.368  15.032 -0.7692 -0.2729 -0.2047
11842TIP3    H157017   2.850   2.367  14.936  1.6414 -1.6548 -0.4723
11842TIP3    H257018   2.803   2.296  15.061  1.2815 -2.2882 -0.9634
11843TIP3   OH257019   4.677   1.733  12.395 -0.3516 -0.1265  0.3042
11843TIP3    H157020   4.756   1.686  12.422  0.4380  0.4308 -0.9591
11843TIP3    H257021   4.693   1.757  12.304 -0.9017  2.1814  0.7389
11844TIP3   OH257022   4.453   1.055  11.580 -0.1425  0.4828 -0.4881
11844TIP3    H157023   4.526   0.993  11.588 -0.8886 -0.2415  1.0368
11844TIP3    H257024   4.442   1.067  11.486 -0.5642 -2.4670 -0.8925
11845TIP3   OH257025   3.945   6.647  14.995  0.1503  0.3744  0.4456
11845TIP3    H157026   3.971   6.556  15.011 -0.8944 -0.4768 -2.0929
11845TIP3    H257027   4.006   6.699  15.047  0.9006 -1.7538  1.8306
11846TIP3   OH257028   5.213   0.139   4.935 -0.2026 -0.0501 -0.1423
11846TIP3    H157029   5.152   0.164   5.005  1.8990 -0.7454  2.1007
11846TIP3    H257030   5.247   0.222   4.902  0.5106  0.3050  1.3773
11847TIP3   OH257031   6.513   4.826   2.789 -0.1380 -0.0667 -0.2260
11847TIP3    H157032   6.451   4.829   2.861 -2.9741 -0.0645 -2.4811
11847TIP3    H257033   6.514   4.735   2.761 -0.0722  0.1481 -0.9658
11848TIP3   OH257034   1.891   5.200   4.864 -0.3590 -0.4749 -0.5442
11848TIP3    H157035   1.852   5.283   4.893 -0.6806 -1.0889  0.8592
11848TIP3    H257036   1.958   5.226   4.801 -0.5190  0.8426 -0.2018
11849TIP3   OH257037   0.340   1.067   0.003  0.3506  0.4625 -0.6681
11849TIP3    H157038   0.377   0.990   0.047  2.9718  0.9128 -1.8654
11849TIP3    H257039   0.293   1.113   0.071  0.6745 -1.0260  0.6321
11850TIP3   OH257040   3.336   5.411  15.592 -0.3421  0.0217  0.1132
11850TIP3    H157041   3.293   5.446  15.670  0.7791  2.2715 -0.2062
11850TIP3    H257042   3.415   5.464  15.582  1.4865 -2.6151 -0.4868
11851TIP3   OH257043   6.100   5.807   3.214 -0.5341  0.0270  0.8916
11851TIP3    H157044   6.068   5.897   3.218 -0.3531  0.2913 -1.7818
11851TIP3    H257045   6.196   5.816   3.214 -0.5087 -0.2301  1.4997
11852TIP3   OH257046   3.934   2.151   4.156 -0.3809  0.0370  0.1692
11852TIP3    H157047   3.875   2.146   4.081 -0.2970  1.2463  0.0074
11852TIP3    H257048   3.926   2.065   4.199 -2.3016  0.1961  0.1999
11853TIP3   OH257049   3.097   4.870   0.802  0.1615 -0.4385  0.1260
11853TIP3    H157050   3.067   4.884   0.712 -0.8707 -1.9247  0.1900
11853TIP3    H257051   3.069   4.948   0.849  0.6750  0.3377 -0.8197
11854TIP3   OH257052   0.192   5.126  16.894 -0.3055 -0.1043  0.5622
11854TIP3    H157053   0.213   5.046  16.846  1.4918  0.3035  0.6117
11854TIP3    H257054   0.118   5.101  16.950 -0.8017 -1.2748 -0.5634
11855TIP3   OH257055   4.774   2.406   1.047 -0.0485  0.1253 -0.4700
11855TIP3    H157056   4.761   2.331   1.106 -2.7671 -1.1815 -2.5164
11855TIP3    H257057   4.809   2.367   0.966 -1.2410  1.0783 -1.4767
11856TIP3   OH257058   1.290   6.020   2.566 -0.0624  0.1595  0.6340
11856TIP3    H157059   1.227   6.062   2.624 -0.3649  0.3129  0.1981
11856TIP3    H257060   1.240   5.952   2.521 -0.5956  1.8412 -1.5355
11857TIP3   OH257061   3.592   5.286  15.594 -0.4373  0.3780  0.2432
11857TIP3    H157062   3.502   5.315  15.607 -0.5669 -0.2215  0.7815
11857TIP3    H257063   3.641   5.328  15.664 -0.8150 -1.4572  1.6917
11858TIP3   OH257064   6.507   0.771  16.122 -0.5475  0.0801 -0.0672
11858TIP3    H157065   6.551   0.781  16.206 -1.6033  2.7644  0.2485
11858TIP3    H257066   6.484   0.678  16.118  0.9680 -0.4393  1.8312
11859TIP3   OH257067   3.113   5.647  14.663 -0.7050  0.0094  0.3386
11859TIP3    H157068   3.069   5.589  14.724  0.3202 -0.5422  0.5860
11859TIP3    H257069   3.136   5.724  14.715  2.6146 -1.5605  1.5270
11860TIP3   OH257070   2.513   0.596  15.821  0.4893  0.7347  0.2208
11860TIP3    H157071   2.462   0.516  15.833  1.5601  0.0184  0.1831
11860TIP3    H257072   2.540   0.594  15.730  0.3486  1.2577  0.1637
11861TIP3   OH257073   0.079   3.383  15.683  0.3042 -0.4653 -0.2632
11861TIP3    H157074  -0.010   3.350  15.677  0.0617 -0.2702  1.6946
11861TIP3    H257075   0.110   3.387  15.592 -1.7309 -0.3374 -0.9897
11862TIP3   OH257076   3.064   5.925  10.702  0.2112 -0.3357 -0.1133
11862TIP3    H157077   2.986   5.902  10.752 -1.2813 -1.8906 -2.9177
11862TIP3    H257078   3.107   5.841  10.685  0.2471  0.0336 -2.0151
11863TIP3   OH257079   4.257   6.329   4.769 -0.6598 -0.2809  0.1193
11863TIP3    H157080   4.205   6.406   4.791  0.1974  0.1998  0.5468
11863TIP3    H257081   4.323   6.324   4.838 -0.0669 -0.7927 -0.4655
11864TIP3   OH257082   2.321   2.911  16.831 -0.1629  0.0348 -0.1542
11864TIP3    H157083   2.246   2.862  16.796 -2.9308  2.4671  1.8932
11864TIP3    H257084   2.339   2.870  16.915  0.0407  0.2005 -0.1174
11865TIP3   OH257085   4.593   0.921  14.182  0.1258  0.5842 -0.5321
11865TIP3    H157086   4.598   0.988  14.114 -1.9649  2.0005  0.5688
11865TIP3    H257087   4.607   0.838  14.136 -0.6226  1.5310 -2.5920
11866TIP3   OH257088   4.220   4.809  11.546  0.0907 -0.1665 -0.3195
11866TIP3    H157089   4.209   4.896  11.585  0.4425  0.2085 -1.0247
11866TIP3    H257090   4.131   4.779  11.528 -0.0012  0.6354 -1.3026
11867TIP3   OH257091   2.916   3.017  14.641 -0.3483  0.4595 -0.3133
11867TIP3    H157092   2.976   3.091  14.646  1.0493 -0.2292 -3.7188
11867TIP3    H257093   2.830   3.057  14.632 -0.3381  1.4871  2.8758
11868TIP3   OH257094   1.513   5.945  11.446  0.5920 -0.2743 -0.0412
11868TIP3    H157095   1.577   5.884  11.483 -0.4754 -1.8543 -0.6655
11868TIP3    H257096   1.562   5.994  11.379  2.1009  1.4137  2.1613
11869TIP3   OH257097   2.742   2.063  13.450 -0.4543 -0.3872 -0.4768
11869TIP3    H157098   2.706   2.100  13.530  1.7547  1.9245 -0.4322
11869TIP3    H257099   2.679   2.085  13.382 -0.1504  1.8518 -0.1022
11870TIP3   OH257100   6.477   0.642   3.231 -0.0747 -0.1728 -0.0999
11870TIP3    H157101   6.461   0.720   3.177  0.2076  0.3426  0.5546
11870TIP3    H257102   6.561   0.608   3.200 -0.5786 -0.7044 -0.9459
11871TIP3   OH257103   3.225   2.777  15.643  0.0483  0.0820  0.0059
11871TIP3    H157104   3.278   2.788  15.722 -1.3091 -0.2114  1.0018
11871TIP3    H257105   3.275   2.716  15.589  0.6609 -0.2983  0.9648
11872TIP3   OH257106   4.659   0.786  13.606  0.1922 -0.5581  0.0967
11872TIP3    H157107   4.600   0.711  13.610 -0.5148 -0.0155  3.8622
11872TIP3    H257108   4.744   0.752  13.635 -0.1504 -0.0052  1.8984
11873TIP3   OH257109   4.989   3.591   3.560 -0.9207  0.2641  0.2505
11873TIP3    H157110   5.043   3.644   3.618  0.0459  0.3415 -0.6840
11873TIP3    H257111   4.976   3.646   3.482  0.3636 -0.9477 -0.8781
11874TIP3   OH257112   1.118   3.383  11.132  0.3115 -0.0018  0.1810
11874TIP3    H157113   1.201   3.378  11.178  0.1309  0.3593  0.5590
11874TIP3    H257114   1.130   3.330  11.053  0.8410 -0.0854  0.3158
11875TIP3   OH257115   3.291   6.115   4.209 -0.2089  0.2224 -0.2985
11875TIP3    H157116   3.293   6.079   4.121 -0.9409 -0.4031 -0.0648
11875TIP3    H257117   3.205   6.157   4.216 -0.3129 -0.0763  0.2556
11876TIP3   OH257118   2.203   3.938   1.657  0.6782 -0.2406 -0.4511
11876TIP3    H157119   2.121   3.985   1.675 -0.0887 -1.5063 -0.5274
11876TIP3    H257120   2.258   4.003   1.614 -0.1059  0.7770  0.0336
11877TIP3   OH257121   1.842   5.806   2.572 -0.0951 -0.3499  0.2726
11877TIP3    H157122   1.805   5.798   2.660  0.3876 -0.3081  0.4810
11877TIP3    H257123   1.782   5.757   2.516 -1.2387  0.8423  0.3846
11878TIP3   OH257124   1.727   0.053  17.122  0.2572  0.3314  0.2664
11878TIP3    H157125   1.810   0.093  17.097 -0.0070  0.0557 -1.1475
11878TIP3    H257126   1.750  -0.034  17.154  0.3750 -0.5398 -2.0626
11879TIP3   OH257127   4.358   3.557   3.609  0.6750  0.1160  0.1252
11879TIP3    H157128   4.286   3.616   3.587 -0.2724 -1.4112 -1.0691
11879TIP3    H257129   4.437   3.605   3.585  0.1916  2.2020  2.3051
11880TIP3   OH257130   2.582   4.214  12.480 -0.2795  0.3787 -0.1641
11880TIP3    H157131   2.634   4.288  12.510  0.0655  0.0861 -0.0186
11880TIP3    H257132   2.635   4.137  12.503 -0.9918  0.0471  0.4065
11881TIP3   OH257133   5.695   6.623   4.352  0.0790 -0.0849 -0.1322
11881TIP3    H157134   5.707   6.714   4.379  1.2701  0.0126 -0.9388
11881TIP3    H257135   5.768   6.575   4.391  1.6178 -0.0078 -2.7037
11882TIP3   OH257136   5.703   4.951  11.749 -0.2417 -0.2683  0.2814
11882TIP3    H157137   5.749   5.002  11.682 -1.7951 -0.3913 -0.9338
11882TIP3    H257138   5.674   5.016  11.812 -0.1877  0.0625 -0.0297
11883TIP3   OH257139   0.535   1.713   0.940  0.3022 -0.3977 -0.0682
11883TIP3    H157140   0.464   1.770   0.971  0.9568 -0.3846  1.4831
11883TIP3    H257141   0.581   1.686   1.019  3.5594  1.5442 -1.0850
11884TIP3   OH257142   5.806   0.721  11.270 -0.1032 -0.1216 -0.0200
11884TIP3    H157143   5.894   0.739  11.238  0.3701 -0.9014  0.7810
11884TIP3    H257144   5.774   0.651  11.214  0.6801 -1.4048  1.0670
11885TIP3   OH257145   1.316   5.099   4.299  0.8784 -0.5174 -0.2943
11885TIP3    H157146   1.284   5.179   4.256 -1.9859 -1.2096  0.3161
11885TIP3    H257147   1.408   5.118   4.319  1.0933  1.5131 -2.6689
11886TIP3   OH257148   0.267   4.893   2.844 -0.3556  0.2159 -0.4373
11886TIP3    H157149   0.200   4.959   2.826 -0.7888 -0.3780 -1.0994
11886TIP3    H257150   0.295   4.863   2.757  0.5055  0.1904 -0.1604
11887TIP3   OH257151   6.637   2.046   5.072 -0.4620  0.3516  0.0160
11887TIP3    H157152   6.637   1.950   5.063  1.7144  0.0987  1.7825
11887TIP3    H257153   6.663   2.078   4.986  0.2797 -0.7354 -0.1861
11888TIP3   OH257154   1.802   4.091  13.761 -0.5960  0.3775 -0.5783
11888TIP3    H157155   1.810   4.172  13.710 -0.1705  1.0912  0.5765
11888TIP3    H257156   1.807   4.120  13.852 -2.1012 -0.7695 -0.0955
11889TIP3   OH257157   4.293   3.738  11.946  0.1821  0.6284  1.0953
11889TIP3    H157158   4.277   3.782  12.029  0.1144  1.9049  0.4329
11889TIP3    H257159   4.268   3.647  11.962  1.2870  0.5858  2.7914
11890TIP3   OH257160   5.793   0.173   2.361  0.3399  0.2520  0.0327
11890TIP3    H157161   5.809   0.107   2.294 -0.1188  0.4571 -0.2815
11890TIP3    H257162   5.770   0.123   2.439 -1.1860  0.0619 -0.5142
11891TIP3   OH257163   0.172   0.928   3.700 -0.1873 -0.4646  0.0083
11891TIP3    H157164   0.178   0.990   3.628 -1.7545  0.6589  0.7761
11891TIP3    H257165   0.263   0.909   3.723  0.3349  1.0576 -0.6766
11892TIP3   OH257166   3.682   2.518  14.980  0.1891 -0.1543  0.6179
11892TIP3    H157167   3.740   2.443  14.989  1.0048  0.5771  1.6725
11892TIP3    H257168   3.672   2.552  15.069  0.7527  1.6656  0.0313
11893TIP3   OH257169   2.729   4.916  13.590 -0.5334 -0.1894  0.6042
11893TIP3    H157170   2.700   4.944  13.503 -0.6660  0.3086  0.8033
11893TIP3    H257171   2.654   4.869  13.626 -0.6333 -0.0270  0.6113
11894TIP3   OH257172   6.210   5.178  11.268  0.2127 -0.1828  1.0181
11894TIP3    H157173   6.264   5.182  11.189 -1.4363  0.9028 -0.1203
11894TIP3    H257174   6.267   5.139  11.335  2.6044  1.4759  0.0665
11895TIP3   OH257175   4.944   3.411   4.203 -0.4775  0.0523 -0.2074
11895TIP3    H157176   4.992   3.342   4.157  0.5830  0.0554  0.8346
11895TIP3    H257177   4.869   3.429   4.147 -1.5037 -2.8193  0.0761
11896TIP3   OH257178   0.213   6.181   6.046 -0.7769 -0.2233 -0.1543
11896TIP3    H157179   0.296   6.221   6.018 -0.6169 -0.4049  0.0582
11896TIP3    H257180   0.156   6.188   5.969 -0.0172 -1.6302 -0.8974
11897TIP3   OH257181   3.102   2.981   2.879  0.3088  0.2094 -0.5721
11897TIP3    H157182   3.192   2.988   2.846  0.3114  0.6906 -0.4575
11897TIP3    H257183   3.109   3.005   2.972  0.7198 -3.2765  0.4650
11898TIP3   OH257184   5.605   6.447  12.006 -0.6818 -0.5695 -0.0067
11898TIP3    H157185   5.600   6.449  11.911  0.0851 -0.5324 -0.0576
11898TIP3    H257186   5.561   6.527  12.035 -1.6512 -0.9863 -0.2822
11899TIP3   OH257187   1.282   1.794   3.350 -0.2807  0.3975  0.6515
11899TIP3    H157188   1.372   1.824   3.338 -0.3884  0.8011  0.8340
11899TIP3    H257189   1.256   1.763   3.264  0.4355 -0.8529  0.8608
11900TIP3   OH257190   4.531   6.737   5.204  0.4230  0.1606 -0.4593
11900TIP3    H157191   4.445   6.780   5.212 -0.5854 -1.5700 -1.4756
11900TIP3    H257192   4.578   6.789   5.139 -0.1783  0.6099 -0.5420
11901TIP3   OH257193   2.061   0.525  14.054 -0.3408 -0.1476 -0.1248
11901TIP3    H157194   2.020   0.586  13.992  0.7413  0.2289 -0.4978
11901TIP3    H257195   2.075   0.445  14.004  0.1763  0.0251 -0.2648
11902TIP3   OH257196   3.495   2.869   5.608 -0.2065  0.2033  0.1944
11902TIP3    H157197   3.518   2.920   5.530  0.0048 -1.8703 -1.1858
11902TIP3    H257198   3.425   2.811   5.578 -0.3634 -0.4034  1.6621
11903TIP3   OH257199   4.499   6.530  12.988 -0.3231  0.4739 -0.2914
11903TIP3    H157200   4.563   6.531  12.916 -1.4051 -2.0617 -1.4146
11903TIP3    H257201   4.483   6.437  13.003  0.1902  0.8801  3.6157
11904TIP3   OH257202   6.822   5.829  11.969 -0.5155  0.2428  0.1523
11904TIP3    H157203   6.823   5.874  11.884  0.7121  0.1155  0.0812
11904TIP3    H257204   6.900   5.774  11.968 -0.9949 -0.4833  0.9954
11905TIP3   OH257205   4.521   3.686   0.903  0.7767  0.3847  0.1482
11905TIP3    H157206   4.465   3.762   0.921  2.4006  1.7910 -0.4788
11905TIP3    H257207   4.601   3.724   0.868  1.8414 -1.6204  0.3237
11906TIP3   OH257208   0.284   3.702   6.300  0.3232  0.3960 -0.2104
11906TIP3    H157209   0.356   3.669   6.247 -0.7697  1.1108 -2.2618
11906TIP3    H257210   0.319   3.706   6.389  2.3341 -0.5926 -0.8978
11907TIP3   OH257211   1.574   2.344  13.718 -1.0172 -0.3480 -0.9412
11907TIP3    H157212   1.556   2.438  13.722 -0.7968 -0.3337 -0.2202
11907TIP3    H257213   1.503   2.308  13.665 -1.7826  0.0605 -0.2050
11908TIP3   OH257214   1.259   2.524  15.487 -0.4539 -0.2493 -0.4257
11908TIP3    H157215   1.277   2.523  15.393  0.1302  1.3900 -0.3584
11908TIP3    H257216   1.198   2.451  15.500  0.1452 -1.0712 -1.9152
11909TIP3   OH257217   5.205   1.952  14.356 -0.8181 -0.3801  0.4328
11909TIP3    H157218   5.163   2.020  14.408 -1.1111  0.8081 -1.2596
11909TIP3    H257219   5.151   1.875  14.369 -2.1274  0.4699  0.2133
11910TIP3   OH257220   3.722   0.804  11.555 -0.0431 -0.1017 -0.0765
11910TIP3    H157221   3.743   0.716  11.586  1.3206 -0.5189 -1.9827
11910TIP3    H257222   3.656   0.836  11.616  0.5375 -1.8447  1.5656
11911TIP3   OH257223   3.212   0.447   5.604  0.2967  1.0558  0.0474
11911TIP3    H157224   3.180   0.360   5.582 -0.2289  1.5811 -1.4075
11911TIP3    H257225   3.304   0.435   5.628 -0.8042 -0.5224  4.3921
11912TIP3   OH257226   6.042   1.445   0.766  0.7970  0.5004 -0.2388
11912TIP3    H157227   6.006   1.393   0.839  0.7444  1.3501  0.3486
11912TIP3    H257228   6.100   1.384   0.720  0.4089 -0.2088  0.1827
11913TIP3   OH257229   2.191   6.628  12.345 -0.8394  0.0015 -0.8997
11913TIP3    H157230   2.168   6.709  12.300  0.5422  0.3440 -1.0549
11913TIP3    H257231   2.221   6.656  12.431  1.1311 -0.1448 -1.4867
11914TIP3   OH257232   3.528   4.348  11.594 -0.6556  0.0032  0.1426
11914TIP3    H157233   3.494   4.314  11.512 -1.6169  2.6700 -0.6831
11914TIP3    H257234   3.453   4.390  11.636  0.5618  1.9312  0.5477
11915TIP3   OH257235   2.986   4.473   5.842 -0.1382 -0.1742 -0.9528
11915TIP3    H157236   2.942   4.447   5.761 -0.6938  1.5768 -1.2554
11915TIP3    H257237   2.933   4.544   5.876  1.4451  0.7660 -0.3401
11916TIP3   OH257238   6.589   2.407   3.908  0.1141 -0.3333 -0.3284
11916TIP3    H157239   6.682   2.425   3.925 -0.0904  0.9460 -0.4607
11916TIP3    H257240   6.564   2.472   3.842 -0.9067 -0.5924 -0.2054
11917TIP3   OH257241   3.125   2.368  14.281  0.1961 -0.2607 -0.4573
11917TIP3    H157242   3.170   2.290  14.249  2.2157  0.5285  0.2918
11917TIP3    H257243   3.066   2.392  14.210  0.2774 -1.8735 -1.1109
11918TIP3   OH257244   3.213   2.624   0.016  0.6975  0.1911 -0.5343
11918TIP3    H157245   3.175   2.537   0.003  2.3751 -0.6485 -0.0837
11918TIP3    H257246   3.195   2.645   0.108  3.1980 -1.2106  0.3406
11919TIP3   OH257247   5.292   0.369   4.797 -0.3905 -0.6243 -1.0261
11919TIP3    H157248   5.381   0.354   4.765 -0.6330 -1.4657 -1.3522
11919TIP3    H257249   5.290   0.461   4.822  0.4117 -0.4571 -1.5367
11920TIP3   OH257250   4.518   2.979  13.239 -0.0255  0.0448 -0.1699
11920TIP3    H157251   4.509   2.963  13.145  0.0116  1.4859 -0.4368
11920TIP3    H257252   4.442   3.033  13.262 -0.5685 -1.0901  0.8452
11921TIP3   OH257253   3.578   0.952  14.137  0.0737  0.4279  0.0682
11921TIP3    H157254   3.598   0.966  14.044  0.8012 -0.4744  0.0692
11921TIP3    H257255   3.503   0.892  14.136 -1.3005  2.0595  0.0798
11922TIP3   OH257256   1.592   2.486  16.307 -0.1072  0.1139 -0.0756
11922TIP3    H157257   1.502   2.503  16.338 -0.2961 -0.2420 -0.4255
11922TIP3    H257258   1.588   2.505  16.213 -0.0629 -0.8592 -0.2820
11923TIP3   OH257259   2.096   0.090  11.594 -0.0044  0.1378 -0.0998
11923TIP3    H157260   2.081  -0.004  11.599 -0.6005  0.2692  0.8783
11923TIP3    H257261   2.063   0.115  11.507 -2.4165 -0.1493  0.6569
11924TIP3   OH257262   2.873   0.828  14.147  0.2563  0.3025 -0.2211
11924TIP3    H157263   2.886   0.738  14.177  0.7968  0.5132  0.1852
11924TIP3    H257264   2.839   0.819  14.058 -1.5989 -0.3324  0.5235
11925TIP3   OH257265   3.337   2.848   1.245 -0.0173 -0.3956  0.1212
11925TIP3    H157266   3.339   2.914   1.315  0.7375 -0.1763 -0.0906
11925TIP3    H257267   3.397   2.780   1.276  0.6544 -0.0967 -0.4987
11926TIP3   OH257268   3.751   2.897  10.834 -0.1777  0.1811  0.2042
11926TIP3    H157269   3.767   2.947  10.914  0.7684  0.1273  0.0605
11926TIP3    H257270   3.826   2.837  10.828  0.3555  0.9590 -1.3226
11927TIP3   OH257271   2.291   0.204   5.740 -0.1106 -0.1053 -0.0969
11927TIP3    H157272   2.311   0.290   5.703 -0.8108 -0.2796 -0.9382
11927TIP3    H257273   2.354   0.145   5.698  1.1622  0.1492  1.3757
11928TIP3   OH257274   1.410   6.719  15.790  0.2938  0.6228  0.4954
11928TIP3    H157275   1.495   6.681  15.811 -0.3183 -0.8118  0.4966
11928TIP3    H257276   1.406   6.800  15.840  1.6674  0.7281  0.4579
11929TIP3   OH257277   5.952   2.412  15.901  0.3327 -0.2700  0.1311
11929TIP3    H157278   5.946   2.505  15.921  1.5802  0.2566 -1.7023
11929TIP3    H257279   5.964   2.408  15.806  2.8542 -2.1399  0.4086
11930TIP3   OH257280   1.039   3.625   0.434  0.6168  0.5970 -0.5795
11930TIP3    H157281   1.074   3.610   0.522  2.6781 -2.3868 -1.7391
11930TIP3    H257282   0.982   3.549   0.417 -3.0447  3.0658 -0.5088
11931TIP3   OH257283   0.817   5.766  12.186 -0.1827 -0.1916 -0.6897
11931TIP3    H157284   0.890   5.799  12.238  0.0395 -1.1052 -0.4060
11931TIP3    H257285   0.846   5.776  12.095  0.6291 -1.2517 -0.5640
11932TIP3   OH257286   3.325   3.916   1.834 -0.3574 -0.3303  0.3660
11932TIP3    H157287   3.388   3.960   1.890  0.0650 -1.5892  0.9270
11932TIP3    H257288   3.321   3.826   1.868 -0.9757 -0.8082 -0.8876
11933TIP3   OH257289   0.281   6.748   3.610  0.0235 -0.4082 -0.0765
11933TIP3    H157290   0.344   6.709   3.549  1.4170  0.2728  0.9005
11933TIP3    H257291   0.292   6.698   3.691 -1.4349 -0.9505 -0.1871
11934TIP3   OH257292   0.116   3.899  16.824  0.5309  0.1724 -0.2033
11934TIP3    H157293   0.158   3.985  16.834  0.9859  0.1496 -1.6176
11934TIP3    H257294   0.181   3.846  16.777  0.8477 -1.4424  1.9461
11935TIP3   OH257295   2.631   5.422  12.762 -0.2627  0.4572  0.0266
11935TIP3    H157296   2.574   5.467  12.700  0.1687  1.1615  0.1339
11935TIP3    H257297   2.647   5.487  12.830 -2.1132 -0.8133  1.8055
11936TIP3   OH257298   2.779   2.110   4.305 -0.8028 -0.1304  0.0029
11936TIP3    H157299   2.834   2.171   4.256 -0.8685 -0.6035 -0.6691
11936TIP3    H257300   2.821   2.103   4.390 -0.7874  0.8407  0.0857
11937TIP3   OH257301   0.339   2.432   2.875  0.2883 -0.1084  0.2659
11937TIP3    H157302   0.350   2.392   2.962  0.7783  1.2506  0.8644
11937TIP3    H257303   0.256   2.397   2.843  1.5554 -3.0094 -0.0677
11938TIP3   OH257304   1.094   0.251   4.920 -0.0169  0.1973  0.1942
11938TIP3    H157305   1.003   0.228   4.939  0.1041 -1.2805 -0.8604
11938TIP3    H257306   1.098   0.346   4.933 -1.3198  0.0915  1.7119
11939TIP3   OH257307   1.620   4.318   3.528  0.0188  0.3318 -0.1199
11939TIP3    H157308   1.573   4.242   3.495 -0.7971  0.9703 -0.4594
11939TIP3    H257309   1.561   4.392   3.512  1.2629  1.2050 -0.8356
11940TIP3   OH257310   3.546   3.372   4.480 -0.1674 -0.4104 -0.3692
11940TIP3    H157311   3.597   3.301   4.441 -1.4121 -0.2883 -2.4098
11940TIP3    H257312   3.604   3.448   4.478 -0.0687 -0.4880 -1.8233
11941TIP3   OH257313   5.079   4.106  17.131  0.2386 -0.2338  0.2452
11941TIP3    H157314   5.158   4.069  17.093  0.9078  0.3485  1.0256
11941TIP3    H257315   5.034   4.032  17.171  0.2177 -0.6231 -0.4921
11942TIP3   OH257316   5.714   5.979  13.324  0.0631 -0.7436  0.6119
11942TIP3    H157317   5.751   5.891  13.318  0.6594 -0.4133 -1.2655
11942TIP3    H257318   5.754   6.017  13.401  2.8711 -0.8070 -0.7022
11943TIP3   OH257319   2.353   1.492  14.616  0.1783  0.4287 -0.4208
11943TIP3    H157320   2.291   1.540  14.671  0.2379 -0.3802  0.3654
11943TIP3    H257321   2.312   1.407  14.602  1.1958 -0.2176  0.3198
11944TIP3   OH257322   1.788   5.614  16.743  0.0348 -0.4770 -0.2230
11944TIP3    H157323   1.849   5.589  16.813  2.1753  1.0204 -1.4243
11944TIP3    H257324   1.772   5.533  16.695  1.3566 -0.8632 -0.0547
11945TIP3   OH257325   4.452   5.723   2.852 -0.1777 -0.1007  0.4975
11945TIP3    H157326   4.359   5.738   2.833 -0.2874 -1.6165 -0.2957
11945TIP3    H257327   4.499   5.776   2.787 -0.4862 -0.0787  0.2891
11946TIP3   OH257328   2.745   6.115  12.196 -0.8986  0.4676 -0.1278
11946TIP3    H157329   2.779   6.048  12.255 -0.4491  0.2468 -0.6244
11946TIP3    H257330   2.820   6.139  12.141 -1.1517  1.1078 -0.2062
11947TIP3   OH257331   5.880   4.419  12.236 -0.0046 -0.1407 -0.0137
11947TIP3    H157332   5.961   4.456  12.272 -0.3099 -0.0903  0.6364
11947TIP3    H257333   5.872   4.333  12.277  1.4729 -1.6538 -2.6273
11948TIP3   OH257334   5.574   1.304  15.290  0.1071 -0.4359  0.2750
11948TIP3    H157335   5.488   1.305  15.331  0.0896  1.8211  0.3238
11948TIP3    H257336   5.555   1.302  15.196  0.0870 -2.4160  0.2896
11949TIP3   OH257337   0.513   3.279  11.282 -0.2884  0.1633 -0.2641
11949TIP3    H157338   0.502   3.249  11.191 -1.0471 -0.9720  0.1721
11949TIP3    H257339   0.430   3.258  11.324  0.3734 -0.1784  0.9215
11950TIP3   OH257340   4.884   0.229   3.481  0.2999 -0.3739  0.6495
11950TIP3    H157341   4.953   0.262   3.538 -0.6846  1.1134  1.0338
11950TIP3    H257342   4.805   0.274   3.509 -0.2744  0.2609 -1.7394
11951TIP3   OH257343   6.155   4.998  14.536  0.2271 -0.2808 -0.1229
11951TIP3    H157344   6.147   4.933  14.607 -1.3616 -0.9078 -0.8358
11951TIP3    H257345   6.242   5.035  14.549  0.2964 -0.9329  1.6853
11952TIP3   OH257346   6.483   5.723  11.488 -0.5432  0.5254  0.4418
11952TIP3    H157347   6.413   5.660  11.473 -0.0252 -0.1761  0.9172
11952TIP3    H257348   6.507   5.754  11.400  0.6142 -1.5114 -0.0169
11953TIP3   OH257349   4.856   4.779   0.138  0.0066 -0.3767 -0.6212
11953TIP3    H157350   4.792   4.789   0.068  0.6621 -1.1383 -1.3560
11953TIP3    H257351   4.807   4.740   0.210 -1.1291  2.2068  0.0926
11954TIP3   OH257352   3.116   1.805  15.211  0.0494 -0.3857  0.3979
11954TIP3    H157353   3.205   1.792  15.179 -0.5599 -4.7541 -0.1038
11954TIP3    H257354   3.084   1.882  15.165  3.2029  0.7776 -0.0680
11955TIP3   OH257355   0.130   4.766   1.123 -0.2364 -0.5180 -0.5872
11955TIP3    H157356   0.045   4.724   1.109 -0.5243  0.1622 -0.8906
11955TIP3    H257357   0.166   4.778   1.035 -0.8677  1.3151 -0.6345
11956TIP3   OH257358   1.298   3.883   3.269  0.4015  0.6164 -0.4574
11956TIP3    H157359   1.268   3.892   3.359  0.2775 -2.7442 -0.0302
11956TIP3    H257360   1.226   3.916   3.216  0.0044  1.5666  0.6357
11957TIP3   OH257361   1.362   6.307   2.248 -0.3888  0.8934  0.4493
11957TIP3    H157362   1.409   6.230   2.280 -0.8362  0.6897  0.6198
11957TIP3    H257363   1.302   6.330   2.320 -0.2462  1.4090  0.4067
11958TIP3   OH257364   3.018   6.516  15.298 -0.5643 -0.0211  0.5451
11958TIP3    H157365   3.058   6.467  15.226 -0.0059  1.3616 -0.1326
11958TIP3    H257366   2.958   6.576  15.255 -0.5149  0.5591  1.2701
11959TIP3   OH257367   5.670   6.779  17.010 -0.5764  0.4522 -0.1427
11959TIP3    H157368   5.586   6.745  16.978 -0.6657  1.7215 -1.3839
11959TIP3    H257369   5.647   6.829  17.089 -0.9941  0.7619 -0.4563
11960TIP3   OH257370   4.179   1.678   6.664  0.3904 -0.8117  0.8952
11960TIP3    H157371   4.097   1.636   6.688 -0.3090  0.6853  1.2382
11960TIP3    H257372   4.236   1.606   6.637 -1.5283 -1.7696 -0.9111
11961TIP3   OH257373   4.767   5.921  15.551 -0.2465 -0.1748 -0.0738
11961TIP3    H157374   4.721   5.924  15.635 -1.6935  1.8499 -0.8575
11961TIP3    H257375   4.780   6.013  15.528  0.0572 -0.6758 -2.1059
11962TIP3   OH257376   5.991   2.390  15.628 -0.1164 -0.5015  0.2810
11962TIP3    H157377   5.984   2.312  15.574 -1.5124 -0.0584 -0.2247
11962TIP3    H257378   6.043   2.451  15.575 -1.0227 -0.2640 -0.3608
11963TIP3   OH257379   6.320   2.310   0.825  0.2132  0.6469 -0.0039
11963TIP3    H157380   6.298   2.239   0.764 -0.0125  1.8840 -1.4046
11963TIP3    H257381   6.271   2.288   0.904 -0.5979 -0.2841 -0.7283
11964TIP3   OH257382   2.792   6.597  16.393  0.1279  0.0322 -0.6722
11964TIP3    H157383   2.706   6.588  16.435 -0.6820  0.4783 -2.1598
11964TIP3    H257384   2.846   6.532  16.437 -0.8400  0.0120  0.5847
11965TIP3   OH257385   2.090   0.420  16.217 -0.2433 -0.4673  0.0358
11965TIP3    H157386   2.184   0.411  16.230 -0.3237 -0.8349  0.3890
11965TIP3    H257387   2.067   0.503  16.259  0.4223  1.2673 -2.7959
11966TIP3   OH257388   4.199   4.129  11.058  0.7300 -0.2506 -0.6390
11966TIP3    H157389   4.230   4.063  10.996 -1.8056 -1.7361 -0.4929
11966TIP3    H257390   4.106   4.139  11.038  0.6251  1.9500  0.5798
11967TIP3   OH257391   5.797   1.278   2.059  0.3457  0.1161  0.4517
11967TIP3    H157392   5.702   1.269   2.050  0.1345  2.4929 -0.1898
11967TIP3    H257393   5.819   1.215   2.128 -1.5610 -0.9884  0.1583
11968TIP3   OH257394   4.232   2.526   3.182 -0.0330 -0.0893 -0.1597
11968TIP3    H157395   4.239   2.453   3.121  2.6593 -0.1228  0.0510
11968TIP3    H257396   4.226   2.486   3.268 -0.7271 -0.0488 -0.1872
11969TIP3   OH257397   1.591   0.374  10.564  0.0680 -0.0401 -0.1596
11969TIP3    H157398   1.530   0.327  10.620  1.3004 -0.2652  1.0360
11969TIP3    H257399   1.629   0.442  10.620  0.4528  0.5055 -1.0558
11970TIP3   OH257400   4.546   2.131  16.240  1.3619 -0.1287  0.7217
11970TIP3    H157401   4.506   2.191  16.303 -0.7227  0.9274 -1.4384
11970TIP3    H257402   4.603   2.186  16.187 -0.5737  0.0447 -1.2906
11971TIP3   OH257403   4.924   5.970   2.467 -0.1373  0.2833  0.0770
11971TIP3    H157404   4.957   5.907   2.402 -1.4442 -2.1871  1.6483
11971TIP3    H257405   4.832   5.947   2.478 -0.4312  1.9291  1.3986
11972TIP3   OH257406   4.570   2.909  14.234  0.2100  0.0330  0.2103
11972TIP3    H157407   4.597   2.846  14.300  0.1037  0.4217  0.6300
11972TIP3    H257408   4.474   2.910  14.240  0.1389 -0.6672 -0.6425
11973TIP3   OH257409   5.045   2.409  16.795  0.1684  0.7147  0.6548
11973TIP3    H157410   4.972   2.440  16.848 -0.1764 -0.0264  0.6170
11973TIP3    H257411   5.054   2.317  16.817  0.6244  0.6263  0.1208
11974TIP3   OH257412   6.154   6.292   4.514 -0.2215 -0.1281  0.3895
11974TIP3    H157413   6.132   6.368   4.568 -0.4898 -0.7547  1.1624
11974TIP3    H257414   6.121   6.217   4.562 -1.3934 -0.6298 -1.1221
11975TIP3   OH257415   3.639   5.635  13.212 -0.8177 -0.2360  0.5363
11975TIP3    H157416   3.546   5.614  13.214 -0.4877 -1.9043  0.0196
11975TIP3    H257417   3.674   5.581  13.140  0.2250  1.7564 -0.5386
11976TIP3   OH257418   6.727   1.891  12.874 -0.2553  0.4162  0.6907
11976TIP3    H157419   6.809   1.858  12.836 -0.7524 -0.5570  0.4355
11976TIP3    H257420   6.754   1.965  12.927  0.4850  1.8716 -1.5760
11977TIP3   OH257421   0.479   6.137  10.918  0.0060 -0.0273 -0.5211
11977TIP3    H157422   0.553   6.077  10.906  0.7580 -0.9669  5.5067
11977TIP3    H257423   0.404   6.080  10.936 -0.1410  0.6918  1.4945
11978TIP3   OH257424   2.078   1.934   2.483  0.2197 -0.0313 -0.7034
11978TIP3    H157425   1.997   1.903   2.442 -0.4766  1.7303 -0.7562
11978TIP3    H257426   2.049   1.978   2.563  1.3290 -1.0819  0.3181
11979TIP3   OH257427   2.324   5.785  13.667 -0.1822  0.1522 -0.2277
11979TIP3    H157428   2.342   5.878  13.684  0.7708  0.1646 -1.1797
11979TIP3    H257429   2.355   5.771  13.578 -0.8662 -0.9512 -0.3044
11980TIP3   OH257430   6.647   0.929   4.340 -0.6028 -0.1591 -0.0510
11980TIP3    H157431   6.572   0.984   4.318 -0.0529  0.6775  0.1173
11980TIP3    H257432   6.652   0.932   4.436 -0.9552 -1.0427  0.0080
11981TIP3   OH257433   1.416   1.832   1.067  0.2051  0.0637 -0.8437
11981TIP3    H157434   1.435   1.839   0.973 -0.3975  0.2668 -0.9509
11981TIP3    H257435   1.483   1.886   1.109 -0.8562  1.8031 -1.3021
11982TIP3   OH257436   1.933   3.746  15.816  0.1856  0.4862 -0.1776
11982TIP3    H157437   2.009   3.719  15.764 -0.7615 -0.2943 -1.1915
11982TIP3    H257438   1.877   3.668  15.819 -0.2539  0.8339  1.1646
11983TIP3   OH257439   1.284   0.105  11.194  0.2531  0.0922 -0.1506
11983TIP3    H157440   1.306   0.136  11.282 -0.3925 -1.9847  0.8218
11983TIP3    H257441   1.210   0.159  11.168  0.5487  0.8456  0.5252
11984TIP3   OH257442   6.144   4.867   5.101  0.1102  0.4411 -0.1944
11984TIP3    H157443   6.117   4.846   5.190  0.3892  0.2425 -0.1561
11984TIP3    H257444   6.084   4.936   5.073  0.8436  1.4334  0.6145
11985TIP3   OH257445   0.049   5.116  15.257 -0.4297 -0.1463 -0.5256
11985TIP3    H157446   0.136   5.149  15.278 -1.4120  0.5989  3.1812
11985TIP3    H257447   0.038   5.039  15.313 -1.8944 -0.6842 -1.4933
11986TIP3   OH257448   0.366   1.106  15.289  0.0810  0.2939  0.0762
11986TIP3    H157449   0.325   1.143  15.210 -0.2754  0.2350  0.2294
11986TIP3    H257450   0.293   1.091  15.348  0.4891  1.6576  0.9627
11987TIP3   OH257451   3.989   3.483  12.288 -0.3255 -0.0904 -0.1610
11987TIP3    H157452   3.901   3.448  12.305  0.2556 -1.4576  0.1637
11987TIP3    H257453   3.974   3.573  12.260 -1.8067 -0.1725  0.2940
11988TIP3   OH257454   5.668   0.090   4.143  0.1657 -0.0395 -0.6242
11988TIP3    H157455   5.576   0.066   4.146 -0.3445  1.7246 -0.8775
11988TIP3    H257456   5.702   0.068   4.230 -0.1519 -1.8572 -0.9303
11989TIP3   OH257457   6.032   4.168   5.722  0.1352  0.1041 -0.1405
11989TIP3    H157458   6.067   4.226   5.654  0.6716  0.3387  0.3324
11989TIP3    H257459   5.960   4.218   5.761 -1.2187 -0.6514 -1.5778
11990TIP3   OH257460   3.286   6.531  10.793 -0.1944  0.0471  0.2559
11990TIP3    H157461   3.217   6.465  10.789 -0.1471  0.0549 -0.8390
11990TIP3    H257462   3.290   6.568  10.705 -0.5795  1.8901  0.9619
11991TIP3   OH257463   1.064   6.460  16.015  0.0877  0.2444 -0.6146
11991TIP3    H157464   1.055   6.491  16.105  2.2260 -0.8826  0.0574
11991TIP3    H257465   1.053   6.539  15.961  1.2565  1.4290  0.7924
11992TIP3   OH257466   2.911   1.913   6.142  0.3529  0.6364  0.0354
11992TIP3    H157467   2.891   1.988   6.198  0.9741  0.9437 -0.1500
11992TIP3    H257468   2.945   1.847   6.202 -2.0776 -0.2931  0.5357
11993TIP3   OH257469   0.750   6.195   3.985  0.3106  0.1924  0.3211
11993TIP3    H157470   0.799   6.113   3.990  1.9470  0.9278 -1.9438
11993TIP3    H257471   0.790   6.242   3.911 -0.7324  2.9239  1.3800
11994TIP3   OH257472   2.094   1.752   1.802  0.3034 -0.1738 -0.6276
11994TIP3    H157473   2.062   1.731   1.890  1.1891 -1.3265 -0.5537
11994TIP3    H257474   2.157   1.822   1.816  2.7599 -2.3804  0.1254
11995TIP3   OH257475   2.516   2.302  16.242  0.1501 -0.2950 -0.6094
11995TIP3    H157476   2.582   2.269  16.180  1.5915 -2.2847  1.7803
11995TIP3    H257477   2.460   2.227  16.260  0.2679 -0.0374  1.0302
11996TIP3   OH257478   0.279   0.717  13.007 -0.0334  0.4857 -0.3443
11996TIP3    H157479   0.308   0.730  13.097 -1.0844  1.1534 -0.0739
11996TIP3    H257480   0.237   0.630  13.008  2.1338 -0.6197 -0.8146
11997TIP3   OH257481   3.473   3.196   2.933 -0.7467 -0.0224  0.6471
11997TIP3    H157482   3.502   3.283   2.961  0.4788 -0.3065  0.2754
11997TIP3    H257483   3.485   3.141   3.010 -0.5320 -0.0888  0.5658
11998TIP3   OH257484   4.254   0.089  15.378 -0.3506  0.1260  0.4664
11998TIP3    H157485   4.217   0.007  15.410  0.9513 -0.9610 -0.7280
11998TIP3    H257486   4.315   0.116  15.446 -0.0582 -0.4106  0.4162
11999TIP3   OH257487   5.262   1.854   2.730 -0.6167  0.2804  0.4249
11999TIP3    H157488   5.285   1.823   2.817 -0.7939 -0.5080  0.2022
11999TIP3    H257489   5.343   1.845   2.679 -0.3795  1.2017  0.6222
12000TIP3   OH257490   2.342   0.746  14.922 -0.1848 -0.0252 -0.1829
12000TIP3    H157491   2.373   0.759  15.012 -0.4670  1.0121 -0.2158
12000TIP3    H257492   2.379   0.820  14.873  0.1533 -0.7070 -0.9754
12001TIP3   OH257493   2.978   6.689  14.216 -0.3201  0.5438  0.3287
12001TIP3    H157494   3.011   6.779  14.211  1.0457  0.0322 -0.2787
12001TIP3    H257495   3.023   6.651  14.291  2.1357 -0.7638 -1.6749
12002TIP3   OH257496   4.531   0.824  13.902  0.0823  0.4026  0.5981
12002TIP3    H157497   4.461   0.827  13.837 -0.8694 -1.4723  1.4423
12002TIP3    H257498   4.555   0.915  13.916 -1.2173  0.9906 -0.7439
12003TIP3   OH257499   2.103   2.253   4.606  0.3969  0.3240 -0.0366
12003TIP3    H157500   2.026   2.200   4.624  1.0959 -0.6306  0.2217
12003TIP3    H257501   2.084   2.337   4.647 -0.4482  0.0603  0.1376
12004TIP3   OH257502   4.874   5.564   0.772  0.1778 -0.1553 -0.1748
12004TIP3    H157503   4.926   5.499   0.725 -1.5481 -0.1007 -2.3301
12004TIP3    H257504   4.802   5.514   0.811 -1.0692  0.3522 -1.7124
12005TIP3   OH257505   6.154   5.156   0.330 -0.8421  0.4033  0.3114
12005TIP3    H157506   6.095   5.182   0.259 -0.4923  1.4585  0.3939
12005TIP3    H257507   6.117   5.196   0.408 -0.7473 -0.0435  0.5896
12006TIP3   OH257508   5.606   5.999   2.208 -0.0287 -0.2595  0.1033
12006TIP3    H157509   5.536   6.055   2.174 -0.7123  0.3331  2.2972
12006TIP3    H257510   5.565   5.948   2.277  1.6190 -0.1346  1.2341
12007TIP3   OH257511   2.166   4.857  11.643 -0.1326  0.1706  0.4192
12007TIP3    H157512   2.158   4.948  11.615  1.7537  0.4179  0.5262
12007TIP3    H257513   2.089   4.841  11.696  0.2297  2.1975  1.6598
12008TIP3   OH257514   3.287   1.492   1.420  0.0911  0.2113 -0.1808
12008TIP3    H157515   3.326   1.507   1.334 -0.4185 -0.7048 -0.5803
12008TIP3    H257516   3.339   1.547   1.479  1.5490 -0.4327 -0.7985
12009TIP3   OH257517   0.611   2.914  14.241  0.0957  0.7635 -0.2198
12009TIP3    H157518   0.540   2.933  14.302 -0.5857  0.9736 -1.0471
12009TIP3    H257519   0.567   2.904  14.156  0.9249 -0.2961 -0.5432
12010TIP3   OH257520   4.802   2.640  14.168  0.3012 -0.0178 -0.3082
12010TIP3    H157521   4.861   2.583  14.218  1.8216  0.7679 -1.1123
12010TIP3    H257522   4.747   2.682  14.234 -0.0295 -1.4999  0.3896
12011TIP3   OH257523   3.045   4.881   6.002 -0.7591  0.0405  0.1586
12011TIP3    H157524   3.002   4.834   5.931  0.8861  0.8167 -1.4292
12011TIP3    H257525   2.986   4.953   6.022 -2.1049 -1.2131  0.8856
12012TIP3   OH257526   3.965   3.923   2.419  0.0619 -0.7377  0.6034
12012TIP3    H157527   4.003   3.840   2.389  1.3310  0.1264 -0.2847
12012TIP3    H257528   3.944   3.970   2.339  1.2127  0.6096  1.0546
12013TIP3   OH257529   4.815   4.557   2.692  0.0547 -0.1706  0.4939
12013TIP3    H157530   4.735   4.608   2.701  1.8034  2.5651  1.7996
12013TIP3    H257531   4.814   4.497   2.767  0.4406  1.7734  2.1439
12014TIP3   OH257532   4.291   0.180   1.163  0.0823 -0.4804 -0.0415
12014TIP3    H157533   4.223   0.245   1.180 -0.5911 -0.8084 -1.4151
12014TIP3    H257534   4.247   0.095   1.175  0.9729 -0.7281  1.8290
12015TIP3   OH257535   0.660   0.521   1.512  0.3277  0.0985 -0.5441
12015TIP3    H157536   0.593   0.532   1.445 -0.0622 -2.4596 -0.6694
12015TIP3    H257537   0.676   0.427   1.515  1.2417  0.2527  2.0814
12016TIP3   OH257538   0.303   4.667  17.032 -0.0340 -0.0401 -0.2568
12016TIP3    H157539   0.376   4.667  16.971  0.3714 -1.5837  0.1883
12016TIP3    H257540   0.326   4.732  17.098  0.3584  0.3360 -0.7581
12017TIP3   OH257541   5.672   6.001   3.663 -0.2802 -0.1155  0.7346
12017TIP3    H157542   5.609   5.978   3.595 -0.1919 -0.4026  0.7455
12017TIP3    H257543   5.617   6.021   3.740 -0.3800  0.2402  0.5724
12018TIP3   OH257544   0.023   5.324  14.064  0.2579  0.6897  0.2298
12018TIP3    H157545   0.105   5.334  14.015 -0.1581 -2.0379 -1.1766
12018TIP3    H257546   0.043   5.362  14.150  2.4060  1.7149 -0.6332
12019TIP3   OH257547   0.996   4.530  15.872 -0.7022  0.0479  0.3791
12019TIP3    H157548   0.934   4.528  15.945 -2.9517 -3.3813 -1.3295
12019TIP3    H257549   0.956   4.590  15.808 -1.1046 -0.3735  0.2243
12020TIP3   OH257550   1.719   4.320   4.180  0.0498  0.3552  0.2639
12020TIP3    H157551   1.796   4.360   4.138  1.4844 -1.5642  0.9357
12020TIP3    H257552   1.715   4.361   4.267  1.7711 -1.1401  1.1139
12021TIP3   OH257553   5.923   5.265  15.812  0.8535  0.0183 -0.9090
12021TIP3    H157554   5.889   5.354  15.827 -0.1825 -0.3075 -1.2692
12021TIP3    H257555   5.993   5.277  15.747 -0.8729  0.3058 -2.7964
12022TIP3   OH257556   2.832   4.427   4.772 -0.3814 -0.1509 -0.6605
12022TIP3    H157557   2.925   4.446   4.768 -0.6198  1.6235  0.7713
12022TIP3    H257558   2.813   4.377   4.693  1.5749  0.3260 -1.4681
12023TIP3   OH257559   4.562   2.741   6.751  0.2846  0.1392 -0.3048
12023TIP3    H157560   4.607   2.705   6.827 -0.9656 -1.5026 -0.2795
12023TIP3    H257561   4.612   2.819   6.727  2.4602 -0.9866  0.3736
12024TIP3   OH257562   3.677   2.925  15.398 -0.3928  0.3165  0.2040
12024TIP3    H157563   3.721   2.934  15.314  0.4098 -0.3569  0.5365
12024TIP3    H257564   3.615   2.853  15.385 -0.0135 -0.0263  0.2914
12025TIP3   OH257565   2.986   1.288  12.163 -0.2798 -0.2968  0.3567
12025TIP3    H157566   2.946   1.373  12.181  0.3194 -0.2328  1.4158
12025TIP3    H257567   3.038   1.303  12.084 -4.2406 -1.0020 -2.7730
12026TIP3   OH257568   2.366   0.058   1.959 -0.1422 -0.2484 -0.2488
12026TIP3    H157569   2.445   0.100   1.991 -0.3472  1.3691 -1.6819
12026TIP3    H257570   2.328   0.016   2.036  0.3146  1.8707  1.2218
12027TIP3   OH257571   4.843   0.875  13.948 -0.7473 -0.0093 -0.2639
12027TIP3    H157572   4.826   0.968  13.960  0.0535 -0.1118  2.2140
12027TIP3    H257573   4.872   0.867  13.857  0.5953  2.3962 -0.1238
12028TIP3   OH257574   3.571   3.366  15.548  0.2247  0.2217 -0.2628
12028TIP3    H157575   3.571   3.454  15.511  1.9268  0.5604  0.4298
12028TIP3    H257576   3.561   3.308  15.472 -4.8554  0.9405 -0.4590
12029TIP3   OH257577   2.536   6.750  10.802  0.0517 -0.2661  0.2037
12029TIP3    H157578   2.596   6.777  10.872 -1.4172  1.0345  1.0159
12029TIP3    H257579   2.593   6.716  10.734  1.6458  0.0173  1.3376
12030TIP3   OH257580   4.528   1.482  15.829 -1.2684  0.4855  0.7902
12030TIP3    H157581   4.580   1.562  15.832  0.1112 -0.3089 -0.5165
12030TIP3    H257582   4.554   1.433  15.908  2.2271 -1.1394 -1.1286
12031TIP3   OH257583   5.283   4.663   0.801  0.1507  0.5852  0.3402
12031TIP3    H157584   5.366   4.671   0.754 -0.4009 -0.9314 -0.9979
12031TIP3    H257585   5.216   4.688   0.737 -0.5717 -0.8129  0.4936
12032TIP3   OH257586   2.797   3.283   2.932 -0.0325  0.2729  0.4028
12032TIP3    H157587   2.756   3.201   2.960  0.9650 -0.0233  1.0603
12032TIP3    H257588   2.766   3.295   2.842  1.1788 -1.7701 -0.3618
12033TIP3   OH257589   6.050   5.829   2.923 -0.0079 -0.1129 -0.3769
12033TIP3    H157590   6.046   5.890   2.849 -1.1992 -0.3307 -0.5240
12033TIP3    H257591   6.124   5.859   2.975  0.2009  0.6901 -1.1054
12034TIP3   OH257592   2.450   4.377   3.278 -0.0141  0.3686 -0.5997
12034TIP3    H157593   2.413   4.431   3.348  0.1685  1.4088 -1.3006
12034TIP3    H257594   2.381   4.372   3.212 -0.3005 -0.8643 -0.2477
12035TIP3   OH257595   6.001   3.262   0.400 -0.4245 -0.2342  1.0600
12035TIP3    H157596   6.022   3.217   0.481 -1.0875  0.5457  1.6807
12035TIP3    H257597   5.916   3.303   0.416  0.4569  1.8310  0.7765
12036TIP3   OH257598   3.072   3.925   4.704  0.0614  0.2641  0.3009
12036TIP3    H157599   3.096   3.993   4.768  2.1354  0.8734 -1.0182
12036TIP3    H257600   3.012   3.969   4.644  1.7893  1.1539 -0.8420
12037TIP3   OH257601   2.483   1.952  13.523 -0.0302  0.1577 -0.1013
12037TIP3    H157602   2.450   2.021  13.465 -0.6663  0.8027  0.9871
12037TIP3    H257603   2.546   1.904  13.470  0.6589  1.7629 -0.8064
12038TIP3   OH257604   2.026   1.138   4.695 -0.4158 -0.3921 -0.3124
12038TIP3    H157605   2.032   1.042   4.686  0.8965 -0.3405 -0.2172
12038TIP3    H257606   1.981   1.152   4.778  0.5101 -0.9496  0.3064
12039TIP3   OH257607   1.589   4.299  12.839 -0.8349 -0.0869 -0.1882
12039TIP3    H157608   1.610   4.373  12.896 -0.4473 -0.3602  0.0225
12039TIP3    H257609   1.674   4.267  12.809 -1.0135 -0.3125 -0.4522
12040TIP3   OH257610   5.228   4.872   5.972 -0.1950 -0.2819  0.1155
12040TIP3    H157611   5.187   4.953   6.002  0.1889  0.2094 -0.6673
12040TIP3    H257612   5.231   4.817   6.050  1.2257  1.1420  1.1145
12041TIP3   OH257613   0.084   5.042  12.570 -0.2474 -0.1485 -0.0437
12041TIP3    H157614   0.134   5.059  12.490  1.1242 -1.1837  0.5586
12041TIP3    H257615   0.054   5.129  12.599  0.2126  0.3553 -1.0520
12042TIP3   OH257616   2.339   3.551  15.212  0.6340 -0.6251 -0.5431
12042TIP3    H157617   2.306   3.588  15.130  1.2366 -0.6660 -0.8093
12042TIP3    H257618   2.318   3.616  15.279  0.0653 -0.6299 -0.7151
12043TIP3   OH257619   4.916   0.868  13.299 -0.5295 -0.4551 -0.0770
12043TIP3    H157620   4.853   0.896  13.365  0.2408 -1.2281  1.0092
12043TIP3    H257621   4.952   0.950  13.264 -2.2806  0.0085 -0.9079
12044TIP3   OH257622   4.630   1.965   1.503  0.0387  0.0782  0.5583
12044TIP3    H157623   4.698   1.906   1.472  0.3065 -0.3018  1.8165
12044TIP3    H257624   4.567   1.908   1.548 -0.6756  0.5280  0.1545
12045TIP3   OH257625   5.251   5.869  15.980  0.4720  0.1456  0.1527
12045TIP3    H157626   5.160   5.841  15.972  0.1962  1.4051 -2.1820
12045TIP3    H257627   5.255   5.950  15.929  3.2355 -0.7533 -1.2448
12046TIP3   OH257628   3.200   5.064   3.559  0.9722  0.0229 -0.2574
12046TIP3    H157629   3.208   4.980   3.603 -0.1441 -0.1067 -0.2641
12046TIP3    H257630   3.246   5.052   3.476 -0.5240 -1.1423 -0.9816
12047TIP3   OH257631   4.958   6.656  15.316 -0.5366  0.3775  0.4730
12047TIP3    H157632   4.883   6.680  15.261  0.4753  0.6424 -0.8255
12047TIP3    H257633   5.027   6.716  15.290  0.5769 -0.8023  0.6070
12048TIP3   OH257634   0.806   4.035  12.399 -0.4907 -0.8648 -0.0970
12048TIP3    H157635   0.739   3.973  12.370  0.0182 -1.4678 -0.0013
12048TIP3    H257636   0.868   4.039  12.327 -1.3388  0.7715 -0.7736
12049TIP3   OH257637   3.675   0.822  11.270 -0.5932  0.5899 -0.2649
12049TIP3    H157638   3.673   0.804  11.364  2.5004  0.7672 -0.0514
12049TIP3    H257639   3.681   0.918  11.264  0.2187  0.5339 -0.5530
12050TIP3   OH257640   2.243   3.078   4.417 -0.0241  0.7548 -0.2000
12050TIP3    H157641   2.176   3.012   4.398 -0.1437  0.6544  0.5393
12050TIP3    H257642   2.240   3.088   4.512  0.1387  1.6762 -0.2820
12051TIP3   OH257643   3.336   5.773  12.353  0.1965  0.3832  0.1667
12051TIP3    H157644   3.371   5.766  12.264 -0.3724 -0.7526  0.0175
12051TIP3    H257645   3.406   5.739  12.408 -0.0716 -0.4470  0.0024
12052TIP3   OH257646   4.609   3.536  15.932 -0.1469 -0.2669  0.2853
12052TIP3    H157647   4.595   3.453  15.886 -0.3487 -0.3625  0.5166
12052TIP3    H257648   4.596   3.514  16.025 -0.7505  0.1371  0.3028
12053TIP3   OH257649   4.373   4.146   1.484 -0.8949  0.0073 -0.4100
12053TIP3    H157650   4.435   4.196   1.431 -0.6893 -0.3993 -0.5559
12053TIP3    H257651   4.303   4.209   1.505 -0.4362  0.4651 -0.2466
12054TIP3   OH257652   2.049   1.814  11.117 -0.3793  0.4168 -0.2632
12054TIP3    H157653   2.086   1.726  11.112  0.2221  0.6238  0.4318
12054TIP3    H257654   2.101   1.859  11.184  0.7987  2.0308 -2.1687
12055TIP3   OH257655   3.316   0.886  16.632 -0.4206 -0.2707  0.0867
12055TIP3    H157656   3.354   0.825  16.569 -0.3540 -1.3625  1.1531
12055TIP3    H257657   3.327   0.972  16.591  2.6745 -0.5536  0.0204
12056TIP3   OH257658   5.375   5.781   0.745 -0.1675  0.1352  0.3614
12056TIP3    H157659   5.391   5.770   0.652  3.2287 -1.0405  0.9206
12056TIP3    H257660   5.363   5.875   0.757  0.9577  0.4954 -1.0901
12057TIP3   OH257661   5.165   3.667  12.642  0.3075  0.0205 -0.4431
12057TIP3    H157662   5.244   3.625  12.608  1.0915  1.7012 -0.8102
12057TIP3    H257663   5.100   3.656  12.573  0.7651  0.1824 -0.9029
12058TIP3   OH257664   4.988   2.931  11.219 -0.3452 -0.5342 -0.1908
12058TIP3    H157665   4.946   2.886  11.292 -0.9036  0.1418 -0.0925
12058TIP3    H257666   4.924   2.927  11.148 -0.6775  0.7054  0.0312
12059TIP3   OH257667   2.856   6.775   2.247  0.2020 -0.0108  0.1185
12059TIP3    H157668   2.931   6.744   2.299 -0.1549  0.1165  0.7105
12059TIP3    H257669   2.857   6.719   2.170  1.1982  0.3017 -0.1143
12060TIP3   OH257670   3.426   5.479   0.761  0.1079  0.8439 -0.0347
12060TIP3    H157671   3.467   5.435   0.835  0.1085  1.1275  0.1353
12060TIP3    H257672   3.390   5.408   0.707 -0.1183  0.6506  0.3691
12061TIP3   OH257673   5.777   4.190   4.706 -0.8019  0.4086 -0.6468
12061TIP3    H157674   5.784   4.274   4.660 -0.0440  1.3930  1.1402
12061TIP3    H257675   5.868   4.160   4.714 -0.7896  0.8381  1.1415
12062TIP3   OH257676   2.605   2.399  10.987 -0.4434 -0.4802 -0.0670
12062TIP3    H157677   2.525   2.442  10.958 -0.3751  0.0856  0.5638
12062TIP3    H257678   2.576   2.316  11.025 -0.6627 -0.5535 -0.3857
12063TIP3   OH257679   3.432   5.863   1.454 -0.2458  0.1265  0.1210
12063TIP3    H157680   3.483   5.855   1.374 -0.5427  1.9186 -0.2911
12063TIP3    H257681   3.341   5.870   1.424 -0.3014  1.5319  0.5236
12064TIP3   OH257682   4.929   0.604  14.766  0.4891 -0.1135 -0.0123
12064TIP3    H157683   4.974   0.623  14.849  0.8021 -2.8215  0.5052
12064TIP3    H257684   4.961   0.673  14.707  3.1530 -0.2381  1.1059
12065TIP3   OH257685   5.621   1.796   2.278 -0.1247  0.4007 -0.4854
12065TIP3    H157686   5.699   1.828   2.232  0.8180  0.7520  1.2744
12065TIP3    H257687   5.655   1.757   2.358 -1.6928 -0.5214 -0.2326
12066TIP3   OH257688   0.203   4.610  11.586  0.3797  0.0404 -0.2479
12066TIP3    H157689   0.266   4.682  11.594 -0.7041  1.1039 -1.0150
12066TIP3    H257690   0.206   4.585  11.494 -1.7002  1.4496 -0.7676
12067TIP3   OH257691   0.330   4.263  13.692  0.0443 -0.0695 -0.3101
12067TIP3    H157692   0.349   4.250  13.599 -1.2804 -1.4087 -0.4292
12067TIP3    H257693   0.412   4.241  13.736  0.2773 -0.7918 -1.0745
12068TIP3   OH257694   5.933   5.784  14.955  0.0815 -0.5592 -0.7136
12068TIP3    H157695   5.950   5.710  14.897  0.9279  1.0966 -2.6955
12068TIP3    H257696   5.882   5.846  14.902 -2.5067 -0.5320  1.5516
12069TIP3   OH257697   6.114   2.395   0.534 -0.0192  0.5108  0.1411
12069TIP3    H157698   6.069   2.324   0.581  0.0971  0.7857  0.6841
12069TIP3    H257699   6.186   2.420   0.593  1.6223 -0.7285 -1.2264
12070TIP3   OH257700   4.112   1.311   5.235 -0.3040  0.3390  0.5786
12070TIP3    H157701   4.088   1.219   5.243 -0.0189  0.4009  2.7830
12070TIP3    H257702   4.111   1.328   5.141 -1.7720 -1.5210  0.2025
12071TIP3   OH257703   5.962   5.888   4.263 -0.7324  0.4236 -0.1118
12071TIP3    H157704   5.942   5.913   4.173 -0.9021  1.3531  0.1684
12071TIP3    H257705   6.010   5.806   4.255  1.5506  1.7338 -1.2401
12072TIP3   OH257706   5.621   2.351   2.766 -0.1668  0.5617  0.6560
12072TIP3    H157707   5.699   2.344   2.820 -0.1959  2.3379  0.9927
12072TIP3    H257708   5.567   2.277   2.792  0.8629  0.0103  1.3035
12073TIP3   OH257709   4.613   5.703   4.911  0.6620  0.3030 -0.3760
12073TIP3    H157710   4.661   5.620   4.903 -0.4444 -0.3958 -0.0449
12073TIP3    H257711   4.655   5.762   4.849  0.9102 -0.7844 -1.2636
12074TIP3   OH257712   5.007   2.593   5.346  0.1126 -0.6844 -0.4457
12074TIP3    H157713   4.948   2.546   5.287  0.7277 -1.4413 -0.4803
12074TIP3    H257714   5.028   2.529   5.414 -0.0833 -0.0215  0.2461
12075TIP3   OH257715   3.685   5.857  12.204  0.1150 -0.4301  0.2247
12075TIP3    H157716   3.733   5.863  12.287  2.1355 -1.0295 -0.8344
12075TIP3    H257717   3.650   5.946  12.190 -0.8032 -0.4701  1.9724
12076TIP3   OH257718   6.338   6.460   1.111  0.1214  0.4304 -0.5812
12076TIP3    H157719   6.279   6.409   1.167  0.1596  1.4073  0.3708
12076TIP3    H257720   6.315   6.551   1.129 -0.0631  0.7876 -2.3724
12077TIP3   OH257721   3.707   5.839   6.080  0.0375 -1.0820  0.0679
12077TIP3    H157722   3.749   5.783   6.146  0.1613 -0.1809  0.7813
12077TIP3    H257723   3.737   5.927   6.102 -0.3763 -0.7029 -0.8611
12078TIP3   OH257724   3.891   6.739  11.651  0.8478 -0.1091 -0.1193
12078TIP3    H157725   3.940   6.672  11.604  1.4441 -0.2781  0.7280
12078TIP3    H257726   3.886   6.812  11.590 -0.7584 -1.2850 -1.4836
12079TIP3   OH257727   1.311   0.803  14.442  0.4236  0.1378  0.8023
12079TIP3    H157728   1.389   0.747  14.438  0.5262  0.3115  0.2834
12079TIP3    H257729   1.324   0.867  14.372  0.2616  0.7612  1.3342
12080TIP3   OH257730   3.716   4.912   5.936 -0.2774  0.0062 -0.4429
12080TIP3    H157731   3.756   4.951   6.013 -1.4281  0.9797 -0.3170
12080TIP3    H257732   3.662   4.841   5.970 -0.7977  0.4457 -0.3403
12081TIP3   OH257733   0.054   5.072   2.819 -0.1488 -0.2666  0.3249
12081TIP3    H157734  -0.008   5.127   2.772 -0.4926  0.9757  2.1320
12081TIP3    H257735   0.002   4.999   2.853 -0.1908 -0.3650  0.0497
12082TIP3   OH257736   5.426   0.101  15.412 -0.4714  0.0547  0.1572
12082TIP3    H157737   5.453   0.191  15.432  0.5625  0.1541 -1.4887
12082TIP3    H257738   5.434   0.055  15.496 -0.4592  1.3581  0.8984
12083TIP3   OH257739   0.879   4.292   3.177  0.8003 -0.3377  0.1141
12083TIP3    H157740   0.874   4.345   3.098 -1.5870 -0.2923  0.2014
12083TIP3    H257741   0.813   4.224   3.164  2.5353 -2.2477  0.7754
12084TIP3   OH257742   4.422   3.068   5.845 -0.4340  0.0744  0.4865
12084TIP3    H157743   4.394   3.124   5.917 -2.5046 -1.5716  1.0606
12084TIP3    H257744   4.348   3.068   5.784 -0.0321 -1.1461 -0.0383
12085TIP3   OH257745   1.077   4.302   0.012  0.0691 -0.4165  0.5537
12085TIP3    H157746   1.045   4.285   0.101  0.4637 -1.9055  0.4425
12085TIP3    H257747   1.122   4.221  -0.012 -0.3617 -0.1740 -1.1517
12086TIP3   OH257748   0.732   1.639   4.485  0.0261 -0.2294  0.0266
12086TIP3    H157749   0.666   1.688   4.534 -0.8201 -1.1045 -0.2311
12086TIP3    H257750   0.737   1.683   4.400 -1.0881 -0.8880 -0.3831
12087TIP3   OH257751   0.843   4.537   6.435  0.5381  0.2632  0.2766
12087TIP3    H157752   0.789   4.492   6.500 -0.0289  1.9718  1.0227
12087TIP3    H257753   0.818   4.497   6.352 -2.0987  1.1382  0.5545
12088TIP3   OH257754   4.166   0.138  14.536  0.4651  0.0941  0.5165
12088TIP3    H157755   4.257   0.121  14.563  0.5643  0.2960  0.3094
12088TIP3    H257756   4.174   0.182  14.452  0.1566 -0.4218  0.2144
12089TIP3   OH257757   5.806   2.492  12.677 -0.0909 -0.1732 -0.2875
12089TIP3    H157758   5.854   2.574  12.680  0.7740 -0.6855  0.5358
12089TIP3    H257759   5.869   2.429  12.639 -0.6756 -0.4913 -0.7393
12090TIP3   OH257760   4.674   4.786   1.995 -0.7382  0.3653  0.0043
12090TIP3    H157761   4.743   4.758   1.934 -0.3343  1.1495  0.0845
12090TIP3    H257762   4.692   4.737   2.075 -1.7030 -1.2256 -0.7000
12091TIP3   OH257763   5.205   3.856   3.056  0.4802 -0.3351 -0.5463
12091TIP3    H157764   5.250   3.839   2.973 -0.0022  0.6787 -1.0345
12091TIP3    H257765   5.157   3.938   3.041  0.4111 -0.1149  0.7452
12092TIP3   OH257766   0.687   3.721  12.364  0.6612 -0.3115 -0.1451
12092TIP3    H157767   0.762   3.751  12.314 -0.0864  1.5601 -0.2232
12092TIP3    H257768   0.723   3.698  12.450  1.0678  2.8891  0.6579
12093TIP3   OH257769   1.632   2.848   1.365  0.6115 -0.3562 -0.5652
12093TIP3    H157770   1.650   2.903   1.289  1.0757 -0.1859 -0.3326
12093TIP3    H257771   1.717   2.811   1.389  0.2645 -1.4109 -0.8920
12094TIP3   OH257772   6.609   5.551  16.973  0.1466  0.0703 -0.6273
12094TIP3    H157773   6.623   5.462  16.941  2.1641  1.2478 -3.5998
12094TIP3    H257774   6.654   5.554  17.057 -1.3225 -2.0500  0.3121
12095TIP3   OH257775   0.822   3.517   4.975  0.0578 -0.3088 -0.7680
12095TIP3    H157776   0.883   3.587   4.997  0.3243 -0.4621 -1.0160
12095TIP3    H257777   0.835   3.451   5.043 -0.6032  0.1316 -0.2057
12096TIP3   OH257778   1.474   1.717   1.646  0.2542  0.1651  0.0326
12096TIP3    H157779   1.473   1.799   1.695 -0.6523 -0.3405  0.8880
12096TIP3    H257780   1.459   1.742   1.555  1.5322  1.0760  0.0445
12097TIP3   OH257781   5.282   2.997  15.837  0.1423 -0.0668 -0.3727
12097TIP3    H157782   5.192   3.016  15.810 -1.5602 -6.3003 -0.4698
12097TIP3    H257783   5.331   2.992  15.756 -0.2904 -0.1140 -0.6338
12098TIP3   OH257784   2.366   1.472  17.120  0.2450  0.1202  0.2411
12098TIP3    H157785   2.284   1.442  17.080  1.1001 -0.3289 -1.2802
12098TIP3    H257786   2.431   1.406  17.094  1.6214  1.7725 -0.8366
12099TIP3   OH257787   5.891   3.768   1.278  0.2418 -0.6905  0.3319
12099TIP3    H157788   5.952   3.696   1.291 -0.7682 -1.5216  0.5904
12099TIP3    H257789   5.806   3.734   1.307  0.0536  1.1642  2.2378
12100TIP3   OH257790   4.806   2.132   1.190 -0.6787  0.0482  0.3415
12100TIP3    H157791   4.715   2.119   1.217 -0.2486  1.1272  2.5281
12100TIP3    H257792   4.857   2.119   1.270  1.1399 -0.8268 -0.8964
12101TIP3   OH257793   4.331   2.350  14.158 -0.1312 -0.2395 -0.4476
12101TIP3    H157794   4.338   2.289  14.231  0.2885  1.4469  0.9756
12101TIP3    H257795   4.296   2.297  14.086 -0.8287 -1.8839  1.0346
12102TIP3   OH257796   6.721   5.565  17.243  0.2570  0.0180 -0.5631
12102TIP3    H157797   6.668   5.584  17.320 -1.2523 -1.7545 -1.0986
12102TIP3    H257798   6.811   5.584  17.270 -0.1979 -0.7390  1.7008
12103TIP3   OH257799   1.656   6.371   2.010  0.0125 -0.5975 -0.8090
12103TIP3    H157800   1.747   6.395   2.023  0.2646 -0.5143 -2.4320
12103TIP3    H257801   1.607   6.420   2.076  1.1505 -0.8766  0.2765
12104TIP3   OH257802   1.366   3.819  14.742 -0.7127 -0.4020 -0.2298
12104TIP3    H157803   1.343   3.760  14.814  1.5673 -1.3444 -0.1553
12104TIP3    H257804   1.396   3.760  14.673  2.4428  0.5809  0.1430
12105TIP3   OH257805   0.142   3.106   3.925  0.3188  0.1773 -0.2402
12105TIP3    H157806   0.084   3.053   3.980  0.4578 -1.8062 -1.8596
12105TIP3    H257807   0.215   3.130   3.983 -0.4829 -0.1540  0.9424
12106TIP3   OH257808   1.215   3.710   3.843  0.5183 -0.6503 -0.5651
12106TIP3    H157809   1.224   3.624   3.885  0.5433 -0.2958  0.1715
12106TIP3    H257810   1.144   3.698   3.780 -1.4962 -0.4742  1.5456
12107TIP3   OH257811   1.692   0.807  11.461  0.0067 -0.5168  0.0028
12107TIP3    H157812   1.758   0.874  11.478 -1.0542  0.6584 -0.3905
12107TIP3    H257813   1.682   0.762  11.544  0.3286  0.1813  0.4304
12108TIP3   OH257814   4.916   5.726  12.089  0.6072  0.7327 -0.3875
12108TIP3    H157815   5.006   5.757  12.094  0.5099  0.8087  1.9179
12108TIP3    H257816   4.919   5.653  12.027  2.1518  1.0139 -0.6884
12109TIP3   OH257817   5.418   4.578   4.601  0.1986 -0.0598 -0.6038
12109TIP3    H157818   5.387   4.547   4.686 -1.4713  0.4912 -0.9780
12109TIP3    H257819   5.348   4.555   4.540  0.7840  0.7228 -1.6001
12110TIP3   OH257820   0.972   0.188   1.441 -0.1599 -0.2992 -0.0301
12110TIP3    H157821   1.009   0.113   1.487 -0.5463  0.1191  0.9769
12110TIP3    H257822   1.045   0.249   1.432  0.1030 -0.6925 -0.6665
12111TIP3   OH257823   6.133   1.887  16.944 -0.1198  0.2946 -0.1053
12111TIP3    H157824   6.169   1.971  16.971 -0.0897  0.4093 -0.4927
12111TIP3    H257825   6.210   1.833  16.927 -0.1402  0.0679  0.5047
12112TIP3   OH257826   2.395   4.089  15.161  0.1291 -0.1846  0.7364
12112TIP3    H157827   2.347   4.146  15.221  0.2105  2.3899 -1.4611
12112TIP3    H257828   2.345   4.092  15.079  2.4091  0.2678 -0.7455
12113TIP3   OH257829   2.146   0.510  17.104 -0.2511  0.2937 -0.1638
12113TIP3    H157830   2.210   0.559  17.052 -1.0864  0.9450 -0.6028
12113TIP3    H257831   2.137   0.560  17.185  1.0709 -0.7364  0.6662
12114TIP3   OH257832   1.195   1.707   3.619 -0.2696 -0.5482 -0.1105
12114TIP3    H157833   1.244   1.750   3.549 -1.4433  0.3645 -0.4013
12114TIP3    H257834   1.156   1.630   3.578  0.6458 -1.1166  0.0509
12115TIP3   OH257835   2.194   1.239  15.237  0.3292  0.7218  0.3157
12115TIP3    H157836   2.210   1.316  15.292  0.1204  0.1762  1.1412
12115TIP3    H257837   2.240   1.168  15.281  0.1489  0.2764 -0.2093
12116TIP3   OH257838   2.340   1.614  15.805  0.5062  0.2153 -0.0067
12116TIP3    H157839   2.372   1.679  15.867  1.1627  0.2278 -0.3534
12116TIP3    H257840   2.418   1.580  15.762  0.3133 -1.7601  1.0972
12117TIP3   OH257841   6.260   6.567  14.908  0.0489 -0.0356 -0.9974
12117TIP3    H157842   6.180   6.542  14.862  1.4286 -0.4461 -3.3434
12117TIP3    H257843   6.285   6.652  14.869  1.3907 -0.5134 -1.2527
12118TIP3   OH257844   1.571   5.963   0.897 -0.2703 -0.4206  0.0094
12118TIP3    H157845   1.629   5.897   0.934 -1.3125 -0.7184  1.1698
12118TIP3    H257846   1.547   6.018   0.971 -0.8718  0.1460 -0.5951
12119TIP3   OH257847   6.713   3.988   4.768  0.2725  0.0436 -0.3225
12119TIP3    H157848   6.654   4.062   4.786  1.5411  0.9373  0.3551
12119TIP3    H257849   6.723   3.944   4.852  1.9210  0.9694  0.0259
12120TIP3   OH257850   5.937   3.924  11.363  0.2499  0.5992 -0.5564
12120TIP3    H157851   5.882   3.847  11.348 -1.8123  1.9840 -0.4518
12120TIP3    H257852   6.025   3.888  11.377 -0.3969 -1.6302 -1.7581
12121TIP3   OH257853   0.229   3.516  14.570 -0.4713 -0.2983 -0.4756
12121TIP3    H157854   0.222   3.429  14.609  0.6781  0.3027  1.1962
12121TIP3    H257855   0.178   3.572  14.627 -0.2724  0.3130 -0.8891
12122TIP3   OH257856   0.309   1.318  11.499 -0.3183 -0.2675 -0.2530
12122TIP3    H157857   0.255   1.291  11.573  0.6113 -1.0690  0.1424
12122TIP3    H257858   0.306   1.414  11.501 -0.4774 -0.2871  0.6763
12123TIP3   OH257859   2.492   4.186  15.915 -0.1404 -0.3746  0.0412
12123TIP3    H157860   2.571   4.151  15.955 -0.6664 -0.4276  1.0661
12123TIP3    H257861   2.523   4.234  15.838  1.0698  1.1780  1.4245
12124TIP3   OH257862   1.344   6.347   5.269  0.0861 -0.4864 -0.1285
12124TIP3    H157863   1.328   6.341   5.363  2.3027 -0.7687  0.2929
12124TIP3    H257864   1.294   6.424   5.242 -0.2980 -0.1652  1.3685
12125TIP3   OH257865   5.466   1.002  16.528  0.1138 -0.3261  0.2614
12125TIP3    H157866   5.544   0.961  16.567  0.0378 -1.0332 -0.3132
12125TIP3    H257867   5.392   0.961  16.574  0.0535 -0.3203  0.1685
12126TIP3   OH257868   6.670   4.228   4.380 -1.2636  0.0140  0.6133
12126TIP3    H157869   6.703   4.248   4.467  0.1255 -1.0183  0.3584
12126TIP3    H257870   6.692   4.305   4.327  0.8275 -0.6344  0.4535
12127TIP3   OH257871   0.593   3.438  13.286 -0.3811  0.3249 -0.0498
12127TIP3    H157872   0.583   3.475  13.198 -1.0716  0.0796 -0.0800
12127TIP3    H257873   0.571   3.511  13.345  0.0537  0.4809 -0.0756
12128TIP3   OH257874   2.859   0.079  11.571 -0.4615  0.0612 -0.8344
12128TIP3    H157875   2.940   0.063  11.619  1.5094  0.2859 -3.7903
12128TIP3    H257876   2.807   0.135  11.629  1.3131 -0.4026  1.3182
12129TIP3   OH257877   4.045   4.539  12.061 -0.4713 -0.5317 -0.4430
12129TIP3    H157878   4.114   4.550  11.995 -0.4752 -3.2416 -1.0554
12129TIP3    H257879   4.085   4.570  12.143  0.6216  0.1174 -1.1870
12130TIP3   OH257880   6.535   1.584   2.608  0.4073 -0.1549 -0.1509
12130TIP3    H157881   6.627   1.579   2.582  0.4192 -1.0902  0.0153
12130TIP3    H257882   6.515   1.677   2.610  0.8446  0.0148 -1.9646
12131TIP3   OH257883   6.097   0.037  15.073 -0.8083  0.2854 -0.0877
12131TIP3    H157884   6.083  -0.026  15.144 -0.8636  0.8102  0.3721
12131TIP3    H257885   6.016   0.034  15.022 -1.6766  1.4850  1.1314
12132TIP3   OH257886   6.744   0.839   1.120 -0.4915  0.7551 -0.1085
12132TIP3    H157887   6.752   0.743   1.120  0.8919  0.8390  0.4821
12132TIP3    H257888   6.704   0.859   1.205  0.1936  0.7469  0.2239
12133TIP3   OH257889   3.463   2.238   5.116  0.6917 -0.2538 -0.1482
12133TIP3    H157890   3.487   2.294   5.042 -0.4000  0.3788 -0.0514
12133TIP3    H257891   3.407   2.294   5.170  1.3021 -0.7795  1.0460
12134TIP3   OH257892   0.363   2.458  16.557 -0.1563  0.1193  0.4305
12134TIP3    H157893   0.324   2.433  16.641 -0.0016 -0.0040  0.4645
12134TIP3    H257894   0.354   2.380  16.502 -1.7823  0.7245 -0.2156
12135TIP3   OH257895   1.825   1.592  12.076 -0.1721 -0.1381 -0.4445
12135TIP3    H157896   1.869   1.548  12.149 -0.9508 -1.2464 -0.6116
12135TIP3    H257897   1.732   1.592  12.100 -0.3824 -0.0873 -1.2131
12136TIP3   OH257898   3.961   5.145   0.138 -0.1529 -0.5448 -0.0311
12136TIP3    H157899   4.024   5.216   0.128  1.3601 -1.9695 -1.2181
12136TIP3    H257900   3.878   5.183   0.109  0.4044  0.9757  0.2425
12137TIP3   OH257901   6.053   3.299   6.439  0.0343 -0.8690  0.0859
12137TIP3    H157902   6.061   3.357   6.515 -0.5855 -1.3492  0.5359
12137TIP3    H257903   6.011   3.352   6.372  1.0552 -0.2855 -0.0945
12138TIP3   OH257904   0.206   1.465   3.275 -0.0813 -0.0423 -0.2913
12138TIP3    H157905   0.248   1.388   3.236  1.2965 -1.1176  3.0144
12138TIP3    H257906   0.278   1.519   3.305 -0.9744 -0.2209  2.3954
12139TIP3   OH257907   0.376   6.438   2.172 -0.3299 -0.0575  0.0317
12139TIP3    H157908   0.435   6.482   2.234 -0.9081 -2.3556  2.4016
12139TIP3    H257909   0.288   6.458   2.204 -0.6137 -2.1069  0.6560
12140TIP3   OH257910   0.814   6.334  11.976  0.3275  0.0290 -0.3423
12140TIP3    H157911   0.803   6.279  11.898  0.1064 -0.2427 -0.1200
12140TIP3    H257912   0.737   6.316  12.029  1.0011 -0.5981  0.4358
12141TIP3   OH257913   4.592   6.723  15.530  0.1320 -0.0589 -0.4483
12141TIP3    H157914   4.603   6.656  15.463  0.5031 -0.0147 -0.4331
12141TIP3    H257915   4.637   6.800  15.495 -0.9949  0.4508 -0.8408
12142TIP3   OH257916   5.154   6.256   4.995  0.2271 -0.3029 -0.1684
12142TIP3    H157917   5.076   6.288   5.041  0.0767 -0.5880 -0.2219
12142TIP3    H257918   5.120   6.196   4.929  0.5667 -1.5814  0.7686
12143TIP3   OH257919   0.650   4.335   1.461 -0.1585 -0.3799  0.0276
12143TIP3    H157920   0.667   4.319   1.554 -0.4350 -2.3675 -0.2175
12143TIP3    H257921   0.674   4.427   1.448  2.5723 -0.7883  1.4535
12144TIP3   OH257922   2.801   0.473  16.920 -0.5272 -0.5519  0.4882
12144TIP3    H157923   2.766   0.544  16.867  0.4041 -0.7639 -0.4457
12144TIP3    H257924   2.776   0.393  16.874  0.6371 -0.7267  0.1140
12145TIP3   OH257925   0.687   0.031   0.596  0.1568  0.1594 -0.2225
12145TIP3    H157926   0.648   0.113   0.567 -1.8734 -1.0733 -1.1178
12145TIP3    H257927   0.674   0.030   0.691 -1.9257 -0.1290 -0.4687
12146TIP3   OH257928   6.171   4.347   0.906 -0.1884  0.0648  0.1225
12146TIP3    H157929   6.220   4.425   0.878  0.0489 -0.5618 -1.3048
12146TIP3    H257930   6.213   4.275   0.859 -0.6129 -0.8871  1.1783
12147TIP3   OH257931   6.628   1.469   3.744  0.2861 -0.2763 -0.5844
12147TIP3    H157932   6.654   1.379   3.761  3.9863  0.3642 -1.9168
12147TIP3    H257933   6.654   1.516   3.824 -0.7013 -0.1996 -0.2959
12148TIP3   OH257934   5.353   2.511  15.467 -0.0929 -0.1699 -0.0772
12148TIP3    H157935   5.364   2.488  15.560  0.7408 -0.7871 -0.3135
12148TIP3    H257936   5.438   2.548  15.442 -0.3322  0.0389 -0.5860
12149TIP3   OH257937   2.974   2.530  11.945 -0.3518 -0.1628  0.0013
12149TIP3    H157938   3.069   2.535  11.943 -0.4100  1.7104  0.5654
12149TIP3    H257939   2.945   2.618  11.967 -2.2892 -0.2862 -1.7353
12150TIP3   OH257940   0.772   3.250   4.880 -0.0629 -0.0299  0.6229
12150TIP3    H157941   0.859   3.246   4.842  0.1655 -0.0706  1.1318
12150TIP3    H257942   0.735   3.332   4.849 -0.1739 -0.4038 -0.2724
12151TIP3   OH257943   3.437   0.357  10.531 -0.6681 -0.7751 -0.3683
12151TIP3    H157944   3.347   0.350  10.501 -0.0653 -1.8051 -2.0483
12151TIP3    H257945   3.449   0.451  10.547 -2.3315 -0.7413  0.9761
12152TIP3   OH257946   6.300   5.442   1.917 -0.1081 -0.0982  0.6940
12152TIP3    H157947   6.277   5.381   1.847  2.7152 -0.9443  0.3876
12152TIP3    H257948   6.241   5.517   1.904 -1.7940 -1.5732 -0.5911
12153TIP3   OH257949   0.504   1.898   2.905  0.2977 -0.0446  0.2963
12153TIP3    H157950   0.499   1.837   2.979 -0.8728  0.2781  0.5166
12153TIP3    H257951   0.514   1.842   2.828 -2.8964 -0.7484  0.2533
12154TIP3   OH257952   5.473   0.722   5.850  0.1415  0.8189 -0.1235
12154TIP3    H157953   5.557   0.761   5.826 -0.3430  1.7669 -0.2964
12154TIP3    H257954   5.439   0.686   5.768  0.1468  0.8653 -0.1461
12155TIP3   OH257955   0.676   5.635   3.360 -0.3742 -0.8044 -0.2042
12155TIP3    H157956   0.725   5.554   3.341 -1.2077 -1.5191  0.5940
12155TIP3    H257957   0.609   5.608   3.422  0.2134  0.7838  1.1887
12156TIP3   OH257958   5.819   2.762   3.658  0.1137  0.1768 -0.2155
12156TIP3    H157959   5.816   2.856   3.676  1.6104  0.0325  1.0084
12156TIP3    H257960   5.896   2.752   3.602 -0.1312 -0.3051 -0.4658
12157TIP3   OH257961   5.005   3.828  14.281  0.1271 -0.4895  0.7396
12157TIP3    H157962   4.983   3.851  14.371 -0.1430 -0.9008  0.7785
12157TIP3    H257963   4.935   3.867  14.228 -0.9856 -2.1638  0.8981
12158TIP3   OH257964   6.046   2.820  15.234 -0.1434  0.1382 -0.5850
12158TIP3    H157965   6.074   2.850  15.320  0.0859 -2.0860  0.1756
12158TIP3    H257966   6.107   2.861  15.173  1.0627  0.0693  0.5239
12159TIP3   OH257967   1.810   3.768  16.093  0.0056  0.5479  0.2185
12159TIP3    H157968   1.833   3.760  16.000  0.1682 -2.9327  0.4099
12159TIP3    H257969   1.719   3.739  16.098 -0.0271  0.7784  1.1113
12160TIP3   OH257970   4.036   4.102   4.760 -0.3962  0.1385  0.0387
12160TIP3    H157971   3.949   4.062   4.750 -0.9117  1.3838 -0.7074
12160TIP3    H257972   4.090   4.060   4.693 -0.6216 -0.1145  0.0142
12161TIP3   OH257973   3.570   4.528  12.918 -0.6782  0.1451  0.1048
12161TIP3    H157974   3.498   4.487  12.868 -0.9426  1.3871 -0.5757
12161TIP3    H257975   3.636   4.547  12.852 -1.3184  2.4552  0.0535
12162TIP3   OH257976   3.482   5.348  11.346 -0.5465 -0.0144 -0.1776
12162TIP3    H157977   3.567   5.389  11.361 -0.7346  0.2138  0.2847
12162TIP3    H257978   3.503   5.260  11.314 -0.1337  0.6260 -1.7769
12163TIP3   OH257979   1.634   0.699   6.584  0.0585  0.0647 -0.5103
12163TIP3    H157980   1.705   0.647   6.622 -0.9008 -0.0564  1.2024
12163TIP3    H257981   1.606   0.649   6.507  0.7605 -0.6948 -0.2852
12164TIP3   OH257982   0.440   0.755   1.661 -0.0590 -0.3122 -0.0054
12164TIP3    H157983   0.397   0.837   1.637 -1.4155 -1.3391 -1.2202
12164TIP3    H257984   0.481   0.724   1.580  0.3438 -0.8969  0.4137
12165TIP3   OH257985   5.815   5.156   6.235  0.2959 -0.0994  0.3427
12165TIP3    H157986   5.862   5.238   6.223 -0.2849  0.2176  0.1897
12165TIP3    H257987   5.871   5.104   6.292  1.3869 -0.2000 -0.7966
12166TIP3   OH257988   2.265   3.442   3.442  0.2518  0.7464 -0.3117
12166TIP3    H157989   2.223   3.357   3.458  0.4031  0.6296 -0.5249
12166TIP3    H257990   2.324   3.426   3.368  0.1081  1.0944 -0.5053
12167TIP3   OH257991   1.659   3.998   3.305  0.2459 -0.5897  0.1134
12167TIP3    H157992   1.727   3.971   3.366 -0.4212 -1.9432  0.3063
12167TIP3    H257993   1.607   3.918   3.290 -0.8171  0.2068 -0.6302
12168TIP3   OH257994   6.465   2.390  12.031  0.7261 -0.1621  0.6961
12168TIP3    H157995   6.463   2.473  12.078 -0.6330  0.2716 -0.0789
12168TIP3    H257996   6.409   2.332  12.081 -0.0215  0.0363  0.1009
12169TIP3   OH257997   1.272   5.317  10.466 -0.5708 -0.0010 -0.0247
12169TIP3    H157998   1.313   5.400  10.442  4.0026 -1.7492  0.7293
12169TIP3    H257999   1.255   5.273  10.383 -1.7635  1.1076 -0.3828
12170TIP3   OH258000   6.067   2.177   4.848 -0.3833 -0.3408  0.6507
12170TIP3    H158001   6.137   2.239   4.830  0.8999 -1.4510  1.6404
12170TIP3    H258002   6.066   2.119   4.772  2.2912 -2.5354  2.1283
12171TIP3   OH258003   1.323   5.101   3.287 -0.1313  0.1587 -0.4105
12171TIP3    H158004   1.397   5.139   3.335 -1.0058  0.5997  0.6221
12171TIP3    H258005   1.284   5.039   3.348  0.7718 -1.8875 -1.7756
12172TIP3   OH258006   3.475   4.798   3.635 -0.4156 -0.6611  0.1456
12172TIP3    H158007   3.509   4.728   3.580  0.2296  0.5416 -1.0353
12172TIP3    H258008   3.380   4.793   3.625 -0.2977 -0.3341 -1.2372
12173TIP3   OH258009   0.625   5.410   1.087  0.7734 -0.1606  0.1152
12173TIP3    H158010   0.540   5.378   1.057  0.1380 -0.0561  1.7267
12173TIP3    H258011   0.682   5.334   1.085 -0.1509 -0.9398  1.8267
12174TIP3   OH258012   0.877   4.625   2.693 -0.7768  0.0041 -0.0012
12174TIP3    H158013   0.869   4.705   2.745  1.6783  0.3133  0.0184
12174TIP3    H258014   0.846   4.649   2.606 -0.5697  0.8053  0.1435
12175TIP3   OH258015   4.846   4.076  12.014  0.5613 -0.5183  0.3000
12175TIP3    H158016   4.778   4.028  12.063  0.1788 -0.1756  0.1108
12175TIP3    H258017   4.874   4.015  11.946 -0.4607 -0.2075 -0.4135
12176TIP3   OH258018   6.289   3.777   1.391 -0.2351 -0.0779 -0.0650
12176TIP3    H158019   6.315   3.785   1.482 -0.7732  0.2342  0.0651
12176TIP3    H258020   6.336   3.700   1.359  1.1215  0.6732  0.0547
12177TIP3   OH258021   0.131   1.756   0.540  0.2339  0.0472  0.2265
12177TIP3    H158022   0.076   1.709   0.602 -2.0913 -0.6058 -2.1713
12177TIP3    H258023   0.142   1.696   0.467  0.5969  1.7457 -1.1899
12178TIP3   OH258024   2.609   3.074   1.251  0.0045 -0.0072  0.2351
12178TIP3    H158025   2.627   3.166   1.271 -1.7225  0.5667 -0.7164
12178TIP3    H258026   2.527   3.054   1.296  0.9032 -1.4336  1.3307
12179TIP3   OH258027   3.256   1.825  13.122  0.2590  0.9826 -0.2548
12179TIP3    H158028   3.334   1.776  13.148  1.0134  0.7878 -2.6418
12179TIP3    H258029   3.285   1.878  13.048 -1.7665  1.3103 -0.8645
12180TIP3   OH258030   2.357   5.616   4.531  0.1135 -0.4486 -0.0921
12180TIP3    H158031   2.416   5.549   4.566  1.9962  1.2000  0.0280
12180TIP3    H258032   2.282   5.566   4.497  1.8454 -2.6888 -0.8683
12181TIP3   OH258033   0.667   1.304  14.232 -0.0767  0.6171 -0.3368
12181TIP3    H158034   0.656   1.306  14.136  0.4694 -1.2822 -0.4883
12181TIP3    H258035   0.739   1.243  14.246 -1.0741 -0.2530  1.3424
12182TIP3   OH258036   0.161   5.358  14.583  0.1324 -0.2516  0.1067
12182TIP3    H158037   0.088   5.341  14.523 -0.4418 -1.2570  1.0659
12182TIP3    H258038   0.238   5.361  14.526 -0.2164 -2.4799 -0.5884
12183TIP3   OH258039   5.970   0.679   2.769 -0.1085  0.3323  0.6856
12183TIP3    H158040   5.880   0.672   2.801  0.4060 -0.9118  1.9429
12183TIP3    H258041   5.999   0.588   2.760  0.6694  0.6971 -0.7978
12184TIP3   OH258042   2.286   0.916  13.273  0.0535  0.2643 -0.2678
12184TIP3    H158043   2.318   0.836  13.314  0.8056  0.7963  0.2015
12184TIP3    H258044   2.249   0.887  13.189  1.3898 -0.4225 -0.6335
12185TIP3   OH258045   1.004   3.058  11.278 -0.3796  0.2041 -0.0024
12185TIP3    H158046   0.986   3.025  11.190  2.1743  0.4057 -0.6632
12185TIP3    H258047   0.933   3.022  11.332 -1.0863 -1.2791 -1.8143
12186TIP3   OH258048   1.320   1.682  12.338 -0.5433 -0.5948  0.2520
12186TIP3    H158049   1.234   1.672  12.295 -1.3116  1.1957  1.2752
12186TIP3    H258050   1.341   1.593  12.367 -2.2244 -1.0403  0.2701
12187TIP3   OH258051   0.804   5.429   0.433  0.5863  0.0513 -1.0091
12187TIP3    H158052   0.809   5.493   0.503 -0.5965 -1.0391  0.1104
12187TIP3    H258053   0.850   5.470   0.359  1.9525  1.1788  0.4086
12188TIP3   OH258054   4.780   0.052   0.177 -0.1334 -0.0162 -0.6681
12188TIP3    H158055   4.838  -0.024   0.177  0.5285  0.4739 -0.2644
12188TIP3    H258056   4.701   0.022   0.222 -0.6195 -0.9860 -2.1058
12189TIP3   OH258057   6.180   0.395   4.172  0.3166  0.5208  0.1437
12189TIP3    H158058   6.273   0.414   4.163  0.5919 -1.1518 -0.9758
12189TIP3    H258059   6.135   0.465   4.124  1.0389  0.8782 -0.0101
12190TIP3   OH258060   6.216   1.787  12.305 -0.2245  0.4502 -0.4888
12190TIP3    H158061   6.219   1.810  12.212  1.1326  2.1667 -0.0693
12190TIP3    H258062   6.292   1.731  12.318 -0.6515 -0.1333 -0.4884
12191TIP3   OH258063   6.311   3.935  15.260  0.6998 -0.3541 -0.1421
12191TIP3    H158064   6.400   3.960  15.238  0.7319  0.9888  1.3283
12191TIP3    H258065   6.319   3.848  15.299  1.2456 -0.5681 -0.7165
12192TIP3   OH258066   5.481   4.457   2.682  0.2273 -0.0791 -0.1468
12192TIP3    H158067   5.511   4.422   2.765 -0.4563  2.2160  1.1387
12192TIP3    H258068   5.530   4.539   2.671 -1.6106  0.9998 -0.6527
12193TIP3   OH258069   0.073   2.211   3.875  0.1013  0.0626  0.5593
12193TIP3    H158070   0.072   2.300   3.909  1.0518 -0.5283  2.2900
12193TIP3    H258071   0.166   2.190   3.867 -0.0773 -0.0635 -1.9346
12194TIP3   OH258072   2.362   6.802   0.410  0.3681 -0.3662  0.1729
12194TIP3    H158073   2.393   6.821   0.498 -0.5827 -0.8386  0.6227
12194TIP3    H258074   2.413   6.860   0.353  0.4592  0.4802  1.1039
12195TIP3   OH258075   3.075   1.681   2.435 -0.1770  0.5101 -0.0608
12195TIP3    H158076   3.091   1.760   2.487 -1.0119  1.0251 -0.5783
12195TIP3    H258077   3.031   1.621   2.496 -0.9111  1.0110 -0.0884
12196TIP3   OH258078   0.378   1.514  12.884  0.1177  0.3890 -0.5554
12196TIP3    H158079   0.321   1.513  12.961 -0.2419  0.8410 -0.8101
12196TIP3    H258080   0.449   1.455  12.906 -0.9010 -0.8781 -0.5767
12197TIP3   OH258081   1.818   3.344  13.263 -0.9535  0.2670  0.1529
12197TIP3    H158082   1.891   3.400  13.236  1.7877 -3.0341  0.0545
12197TIP3    H258083   1.816   3.352  13.358 -1.8590  1.8589  0.0351
12198TIP3   OH258084   2.726   5.083   2.305  0.3469 -0.4172  0.3493
12198TIP3    H158085   2.755   5.089   2.214 -1.1292  0.1718 -0.1180
12198TIP3    H258086   2.723   4.989   2.323  1.3743 -0.5183  0.0533
12199TIP3   OH258087   6.372   3.941   6.304  0.1718  0.2073 -0.4276
12199TIP3    H158088   6.378   3.907   6.214 -1.0846 -0.9325 -0.1079
12199TIP3    H258089   6.281   3.969   6.313  0.6967  1.9189 -0.0263
12200TIP3   OH258090   3.039   4.498   5.132  0.4839  0.2570 -0.3804
12200TIP3    H158091   3.043   4.409   5.168 -0.2440  1.0667  1.8829
12200TIP3    H258092   3.129   4.531   5.139  0.1875  0.7356  1.7560
12201TIP3   OH258093   4.486   4.093  15.330  0.2184  0.1473 -0.5720
12201TIP3    H158094   4.506   3.999  15.335  1.8836  0.5186  0.8304
12201TIP3    H258095   4.391   4.097  15.325  0.1246 -1.6201 -0.9404
12202TIP3   OH258096   3.636   6.246   5.983 -0.1049 -0.5714 -0.7658
12202TIP3    H158097   3.645   6.321   5.924  0.0225 -1.1815 -1.5459
12202TIP3    H258098   3.546   6.217   5.971 -0.3813 -0.1131  0.0871
12203TIP3   OH258099   4.456   5.169   6.212  0.0741 -0.3707 -0.1224
12203TIP3    H158100   4.489   5.083   6.237  0.0182 -0.1476  0.7251
12203TIP3    H258101   4.444   5.215   6.294 -1.2573 -0.0384 -0.4892
12204TIP3   OH258102   0.217   5.847  13.851  0.2275 -0.1194 -0.1188
12204TIP3    H158103   0.183   5.758  13.858 -0.3978  0.2224  1.5624
12204TIP3    H258104   0.206   5.870  13.759 -1.7655 -0.9603 -0.1440
12205TIP3   OH258105   3.649   2.363  13.154  0.2394 -0.3615 -0.1562
12205TIP3    H158106   3.728   2.391  13.108  0.4715  2.1620  1.5883
12205TIP3    H258107   3.679   2.341  13.242 -0.9636  0.7349  0.5599
12206TIP3   OH258108   0.051   1.993   0.126  0.4460 -0.0219 -0.6071
12206TIP3    H158109   0.063   2.057   0.056 -1.1472  0.2084 -0.7008
12206TIP3    H258110   0.127   1.935   0.118  2.0599  1.9394 -0.3738
12207TIP3   OH258111   2.117   5.883   5.540 -0.5460  0.0366 -0.4489
12207TIP3    H158112   2.117   5.791   5.517 -1.7133  0.5198 -2.7089
12207TIP3    H258113   2.082   5.886   5.629  0.0289 -1.7073 -0.1370
12208TIP3   OH258114   6.558   4.719   2.302  0.1630 -0.5288 -0.6177
12208TIP3    H158115   6.516   4.789   2.250  1.6515 -0.1658 -1.3804
12208TIP3    H258116   6.501   4.710   2.378  0.0360  1.6931 -0.3616
12209TIP3   OH258117   4.995   0.269  16.335  0.2295  0.7543  0.1844
12209TIP3    H158118   5.044   0.212  16.394  0.4783 -0.5022 -1.1632
12209TIP3    H258119   4.906   0.234  16.337  0.3491  0.3852 -0.5331
12210TIP3   OH258120   1.844   4.126  12.268 -0.4838 -0.0761 -0.0632
12210TIP3    H158121   1.862   4.076  12.347 -0.1956 -0.7614 -0.5597
12210TIP3    H258122   1.820   4.213  12.300 -0.2149 -0.3022  0.7682
12211TIP3   OH258123   2.242   4.206   3.758 -0.0491  0.3875 -0.1488
12211TIP3    H158124   2.302   4.270   3.798 -0.1089 -0.3252  1.1231
12211TIP3    H258125   2.286   4.181   3.677  1.3163  0.0156  0.6644
12212TIP3   OH258126   3.568   4.302  13.509 -0.1992 -0.7698  0.1689
12212TIP3    H158127   3.494   4.343  13.464  0.1372  0.2162  0.5106
12212TIP3    H258128   3.564   4.334  13.599  0.7793 -0.5214  0.1389
12213TIP3   OH258129   3.390   0.880  12.669 -0.5322  0.4945 -0.0803
12213TIP3    H158130   3.328   0.950  12.690 -1.0645 -0.4102  1.5533
12213TIP3    H258131   3.453   0.920  12.609 -2.3897  1.5835 -1.3908
12214TIP3   OH258132   1.422   3.059  10.543 -0.0607 -0.1729  0.3717
12214TIP3    H158133   1.334   3.041  10.577 -0.1284 -0.0825  0.2451
12214TIP3    H258134   1.411   3.138  10.490  0.4255  0.8642  1.7620
12215TIP3   OH258135   3.020   1.889   4.199  0.2490 -0.7282 -0.6467
12215TIP3    H158136   3.094   1.830   4.189  1.9015  1.1694 -0.2608
12215TIP3    H258137   3.053   1.974   4.172 -0.9007  0.7547  2.1402
12216TIP3   OH258138   4.613   4.967   0.964  0.1759  0.1397 -0.0846
12216TIP3    H158139   4.608   4.898   1.031  0.3476  0.7769  0.5911
12216TIP3    H258140   4.674   4.932   0.898  0.8347 -0.0539  0.6177
12217TIP3   OH258141   5.157   1.124  11.936  0.0315  0.1168  0.5540
12217TIP3    H158142   5.157   1.178  12.015  0.9097  0.0297  0.6328
12217TIP3    H258143   5.232   1.066  11.947  0.3759  0.3362 -0.4923
12218TIP3   OH258144   3.800   3.630   0.797  0.4315  0.5138 -0.3680
12218TIP3    H158145   3.794   3.616   0.703 -2.2137  1.0834 -0.3522
12218TIP3    H258146   3.739   3.701   0.815 -1.7299 -1.7448  2.1542
12219TIP3   OH258147   0.017   4.041  10.401 -0.1176 -0.3600 -0.7041
12219TIP3    H158148  -0.003   4.109  10.337 -0.7060  0.8128  0.6750
12219TIP3    H258149   0.092   4.074  10.449  0.5549 -1.3990 -1.0064
12220TIP3   OH258150   2.909   5.090   6.432  0.1176  0.4463 -0.1438
12220TIP3    H158151   2.980   5.138   6.390 -0.1272  1.0499  0.1153
12220TIP3    H258152   2.830   5.118   6.386  0.1879 -1.5017 -1.5813
12221TIP3   OH258153   3.452   4.123   6.429 -0.1289 -0.7185  0.4354
12221TIP3    H158154   3.503   4.060   6.479 -1.1709  0.8863  3.7769
12221TIP3    H258155   3.385   4.070   6.385  1.1207 -2.2366  0.2776
12222TIP3   OH258156   1.735   1.380   6.168  0.4461  0.2089  0.1581
12222TIP3    H158157   1.756   1.313   6.233 -0.7878 -0.4848 -0.1234
12222TIP3    H258158   1.662   1.343   6.118  0.8336  1.0708 -1.0981
12223TIP3   OH258159   5.660   3.857   4.643 -0.3836 -0.0573  0.6821
12223TIP3    H158160   5.592   3.795   4.671  0.2582 -0.6477  0.9695
12223TIP3    H258161   5.643   3.936   4.694 -0.6201 -0.3347  1.0393
12224TIP3   OH258162   2.193   0.739   2.416  0.5829 -0.3064  0.4289
12224TIP3    H158163   2.145   0.656   2.411 -0.7706  0.4046  1.2011
12224TIP3    H258164   2.261   0.731   2.349 -0.5834 -1.3530 -0.6783
12225TIP3   OH258165   2.911   2.201  16.270 -0.0268  1.0602  0.5761
12225TIP3    H158166   2.864   2.216  16.188  2.3683  1.4217 -0.8258
12225TIP3    H258167   2.902   2.283  16.319 -1.3238  0.9065  0.6188
12226TIP3   OH258168   3.916   1.039  17.011  0.0803 -0.5979  0.5595
12226TIP3    H158169   3.953   1.127  17.000 -0.2150 -0.6208 -0.7491
12226TIP3    H258170   3.993   0.984  17.025  0.5368 -0.5231 -1.3619
12227TIP3   OH258171   5.361   3.287   4.010  0.2328  0.3185  0.2570
12227TIP3    H158172   5.272   3.295   4.043  0.6223  2.1103  1.0048
12227TIP3    H258173   5.392   3.203   4.043 -1.1844 -0.3433 -0.0617
12228TIP3   OH258174   2.556   3.256   0.399 -0.1949 -0.1074  0.1292
12228TIP3    H158175   2.488   3.237   0.334 -1.8205  0.9639  1.4648
12228TIP3    H258176   2.636   3.266   0.347 -1.2191 -0.4140 -1.5791
12229TIP3   OH258177   0.095   2.885  15.653 -0.0904  0.6282  0.0385
12229TIP3    H158178   0.104   2.966  15.703  0.4281  0.5623  0.0572
12229TIP3    H258179   0.178   2.839  15.667 -0.2292  0.2735 -0.2879
12230TIP3   OH258180   1.077   2.923   4.021 -0.2779  0.7137  0.2040
12230TIP3    H158181   0.998   2.891   4.063 -0.2353  0.2185 -0.0944
12230TIP3    H258182   1.145   2.917   4.089 -0.2365  0.0327  0.1050
12231TIP3   OH258183   3.289   2.937   3.479 -0.3845 -0.1198  0.0517
12231TIP3    H158184   3.270   2.878   3.552 -0.7748 -2.4242 -1.7903
12231TIP3    H258185   3.327   3.015   3.520 -0.5531 -1.3267  2.6748
12232TIP3   OH258186   5.989   1.193   4.474 -0.0252 -0.5445 -0.3369
12232TIP3    H158187   5.986   1.143   4.556  0.7827 -0.1045 -0.0320
12232TIP3    H258188   5.994   1.284   4.501  2.0499 -0.4675 -0.8201
12233TIP3   OH258189   2.166   5.423   2.296  0.0042  0.1596 -0.2107
12233TIP3    H158190   2.261   5.431   2.293  0.2522 -2.1624 -0.3143
12233TIP3    H258191   2.134   5.489   2.235  1.5513  0.8564 -0.3054
12234TIP3   OH258192   1.109   5.872   4.301  0.2930  0.4975 -0.3458
12234TIP3    H158193   1.023   5.830   4.311  1.0346 -0.6905  1.8806
12234TIP3    H258194   1.098   5.958   4.340  0.3363 -0.0481  0.9288
12235TIP3   OH258195   0.921   5.305  12.801 -0.1232 -0.6506 -0.0098
12235TIP3    H158196   0.973   5.229  12.775  0.1659 -1.0884  1.7129
12235TIP3    H258197   0.913   5.297  12.896 -0.5624  1.1790  0.1493
12236TIP3   OH258198   5.086   0.713   4.793 -0.1904 -0.7906 -0.0238
12236TIP3    H158199   5.038   0.789   4.825  0.9972  0.6944 -1.5611
12236TIP3    H258200   5.074   0.716   4.698  1.3639 -1.4547 -0.2713
12237TIP3   OH258201   0.358   4.919  11.125 -0.0952  0.0657 -0.1806
12237TIP3    H158202   0.286   4.938  11.065  0.2206  0.0994 -0.5576
12237TIP3    H258203   0.331   4.840  11.171 -0.0973 -0.2874 -0.7748
12238TIP3   OH258204   0.458   4.943  10.341  0.1920 -0.0109  0.2780
12238TIP3    H158205   0.514   4.988  10.404  0.9926 -2.5033  1.4629
12238TIP3    H258206   0.516   4.924  10.267  0.4978 -1.0001  0.7442
12239TIP3   OH258207   2.225   3.765  11.900  0.0742  0.1529 -0.9067
12239TIP3    H158208   2.253   3.843  11.852  3.2049 -1.0368 -1.2248
12239TIP3    H258209   2.287   3.697  11.875 -2.8452 -2.6814 -1.0518
12240TIP3   OH258210   6.059   5.472  14.132 -0.1666  0.7086 -0.3945
12240TIP3    H158211   6.059   5.552  14.185 -0.0827 -0.8118  2.0040
12240TIP3    H258212   5.976   5.429  14.152 -2.2129  1.9656 -4.7598
12241TIP3   OH258213   5.618   3.353  15.407  0.2179  0.2768  0.2814
12241TIP3    H158214   5.660   3.280  15.360  1.5719  1.5589 -0.5754
12241TIP3    H258215   5.524   3.332  15.403  0.5084 -1.0229 -0.6193
12242TIP3   OH258216   5.294   1.763  12.888  0.5181  0.2203  0.1441
12242TIP3    H158217   5.382   1.771  12.851  0.8766 -2.1787  0.3227
12242TIP3    H258218   5.308   1.752  12.982 -0.0366  0.5507  0.2698
12243TIP3   OH258219   6.076   0.173  12.262 -0.4784  0.2354 -0.5274
12243TIP3    H158220   6.085   0.212  12.175 -0.4952 -1.5661 -1.3925
12243TIP3    H258221   5.986   0.193  12.288  0.4810  3.6712  0.6249
12244TIP3   OH258222   3.047   2.912   5.155 -0.5258 -0.0331 -0.1977
12244TIP3    H158223   3.064   2.995   5.200 -1.1133 -0.8876  1.6970
12244TIP3    H258224   3.000   2.938   5.075  1.1249  1.5897 -0.7166
12245TIP3   OH258225   0.320   5.754   4.073 -0.8829  0.0203  0.6343
12245TIP3    H158226   0.356   5.833   4.113 -2.1093  0.2530  1.3426
12245TIP3    H258227   0.254   5.724   4.135 -2.8381  0.3713 -1.1509
12246TIP3   OH258228   5.702   2.254  14.836  0.0931 -0.5623  0.6322
12246TIP3    H158229   5.736   2.193  14.901  0.6766 -2.1521 -1.0814
12246TIP3    H258230   5.775   2.267  14.775 -0.8070 -0.1104 -0.3784
12247TIP3   OH258231   0.657   6.705   0.347  0.2896  0.3662 -0.8531
12247TIP3    H158232   0.708   6.750   0.414 -0.9381  1.4717 -0.6072
12247TIP3    H258233   0.620   6.776   0.294 -2.4778 -0.2402  0.0993
12248TIP3   OH258234   3.130   4.545   1.202 -0.6233  0.1879 -0.1962
12248TIP3    H158235   3.197   4.558   1.270  1.1743 -1.3384 -1.5518
12248TIP3    H258236   3.165   4.589   1.125 -0.5159 -1.7275 -1.2882
12249TIP3   OH258237   6.256   6.665  13.345  0.2999  0.4577  0.0904
12249TIP3    H158238   6.330   6.606  13.359 -1.3539 -1.5658  0.8553
12249TIP3    H258239   6.190   6.636  13.409 -0.6439  3.1213  0.4496
12250TIP3   OH258240   2.442   0.880   4.445 -0.3423 -0.4835  0.5248
12250TIP3    H158241   2.509   0.815   4.464  0.0275 -0.1313  0.4260
12250TIP3    H258242   2.384   0.878   4.521  1.5915  1.5210  2.1438
12251TIP3   OH258243   4.761   3.602   3.095  0.1883  0.1240 -0.1195
12251TIP3    H158244   4.700   3.596   3.168 -3.0498  0.2258 -2.6305
12251TIP3    H258245   4.799   3.690   3.103 -0.3275  0.2441  1.2382
12252TIP3   OH258246   3.121   0.234  16.392 -0.7995  0.0809  0.3278
12252TIP3    H158247   3.145   0.327  16.400 -1.5714  0.4478 -1.2848
12252TIP3    H258248   3.027   0.235  16.376 -0.8583 -1.0096  0.5690
12253TIP3   OH258249   4.282   2.336  11.973  0.5147  0.2858 -0.4166
12253TIP3    H158250   4.361   2.390  11.972  0.6202  0.1695 -2.9029
12253TIP3    H258251   4.314   2.247  11.957 -0.0310  0.0608 -0.2573
12254TIP3   OH258252   0.960   4.904  12.903 -0.6822  0.1755  0.4799
12254TIP3    H158253   0.961   4.992  12.864  1.1288  0.1043  0.3026
12254TIP3    H258254   0.930   4.847  12.832  1.2911  0.2321 -0.4497
12255TIP3   OH258255   4.927   5.548  13.818  0.0374 -0.0135 -0.2295
12255TIP3    H158256   5.023   5.555  13.821 -0.1147  2.8528  0.7150
12255TIP3    H258257   4.907   5.473  13.874  1.7014 -0.9935 -0.8377
12256TIP3   OH258258   3.096   0.497  16.901 -0.1053  0.1018  0.7197
12256TIP3    H158259   3.124   0.571  16.847  0.5943 -1.9232 -1.8587
12256TIP3    H258260   3.002   0.488  16.884 -0.0142 -0.1338  0.3315
12257TIP3   OH258261   1.328   1.691  10.634  0.5665  0.5178  0.1120
12257TIP3    H158262   1.251   1.738  10.601 -1.6866 -2.5414  0.5548
12257TIP3    H258263   1.327   1.707  10.728  0.7066  0.7904  0.0674
12258TIP3   OH258264   5.507   4.211  13.581  0.0003  0.4424  0.0019
12258TIP3    H158265   5.601   4.209  13.603 -0.1889  1.2466  0.9930
12258TIP3    H258266   5.504   4.237  13.489  0.7487  0.7729  0.0616
12259TIP3   OH258267   2.354   0.942   6.050  0.0296  0.4921  0.5913
12259TIP3    H158268   2.436   0.986   6.072  0.6370 -0.3298 -0.0044
12259TIP3    H258269   2.369   0.850   6.070 -0.1911  0.0788 -0.9785
12260TIP3   OH258270   3.012   3.994   5.197  0.3093 -0.7934 -0.0825
12260TIP3    H158271   2.930   4.027   5.159 -0.2589 -0.5778  1.2949
12260TIP3    H258272   3.075   4.065   5.184 -0.3921  0.0738  1.0870
12261TIP3   OH258273   3.088   5.109  14.839  0.3288  0.1539  0.4605
12261TIP3    H158274   3.003   5.151  14.825 -1.0715 -1.8618  2.2223
12261TIP3    H258275   3.112   5.133  14.929  0.3520 -1.3171  0.8751
12262TIP3   OH258276   0.219   3.720   4.548  0.4773 -0.4325  0.0593
12262TIP3    H158277   0.241   3.627   4.540  0.3592 -0.3948 -0.8485
12262TIP3    H258278   0.246   3.757   4.464 -0.6144  0.1204 -0.0538
12263TIP3   OH258279   4.422   4.727  13.138  0.0153 -0.4540 -0.5509
12263TIP3    H158280   4.476   4.651  13.115 -0.2136 -0.6840 -0.3436
12263TIP3    H258281   4.471   4.802  13.105  0.4457 -0.6621 -0.3999
12264TIP3   OH258282   3.723   1.699  14.152 -0.7910 -0.0088 -0.1481
12264TIP3    H158283   3.760   1.666  14.070 -2.6940 -0.2751 -0.9446
12264TIP3    H258284   3.637   1.658  14.158 -1.8342  2.1210  0.5722
12265TIP3   OH258285   6.821   6.509   5.524 -0.0579 -0.4138  0.1961
12265TIP3    H158286   6.793   6.600   5.539  0.4509  0.0273 -1.3156
12265TIP3    H258287   6.766   6.457   5.582 -1.1082  0.7737  0.3141
12266TIP3   OH258288   2.229   1.683  16.144 -0.1737 -1.0872  0.0556
12266TIP3    H158289   2.239   1.687  16.239 -1.7675  0.1822  0.2085
12266TIP3    H258290   2.319   1.670  16.112  0.6234  0.0265  1.6621
12267TIP3   OH258291   0.195   6.270   3.820  0.0699 -0.1549  0.5956
12267TIP3    H158292   0.254   6.196   3.834  0.1606  0.0517  1.3376
12267TIP3    H258293   0.133   6.265   3.893  0.7112  1.1046  1.2605
12268TIP3   OH258294   5.492   6.359   2.166 -0.3111  0.5839  0.2472
12268TIP3    H158295   5.526   6.375   2.078 -0.9398  2.3857  0.2708
12268TIP3    H258296   5.437   6.281   2.157 -0.8304  1.0668 -1.1073
12269TIP3   OH258297   4.258   1.872   0.203  0.5180 -0.3536 -0.0903
12269TIP3    H158298   4.255   1.792   0.256 -0.6843  0.9354  1.9241
12269TIP3    H258299   4.255   1.943   0.267  1.9197  1.3481 -1.7990
12270TIP3   OH258300   0.821   1.906   0.802 -0.6849  0.4345 -0.2354
12270TIP3    H158301   0.771   1.929   0.723 -0.7632  0.2790 -0.2330
12270TIP3    H258302   0.754   1.887   0.868 -0.6156  1.0067  0.0007
12271TIP3   OH258303   3.192   1.493   4.417 -0.2632 -0.2598  0.6193
12271TIP3    H158304   3.264   1.550   4.443 -0.8043  1.1089 -0.7298
12271TIP3    H258305   3.117   1.552   4.406 -1.0854 -1.3670  0.0621
12272TIP3   OH258306   3.576   6.390  12.327  0.4183  0.5518 -0.1060
12272TIP3    H158307   3.529   6.425  12.251  0.2960 -0.1776 -0.3758
12272TIP3    H258308   3.665   6.423  12.317  0.5200  0.0809 -0.8306
12273TIP3   OH258309   2.219   6.352  11.929  0.5659 -0.1828 -0.8402
12273TIP3    H158310   2.225   6.427  11.870 -0.2369  0.4277 -0.1531
12273TIP3    H258311   2.306   6.312  11.925  1.2243  1.1937 -0.6667
12274TIP3   OH258312   4.607   6.480   3.622  0.0438 -0.4469 -0.6514
12274TIP3    H158313   4.639   6.402   3.668  3.4120  0.3272 -1.4074
12274TIP3    H258314   4.622   6.552   3.683 -3.2117 -0.2692  0.1088
12275TIP3   OH258315   4.708   3.190  17.093 -0.0814  0.2466 -0.2792
12275TIP3    H158316   4.631   3.134  17.096 -0.2827  0.5517  0.4432
12275TIP3    H258317   4.718   3.223  17.182  1.0094  0.0473 -0.3069
12276TIP3   OH258318   0.570   4.110   0.608  0.0307  0.1747 -0.3696
12276TIP3    H158319   0.495   4.092   0.665  1.3130  2.0238  2.0984
12276TIP3    H258320   0.545   4.074   0.523 -3.6944  0.8369  0.2811
12277TIP3   OH258321   0.849   5.207   3.985  0.0932 -0.4105  0.0685
12277TIP3    H158322   0.834   5.138   4.050 -0.6150 -0.9336 -0.6302
12277TIP3    H258323   0.779   5.194   3.920 -1.1155  2.0314  0.7933
12278TIP3   OH258324   2.648   5.045  16.679 -0.3691  0.0169  0.2915
12278TIP3    H158325   2.560   5.016  16.655 -0.5611  0.2725  0.6950
12278TIP3    H258326   2.686   4.970  16.725  0.7372 -1.2920 -2.4784
12279TIP3   OH258327   2.124   2.959   1.451  0.0663 -0.2423 -0.3610
12279TIP3    H158328   2.136   2.948   1.545  1.7607 -0.1459 -0.5240
12279TIP3    H258329   2.049   2.904   1.429 -0.1035 -0.5714  0.9858
12280TIP3   OH258330   3.454   6.333  13.873 -0.5699 -0.4181 -0.3224
12280TIP3    H158331   3.416   6.325  13.786 -1.0779  0.7449 -0.2259
12280TIP3    H258332   3.417   6.260  13.922  1.0241 -2.1193 -1.4993
12281TIP3   OH258333   0.780   3.256  11.122 -0.2244 -0.1513 -0.8527
12281TIP3    H158334   0.852   3.216  11.074 -1.0498 -0.1855 -2.1178
12281TIP3    H258335   0.725   3.182  11.148  0.0615 -0.1065 -0.1179
12282TIP3   OH258336   0.665   2.778  10.701 -0.0582 -0.2620  0.1032
12282TIP3    H158337   0.759   2.758  10.690  0.0198  0.4284 -0.5396
12282TIP3    H258338   0.621   2.695  10.682  0.3895 -0.4339 -0.2009
12283TIP3   OH258339   2.285   5.674   5.544  0.0046 -0.2515  0.1354
12283TIP3    H158340   2.280   5.621   5.623 -0.0956  0.0148  0.3094
12283TIP3    H258341   2.325   5.616   5.479 -0.9607 -0.8520  0.0613
12284TIP3   OH258342   5.361   3.835  16.445 -0.2250 -0.0367 -0.5139
12284TIP3    H158343   5.393   3.923  16.463 -1.4124 -0.0479  2.0701
12284TIP3    H258344   5.281   3.848  16.394  0.0134  0.3253 -0.8012
12285TIP3   OH258345   3.298   5.038  10.966 -0.3515 -0.0605  0.0009
12285TIP3    H158346   3.234   4.997  10.908 -0.1070 -2.2246  1.1786
12285TIP3    H258347   3.382   5.003  10.937 -0.0657  0.1087  0.6185
12286TIP3   OH258348   2.483   3.310   5.524  0.2248  0.0225  0.7159
12286TIP3    H158349   2.456   3.247   5.457  0.2035  1.6859 -0.9364
12286TIP3    H258350   2.454   3.272   5.607 -0.6651 -1.6439 -0.3121
12287TIP3   OH258351   5.837   4.715   0.691  0.3127  0.1384 -0.2640
12287TIP3    H158352   5.918   4.717   0.740  0.6239 -0.3154 -0.7397
12287TIP3    H258353   5.834   4.627   0.653 -1.8181 -0.9112  2.0871
12288TIP3   OH258354   4.660   6.019  11.779  0.1403  0.2815 -0.1310
12288TIP3    H158355   4.627   6.085  11.719  0.6249  0.9170  0.2784
12288TIP3    H258356   4.610   5.940  11.759 -0.5268  0.8032 -0.5494
12289TIP3   OH258357   1.427   1.579   0.615  0.1037 -0.0186 -0.4645
12289TIP3    H158358   1.427   1.671   0.588  1.5834  0.8426  2.1302
12289TIP3    H258359   1.367   1.576   0.690 -0.3408 -1.3091 -0.8457
12290TIP3   OH258360   3.980   1.355   0.924 -0.2253  0.0249  0.1256
12290TIP3    H158361   4.043   1.424   0.944  0.2805 -0.1393 -0.8559
12290TIP3    H258362   4.008   1.280   0.978  1.4116 -0.5687 -1.4439
12291TIP3   OH258363   1.397   6.370   1.595  0.3774  0.0694 -0.0970
12291TIP3    H158364   1.321   6.323   1.631 -0.6536  0.5015 -1.5978
12291TIP3    H258365   1.429   6.424   1.668  0.4420 -1.5433  1.1073
12292TIP3   OH258366   3.760   0.892  16.059 -0.2729 -0.3981  0.5632
12292TIP3    H158367   3.790   0.974  16.020 -0.3631 -0.3008  0.6949
12292TIP3    H258368   3.688   0.918  16.117 -0.0820 -0.5261  0.8640
12293TIP3   OH258369   5.227   6.218   0.027 -0.6415 -0.1487  0.5365
12293TIP3    H158370   5.212   6.313   0.034 -0.5474 -0.0934 -0.0095
12293TIP3    H258371   5.139   6.181   0.021 -0.6456  0.0589 -1.1450
12294TIP3   OH258372   6.719   3.072   5.252 -0.0333  0.0690  0.0143
12294TIP3    H158373   6.650   3.016   5.286 -0.2655  0.4769  0.2305
12294TIP3    H258374   6.737   3.133   5.323  0.1791  0.2976 -0.2335
12295TIP3   OH258375   3.346   3.789   2.226  0.5765  0.2039  0.0898
12295TIP3    H158376   3.258   3.817   2.248 -0.4484 -2.3707 -0.4030
12295TIP3    H258377   3.351   3.797   2.130 -0.3605 -2.5816 -0.2983
12296TIP3   OH258378   2.695   0.068   2.985  0.0890  0.2065 -0.0178
12296TIP3    H158379   2.699   0.002   2.916  0.6334 -0.4363  0.6172
12296TIP3    H258380   2.771   0.124   2.969  0.3293 -0.0627  0.1793
12297TIP3   OH258381   3.509   3.757  14.542 -0.1577  0.4826  0.1435
12297TIP3    H158382   3.581   3.731  14.598 -1.1613 -2.1087  0.3297
12297TIP3    H258383   3.483   3.843  14.575  1.6878  0.6914  1.1750
12298TIP3   OH258384   3.795   3.676   2.275 -0.5274  0.0400  0.4792
12298TIP3    H158385   3.836   3.666   2.189 -0.3472  1.5796  0.3574
12298TIP3    H258386   3.861   3.644   2.336 -0.1773  0.0396  0.1073
12299TIP3   OH258387   0.021   5.988   3.108  0.3711  0.9168 -0.2500
12299TIP3    H158388   0.001   6.064   3.162 -0.4548  0.3904  0.2017
12299TIP3    H258389   0.095   6.016   3.054  0.6810  1.7243  0.5674
12300TIP3   OH258390   5.398   2.077  11.792  0.0656 -0.4240  0.3876
12300TIP3    H158391   5.447   2.124  11.726  1.4458 -2.5968 -0.2161
12300TIP3    H258392   5.447   2.090  11.873 -0.5262  0.5803  0.5995
12301TIP3   OH258393   5.291   5.519   0.833  0.6915 -0.6676 -0.2696
12301TIP3    H158394   5.284   5.606   0.793 -3.9614 -0.4242  0.6142
12301TIP3    H258395   5.296   5.536   0.927 -0.0645 -1.3323 -0.0979
12302TIP3   OH258396   5.628   0.892  15.550 -0.5039 -0.6806 -0.1580
12302TIP3    H158397   5.581   0.831  15.607  0.7941  0.3366  2.1515
12302TIP3    H258398   5.705   0.843  15.521  0.4791 -0.2631  1.6034
12303TIP3   OH258399   3.795   5.222   5.392 -0.3167  0.2937  0.2186
12303TIP3    H158400   3.773   5.221   5.485  0.7504  3.0469  0.6121
12303TIP3    H258401   3.876   5.172   5.385  0.9561  2.0932  1.2749
12304TIP3   OH258402   1.804   3.558  16.392 -0.1681 -0.3717  0.3601
12304TIP3    H158403   1.738   3.539  16.458 -0.0787 -0.3211  0.4643
12304TIP3    H258404   1.825   3.650  16.405 -0.6445 -0.1760 -0.1858
12305TIP3   OH258405   2.447   3.561   1.766 -0.0367 -0.5605 -0.2319
12305TIP3    H158406   2.439   3.646   1.723  0.4392 -0.0740  0.6297
12305TIP3    H258407   2.431   3.578   1.858  3.4176 -0.7261  0.5426
12306TIP3   OH258408   5.034   3.499   5.529 -0.7059  0.0512  0.2398
12306TIP3    H158409   4.960   3.482   5.586 -1.5912  0.2632 -0.8087
12306TIP3    H258410   5.064   3.586   5.554 -2.0795  0.8117 -0.6247
12307TIP3   OH258411   2.615   6.141   2.110  0.3673 -0.3040  0.1914
12307TIP3    H158412   2.595   6.195   2.187 -0.2269 -0.1769 -0.0478
12307TIP3    H258413   2.549   6.166   2.045  0.8854 -0.3813 -0.3782
12308TIP3   OH258414   5.825   4.675   0.403  0.0902 -0.1123 -0.9834
12308TIP3    H158415   5.765   4.601   0.400  0.6181 -0.6125  0.2398
12308TIP3    H258416   5.911   4.636   0.420  0.6753  0.6463 -2.0360
12309TIP3   OH258417   5.998   5.375   6.287 -0.5585 -0.4121  0.4161
12309TIP3    H158418   6.055   5.330   6.350 -1.4053 -0.1518  1.4104
12309TIP3    H258419   5.932   5.417   6.342 -0.2379  1.4208 -0.5461
12310TIP3   OH258420   0.961   3.776  12.535  0.4555 -0.2447  0.0247
12310TIP3    H158421   0.978   3.837  12.464  0.6975  0.3125  0.5506
12310TIP3    H258422   0.895   3.819  12.589 -0.9454 -1.3638 -0.7271
12311TIP3   OH258423   3.956   0.989  15.102  0.1268 -0.3683 -0.5149
12311TIP3    H158424   3.910   0.918  15.057  0.7295  0.4294 -2.5186
12311TIP3    H258425   3.931   1.068  15.053 -0.5421  0.8516  1.6533
12312TIP3   OH258426   3.917   0.543  14.511 -0.1257 -0.6270  0.3905
12312TIP3    H158427   3.863   0.468  14.538  1.4897 -2.2041 -0.5319
12312TIP3    H258428   4.007   0.513  14.523  0.5987  0.4722 -1.7679
12313TIP3   OH258429   3.552   6.110  12.204  0.4697 -0.2806 -0.7184
12313TIP3    H158430   3.458   6.113  12.187  0.2694  1.6903  0.4932
12313TIP3    H258431   3.582   6.200  12.195  1.8513 -0.5151  0.9740
12314TIP3   OH258432   2.451   5.202  14.744 -0.4735 -0.0297  0.0402
12314TIP3    H158433   2.432   5.133  14.808  0.7572 -1.0493 -0.6432
12314TIP3    H258434   2.501   5.267  14.794  0.4685 -0.8082  0.1542
12315TIP3   OH258435   3.203   5.266  13.510 -0.2127  0.5189  0.3466
12315TIP3    H158436   3.143   5.332  13.545 -0.3644  0.2170  0.6478
12315TIP3    H258437   3.194   5.274  13.415 -0.3772  0.7982  0.3852
12316TIP3   OH258438   3.845   3.247   1.380 -0.0201  0.0631 -0.1238
12316TIP3    H158439   3.865   3.153   1.386  0.6085  0.1415 -0.8774
12316TIP3    H258440   3.890   3.276   1.301 -0.9644  0.8174 -0.3960
12317TIP3   OH258441   1.990   4.022   2.928 -0.1414  0.2697 -0.2092
12317TIP3    H158442   2.038   4.031   3.011  0.0345 -0.1893 -0.2545
12317TIP3    H258443   1.904   3.989   2.955  0.2790 -0.9372 -0.2810
12318TIP3   OH258444   6.414   1.968   2.742  0.1059  0.1833  0.1827
12318TIP3    H158445   6.479   1.974   2.812 -0.4850  0.5273  0.7127
12318TIP3    H258446   6.463   1.934   2.667  0.9903  0.8097  0.4492
12319TIP3   OH258447   5.063   3.772  11.333  0.3575 -0.0723 -0.5548
12319TIP3    H158448   4.977   3.807  11.359  0.7342  0.2022  0.3497
12319TIP3    H258449   5.070   3.688  11.378  0.0828 -0.6559 -1.5614
12320TIP3   OH258450   2.312   3.845   1.275 -0.1261 -0.8431 -0.4716
12320TIP3    H158451   2.247   3.901   1.317 -0.5666  0.3499 -2.6188
12320TIP3    H258452   2.261   3.772   1.238  0.2126 -1.6996  0.6955
12321TIP3   OH258453   1.749   4.310  15.172 -0.1673  0.0012  0.5621
12321TIP3    H158454   1.664   4.265  15.164 -1.4493  2.1719  1.0973
12321TIP3    H258455   1.770   4.306  15.265 -0.9782  1.5648  0.8536
12322TIP3   OH258456   0.864   2.492  13.390  0.9571 -0.0255  0.1281
12322TIP3    H158457   0.907   2.442  13.459  3.0623  0.4209 -0.7683
12322TIP3    H258458   0.796   2.434  13.357 -0.3408 -0.1056  2.7600
12323TIP3   OH258459   0.914   3.497   3.685 -0.1900 -0.4203 -0.9668
12323TIP3    H158460   0.894   3.585   3.718  2.5129 -0.1057  0.1084
12323TIP3    H258461   0.910   3.506   3.590  2.2365  1.5617 -0.9941
12324TIP3   OH258462   5.340   1.099  14.559  0.1228 -0.4319 -0.1921
12324TIP3    H158463   5.413   1.160  14.545 -0.5622  0.9165  1.6898
12324TIP3    H258464   5.381   1.021  14.597  0.5832  0.4783  1.2638
12325TIP3   OH258465   2.866   6.336  14.309 -0.8899  0.3009  0.5102
12325TIP3    H158466   2.834   6.425  14.317  0.3196  0.6618  1.8725
12325TIP3    H258467   2.929   6.339  14.237 -0.0007  0.8536  1.2809
12326TIP3   OH258468   4.412   2.835  10.811  0.5708  0.6015  0.2057
12326TIP3    H158469   4.392   2.902  10.746  0.4389  0.8347  0.4845
12326TIP3    H258470   4.433   2.757  10.759  2.8200  1.4110 -0.1972
12327TIP3   OH258471   6.265   4.663   3.425  0.0531  0.5698 -0.0844
12327TIP3    H158472   6.348   4.634   3.461 -0.2931  1.0749  1.1838
12327TIP3    H258473   6.284   4.683   3.333  1.1331 -0.0681 -0.0155
12328TIP3   OH258474   4.501   0.519   3.047  0.1058  0.3568 -0.0659
12328TIP3    H158475   4.532   0.518   3.138  0.2578 -0.9835 -0.1160
12328TIP3    H258476   4.406   0.527   3.055  0.1901  1.3850  0.1594
12329TIP3   OH258477   1.878   4.665   0.828  0.0665 -0.1569  0.1405
12329TIP3    H158478   1.807   4.718   0.791  1.2119  0.4779 -1.2374
12329TIP3    H258479   1.934   4.728   0.873  1.5254 -0.1052 -1.6446
12330TIP3   OH258480   1.907   3.211  12.536  0.3676 -0.6435  0.2770
12330TIP3    H158481   1.842   3.216  12.465  0.0357 -0.6913  0.5752
12330TIP3    H258482   1.950   3.297  12.535 -1.0628  0.1353  1.3562
12331TIP3   OH258483   1.227   2.151  12.720  0.0176 -0.2292  0.2984
12331TIP3    H158484   1.189   2.098  12.650  0.5447  0.8881 -0.8651
12331TIP3    H258485   1.309   2.107  12.741  0.0356 -0.3693 -0.0489
12332TIP3   OH258486   3.301   1.098   4.779 -0.2507  0.2319 -0.0936
12332TIP3    H158487   3.245   1.043   4.723  0.5319 -0.7311  0.0341
12332TIP3    H258488   3.389   1.084   4.745  0.1595  0.1293  0.9848
12333TIP3   OH258489   0.922   0.028  15.512  0.2481 -0.9207  0.1262
12333TIP3    H158490   0.892  -0.005  15.597  1.2303 -0.8675  0.5010
12333TIP3    H258491   1.000  -0.024  15.492  1.5592  0.8125  0.5184
12334TIP3   OH258492   6.139   2.019   0.476 -0.2199  0.6158 -0.1194
12334TIP3    H158493   6.045   2.015   0.487 -0.0096 -2.7348  1.5674
12334TIP3    H258494   6.156   1.975   0.393 -0.1164  1.1161 -0.3672
12335TIP3   OH258495   6.106   2.976   5.749 -0.5173  0.0825 -0.3340
12335TIP3    H158496   6.135   3.024   5.827  1.1378 -0.2680 -0.6939
12335TIP3    H258497   6.011   2.977   5.755 -0.5036  1.9592  0.5456
12336TIP3   OH258498   4.261   5.845   1.505  0.2127  0.2086 -0.3998
12336TIP3    H158499   4.255   5.772   1.444  1.5042  0.4547 -0.8602
12336TIP3    H258500   4.354   5.848   1.528 -0.5074 -1.5286  3.6159
12337TIP3   OH258501   3.915   1.873  14.711 -0.1555  0.4629 -0.2080
12337TIP3    H158502   3.960   1.922  14.781  0.4639 -0.3434 -0.0160
12337TIP3    H258503   3.836   1.839  14.753 -1.7483  3.0931 -0.9345
12338TIP3   OH258504   1.570   3.050   4.131  0.0257  0.0262 -0.7276
12338TIP3    H158505   1.480   3.079   4.146  0.6263  1.0180  1.3261
12338TIP3    H258506   1.566   2.955   4.139 -0.8600  0.0442 -0.8370
12339TIP3   OH258507   5.808   2.902  14.853  0.1496 -0.1379 -0.1729
12339TIP3    H158508   5.726   2.871  14.893  1.3966 -1.8581  1.2236
12339TIP3    H258509   5.846   2.959  14.920  0.0570  0.7761 -0.8797
12340TIP3   OH258510   3.145   3.005   0.401  0.3996  0.1305  0.4029
12340TIP3    H158511   3.231   3.012   0.444  0.0495 -1.6169  1.4952
12340TIP3    H258512   3.083   3.041   0.464  0.1648 -0.0265  0.2647
12341TIP3   OH258513   6.171   3.607  11.648  0.4653 -0.5417  0.9395
12341TIP3    H158514   6.093   3.660  11.661  0.1560 -0.1687 -1.8131
12341TIP3    H258515   6.214   3.605  11.734  0.9100  4.7464  1.1348
12342TIP3   OH258516   3.664   2.824   3.278  0.4789 -0.4700 -0.2173
12342TIP3    H158517   3.758   2.821   3.293  0.5675 -2.9678 -0.8187
12342TIP3    H258518   3.625   2.815   3.365  0.7835 -0.1556 -0.0457
12343TIP3   OH258519   6.228   6.328  12.289  0.3178 -0.3263 -0.2262
12343TIP3    H158520   6.141   6.290  12.299  0.1323  0.0023 -0.5737
12343TIP3    H258521   6.217   6.396  12.223  0.6651  0.2719  0.3206
12344TIP3   OH258522   5.480   3.168   1.124  0.0256  0.2411  0.7358
12344TIP3    H158523   5.424   3.091   1.135  0.6282 -0.5004 -1.0861
12344TIP3    H258524   5.528   3.175   1.206  0.4932 -1.7697  0.6599
12345TIP3   OH258525   2.729   4.096   5.196  0.0805  0.7483  0.2145
12345TIP3    H158526   2.774   4.171   5.234  1.4598 -0.6288  1.4332
12345TIP3    H258527   2.701   4.043   5.271 -0.1414 -0.3582 -0.6115
12346TIP3   OH258528   2.416   3.286  10.841  0.1497  0.4837 -0.2430
12346TIP3    H158529   2.417   3.373  10.802  0.1870  1.0044  0.8846
12346TIP3    H258530   2.420   3.226  10.766 -0.0917  1.4384 -1.0393
12347TIP3   OH258531   4.719   0.169  14.866  0.3070 -0.2386 -0.2975
12347TIP3    H158532   4.709   0.263  14.856  1.0595 -0.2279 -1.0688
12347TIP3    H258533   4.646   0.142  14.921 -1.5391  0.3712 -2.3268
12348TIP3   OH258534   5.659   0.572  14.569  0.3779 -0.3431 -0.6252
12348TIP3    H158535   5.593   0.542  14.507  0.1138 -2.2151  0.4596
12348TIP3    H258536   5.706   0.492  14.594  2.8446  0.8589 -1.0845
12349TIP3   OH258537   2.499   4.420  15.422 -0.3958 -0.6580  0.5967
12349TIP3    H158538   2.463   4.334  15.446  0.5741 -1.5861 -1.0640
12349TIP3    H258539   2.588   4.401  15.393 -0.5120  0.7375 -0.8130
12350TIP3   OH258540   6.167   3.793  11.441 -0.2408  0.0580  0.1015
12350TIP3    H158541   6.242   3.827  11.489 -0.2936 -0.9995  0.9944
12350TIP3    H258542   6.157   3.703  11.474 -2.3088  0.4026  0.5285
12351TIP3   OH258543   5.878   0.906  13.631  0.3752  0.2364  0.3118
12351TIP3    H158544   5.888   0.962  13.708 -0.2154 -0.3914  0.8661
12351TIP3    H258545   5.784   0.890  13.625  0.4116  0.3164 -0.5760
12352TIP3   OH258546   5.214   0.626  12.862  0.2854  0.5796 -0.5517
12352TIP3    H158547   5.119   0.618  12.865  0.3174  0.4822  0.4925
12352TIP3    H258548   5.232   0.715  12.893  0.4764  1.2050 -2.2955
12353TIP3   OH258549   3.121   2.080   3.987 -0.3668  0.1340 -0.1222
12353TIP3    H158550   3.038   2.110   3.948 -0.2246 -0.1226 -0.6345
12353TIP3    H258551   3.185   2.146   3.960  0.0244 -0.7912 -1.5767
12354TIP3   OH258552   0.909   4.153  16.126 -0.2236 -0.0453 -0.5004
12354TIP3    H158553   0.976   4.090  16.099  2.4130  2.5248 -0.5201
12354TIP3    H258554   0.944   4.191  16.207 -1.2544  1.9717 -0.9436
12355TIP3   OH258555   5.582   1.165   4.736 -0.2434 -0.1412  0.0082
12355TIP3    H158556   5.632   1.121   4.667 -0.9027 -1.1385  0.1392
12355TIP3    H258557   5.621   1.135   4.818  0.0043  0.3831  0.0822
12356TIP3   OH258558   0.092   1.482  15.510  0.3811 -0.3241  0.3184
12356TIP3    H158559   0.120   1.401  15.551 -0.3460 -0.8151 -0.1386
12356TIP3    H258560  -0.003   1.477  15.507  0.3154  0.6031  0.3899
12357TIP3   OH258561   3.106   6.224   2.213  0.4256  0.0991  0.9788
12357TIP3    H158562   3.177   6.214   2.149 -0.1375 -3.4010  0.6838
12357TIP3    H258563   3.150   6.236   2.297  1.3805 -0.8296  0.6373
12358TIP3   OH258564   4.319   6.421  13.276 -0.1364  0.5011 -0.0359
12358TIP3    H158565   4.318   6.413  13.372 -2.4296  0.4168 -0.0002
12358TIP3    H258566   4.343   6.333  13.246  0.2354  0.4245  0.4633
12359TIP3   OH258567   2.204   3.346   0.044 -0.2438  0.4733  0.0555
12359TIP3    H158568   2.132   3.340  -0.018 -0.9820 -2.8951  1.0202
12359TIP3    H258569   2.167   3.316   0.127  2.2360 -1.8568  0.4913
12360TIP3   OH258570   0.437   5.793  14.030  0.2864 -0.5617 -0.4863
12360TIP3    H158571   0.347   5.811  14.004  0.1710  0.3558  0.4477
12360TIP3    H258572   0.478   5.757  13.952 -0.2255  1.3494 -1.7142
12361TIP3   OH258573   1.162   3.652   3.540 -0.2711  0.0304  0.4960
12361TIP3    H158574   1.219   3.578   3.518 -1.3136 -0.5530 -0.3546
12361TIP3    H258575   1.216   3.730   3.523  0.1004 -0.4886 -0.8476
12362TIP3   OH258576   6.534   1.704  16.964  0.0596 -0.0694  0.4719
12362TIP3    H158577   6.500   1.684  17.051 -1.5776 -1.0891 -0.3462
12362TIP3    H258578   6.583   1.626  16.939 -1.4191 -0.7483 -0.4084
12363TIP3   OH258579   3.275   2.223  13.754 -0.0969  0.3368  0.8795
12363TIP3    H158580   3.295   2.206  13.846 -1.7735 -1.9332  0.9156
12363TIP3    H258581   3.354   2.196  13.707 -0.2090 -1.2377  1.5124
12364TIP3   OH258582   1.642   5.011   1.464 -0.1911  0.0372 -0.3496
12364TIP3    H158583   1.680   4.961   1.536 -1.4063  0.8919  0.9318
12364TIP3    H258584   1.621   4.945   1.398  1.4883 -0.6971 -0.2101
12365TIP3   OH258585   6.650   3.630  14.545 -0.0295  0.2846 -0.5281
12365TIP3    H158586   6.595   3.568  14.593 -0.8026  0.3043 -1.3548
12365TIP3    H258587   6.689   3.577  14.475 -0.1028  0.5701 -0.7848
12366TIP3   OH258588   1.598   3.164  14.202 -0.4329  0.2823  0.1126
12366TIP3    H158589   1.537   3.137  14.271 -0.2470 -0.3188  0.0494
12366TIP3    H258590   1.543   3.202  14.135 -0.5861  1.1941  0.7424
12367TIP3   OH258591   1.417   3.697  14.240  0.8650 -0.2270  0.0780
12367TIP3    H158592   1.326   3.698  14.269  0.7654  2.4584 -0.0965
12367TIP3    H258593   1.421   3.624  14.178 -1.2142 -0.2990 -0.0550
12368TIP3   OH258594   0.769   0.878   3.501  0.1057 -0.4803 -0.1860
12368TIP3    H158595   0.752   0.836   3.417  0.7759  0.0275 -0.5812
12368TIP3    H258596   0.717   0.827   3.564  2.4122 -3.2279 -0.3204
12369TIP3   OH258597   4.635   1.958  14.069 -0.1393  0.3095 -0.0201
12369TIP3    H158598   4.665   1.872  14.100 -1.0765  0.1664  0.5411
12369TIP3    H258599   4.622   2.009  14.149 -3.0005 -0.2026 -0.0449
12370TIP3   OH258600   1.218   6.197   3.089  0.2607  0.6517  0.3030
12370TIP3    H158601   1.291   6.259   3.094  0.0481  1.2865 -2.8431
12370TIP3    H258602   1.255   6.119   3.047 -0.4548  0.2849  0.3329
12371TIP3   OH258603   1.702   1.865   2.707  0.1688  0.7224 -0.3390
12371TIP3    H158604   1.791   1.843   2.733 -0.5297  0.2854  1.8601
12371TIP3    H258605   1.669   1.787   2.662  0.9736  1.0187 -1.4911
12372TIP3   OH258606   4.388   3.727  13.647  0.5712  0.2255  0.0732
12372TIP3    H158607   4.460   3.750  13.589 -1.1253 -3.6727 -4.2120
12372TIP3    H258608   4.314   3.781  13.616  0.2968  0.2027  0.6612
12373TIP3   OH258609   1.145   5.764   4.938 -0.0375  0.6197  0.1112
12373TIP3    H158610   1.099   5.815   4.872 -1.1871  1.3450  1.4266
12373TIP3    H258611   1.082   5.755   5.010  0.9816 -0.5983  0.8980
12374TIP3   OH258612   3.381   3.771   4.295  0.3976 -0.3600  0.3880
12374TIP3    H158613   3.359   3.726   4.376 -0.0545 -1.7884 -0.4906
12374TIP3    H258614   3.468   3.737   4.271  2.1348  2.5708  1.9653
12375TIP3   OH258615   0.429   3.902   5.311 -0.5000  0.5501  0.2749
12375TIP3    H158616   0.466   3.919   5.224 -1.2962  0.4061 -0.0979
12375TIP3    H258617   0.502   3.918   5.371  1.1514 -2.7005 -0.6019
12376TIP3   OH258618   2.384   2.661  12.567 -0.0600 -0.2452  0.2792
12376TIP3    H158619   2.294   2.662  12.532 -1.0301 -0.8747  2.5837
12376TIP3    H258620   2.395   2.573  12.602  2.4301 -1.0190 -2.1084
12377TIP3   OH258621   5.868   4.957   2.197 -0.2172 -0.5456  0.9964
12377TIP3    H158622   5.838   5.029   2.253 -0.1157  1.9344 -1.9128
12377TIP3    H258623   5.789   4.908   2.177 -0.7137  0.1715  1.1377
12378TIP3   OH258624   6.820   1.886  10.801 -0.4923 -0.7284 -0.2875
12378TIP3    H158625   6.842   1.942  10.726  2.4736 -2.8221 -1.1890
12378TIP3    H258626   6.746   1.930  10.842  2.4610  4.8860  0.1487
12379TIP3   OH258627   4.333   5.892  16.388  0.1388  0.1154  0.1772
12379TIP3    H158628   4.245   5.929  16.373 -0.2694 -0.0871  1.8528
12379TIP3    H258629   4.361   5.862  16.302 -1.6722 -0.3119 -0.3204
12380TIP3   OH258630   0.089   0.978  15.329 -0.2788  0.4402  0.0201
12380TIP3    H158631   0.053   1.022  15.253 -0.6054  0.9447  0.4637
12380TIP3    H258632   0.014   0.959  15.384 -0.3249 -1.7179 -0.6625
12381TIP3   OH258633   3.179   3.250  14.359 -0.0893 -0.1477  0.3944
12381TIP3    H158634   3.204   3.342  14.358  0.8686 -0.3839  0.9939
12381TIP3    H258635   3.186   3.222  14.267  0.0813  0.2639  0.2786
12382TIP3   OH258636   3.219   0.249   2.154  0.1042  0.5632  0.1855
12382TIP3    H158637   3.306   0.251   2.195 -0.3109  3.1644  1.1221
12382TIP3    H258638   3.235   0.269   2.062  0.6682 -1.3011 -0.1621
12383TIP3   OH258639   6.276   2.161  11.826 -0.6549  0.1054 -0.3728
12383TIP3    H158640   6.201   2.124  11.781 -1.0300  0.1742  0.1885
12383TIP3    H258641   6.249   2.168  11.917  0.4345 -0.9730  0.0657
12384TIP3   OH258642   4.365   5.150  17.198  0.4220  0.1942 -0.5508
12384TIP3    H158643   4.427   5.086  17.232  0.4557  1.0106  0.9901
12384TIP3    H258644   4.280   5.124  17.233  0.0421 -0.2731 -1.7484
12385TIP3   OH258645   1.450   0.760   0.046  0.4502 -0.3728  0.1394
12385TIP3    H158646   1.507   0.830   0.080 -0.9899  0.4103  1.0151
12385TIP3    H258647   1.461   0.765  -0.049  2.1953 -0.5684  0.2844
12386TIP3   OH258648   3.691   0.066   4.287 -0.0339 -0.2743 -0.5083
12386TIP3    H158649   3.743   0.127   4.234  0.4611  2.3087  2.5930
12386TIP3    H258650   3.610   0.054   4.238  0.6658  1.3428 -2.1700
12387TIP3   OH258651   4.526   1.725  15.546  0.6495 -0.3381 -0.0585
12387TIP3    H158652   4.442   1.751  15.509 -0.0637 -1.7682  0.4574
12387TIP3    H258653   4.587   1.727  15.472  0.1642  0.6746 -0.4444
12388TIP3   OH258654   4.507   2.063   0.235 -0.5773  0.3723 -0.7759
12388TIP3    H158655   4.476   1.999   0.300 -0.2698  1.7074  0.7432
12388TIP3    H258656   4.454   2.141   0.251  1.3088  1.6248 -0.2907
12389TIP3   OH258657   3.370   2.091  14.482 -0.3353  0.4327  1.2005
12389TIP3    H158658   3.443   2.152  14.474  0.0658 -0.1019  0.6721
12389TIP3    H258659   3.376   2.037  14.403  0.0043 -1.0221  2.1923
12390TIP3   OH258660   5.333   1.433  13.711  0.5865 -0.2285  0.2946
12390TIP3    H158661   5.320   1.522  13.679 -0.2316 -1.7865 -4.4151
12390TIP3    H258662   5.423   1.411  13.687  0.3874 -1.0421  0.2440
12391TIP3   OH258663   2.623   6.809   4.932  0.3379  0.1873  0.4546
12391TIP3    H158664   2.647   6.801   5.024  2.2894 -1.3024 -0.1206
12391TIP3    H258665   2.695   6.859   4.892  1.2346 -1.9421 -0.7982
12392TIP3   OH258666   3.200   2.255  14.628  0.2807 -0.3002  0.1617
12392TIP3    H158667   3.242   2.195  14.566 -0.8070 -1.1032  0.1705
12392TIP3    H258668   3.154   2.198  14.689 -2.8180  0.4683 -1.2458
12393TIP3   OH258669   4.586   5.429   5.730 -0.2612  0.8844 -0.4155
12393TIP3    H158670   4.541   5.349   5.758  1.4031 -0.0500 -0.3000
12393TIP3    H258671   4.576   5.430   5.635 -0.3396  0.5776 -0.4120
12394TIP3   OH258672   4.674   5.221  12.324 -0.0922  0.3726  0.3956
12394TIP3    H158673   4.619   5.183  12.255 -0.7369  1.0146  0.5317
12394TIP3    H258674   4.664   5.162  12.398 -1.8618  1.2580  0.9241
12395TIP3   OH258675   0.633   5.231  12.829  0.3798  0.2821  0.3922
12395TIP3    H158676   0.703   5.274  12.780  0.2339  1.0763  0.8688
12395TIP3    H258677   0.679   5.171  12.887  0.5699 -0.4437 -0.4795
12396TIP3   OH258678   3.163   0.257   1.624 -0.3282 -0.0794  0.1438
12396TIP3    H158679   3.068   0.242   1.623 -0.0302 -2.1889 -0.6143
12396TIP3    H258680   3.189   0.256   1.532  0.1685  2.8676  0.1471
12397TIP3   OH258681   4.450   5.447   4.990 -0.3109  0.3954  0.2306
12397TIP3    H158682   4.366   5.439   5.034 -0.3271  2.2596  0.6325
12397TIP3    H258683   4.445   5.531   4.944  1.2248  0.4184  0.0561
12398TIP3   OH258684   5.953   3.857  14.414 -0.4032 -0.0491 -0.2814
12398TIP3    H158685   5.864   3.839  14.446 -0.6826 -2.5753 -2.1309
12398TIP3    H258686   6.009   3.832  14.487 -1.1637  0.3457  0.4627
12399TIP3   OH258687   2.390   3.218  14.516 -0.2858  0.0632  0.0824
12399TIP3    H158688   2.312   3.244  14.565 -1.9355 -0.5948 -2.0444
12399TIP3    H258689   2.420   3.300  14.475 -2.7677 -0.3048 -2.8850
12400TIP3   OH258690   3.543   2.659   1.264  0.0725  0.1222 -0.5246
12400TIP3    H158691   3.503   2.593   1.208  0.5769 -0.6926  0.0700
12400TIP3    H258692   3.627   2.678   1.223  0.0565  0.1771 -0.5321
12401TIP3   OH258693   5.196   4.629  14.449  0.2354 -0.5827  0.0168
12401TIP3    H158694   5.122   4.573  14.427 -0.6610  0.7304 -0.4166
12401TIP3    H258695   5.158   4.705  14.493  1.0269  1.1245 -2.0539
12402TIP3   OH258696   6.267   5.005  12.383  0.7922 -0.2774 -0.4465
12402TIP3    H158697   6.209   4.962  12.320 -2.9544  1.9429  1.0936
12402TIP3    H258698   6.256   4.955  12.464  0.5126  0.4826  0.0017
12403TIP3   OH258699   5.035   1.368  14.440  0.9139  0.2915 -0.1880
12403TIP3    H158700   5.079   1.325  14.366 -0.1075 -1.3146  0.0794
12403TIP3    H258701   5.088   1.344  14.517  0.9027  0.3622 -0.1580
12404TIP3   OH258702   4.198   0.440   6.640 -0.0761 -0.0596 -0.3846
12404TIP3    H158703   4.145   0.361   6.653 -0.1306 -0.0427 -0.4981
12404TIP3    H258704   4.198   0.484   6.725 -1.8359  0.9233 -0.8421
12405TIP3   OH258705   0.400   1.164   3.025 -0.1428 -0.6304 -0.0134
12405TIP3    H158706   0.473   1.118   3.068 -0.5227 -1.1934  0.0327
12405TIP3    H258707   0.381   1.112   2.947 -0.1989 -0.2291 -0.2723
12406TIP3   OH258708   6.715   1.860  13.618  0.0329  0.5924 -0.4189
12406TIP3    H158709   6.717   1.777  13.665  0.6756  1.1355  0.5445
12406TIP3    H258710   6.794   1.858  13.563 -0.6783 -0.0094 -1.4534
12407TIP3   OH258711   4.327   2.776   6.635  0.0710 -0.4048 -0.5686
12407TIP3    H158712   4.420   2.780   6.658  0.0544  0.8327 -0.6687
12407TIP3    H258713   4.286   2.731   6.709  0.4660  0.8468  0.4301
12408TIP3   OH258714   0.503   4.658  15.610 -0.2405  0.2156  0.0604
12408TIP3    H158715   0.444   4.728  15.582 -0.1778  0.4515  0.5000
12408TIP3    H258716   0.511   4.671  15.705  1.2769  0.7662 -0.1316
12409TIP3   OH258717   6.038   0.199  16.957 -0.0357  0.1733  0.7658
12409TIP3    H158718   6.044   0.291  16.984  1.6278 -0.7859  4.3648
12409TIP3    H258719   6.129   0.172  16.946 -0.2968 -1.5831  2.3434
12410TIP3   OH258720   4.405   3.307  12.066  0.1372  0.2749  0.6237
12410TIP3    H158721   4.323   3.348  12.039  0.3215  1.1945  1.4136
12410TIP3    H258722   4.447   3.281  11.984 -0.2749  1.1164  0.1296
12411TIP3   OH258723   5.304   6.472  11.776 -0.6129 -0.2611  0.0145
12411TIP3    H158724   5.308   6.563  11.807 -1.4562  0.0875 -0.8155
12411TIP3    H258725   5.211   6.448  11.784 -0.4684 -0.8997 -0.1712
12412TIP3   OH258726   6.589   5.720   6.652 -0.0374  0.2705 -0.1815
12412TIP3    H158727   6.571   5.814   6.650  0.8550  0.4646  0.1396
12412TIP3    H258728   6.633   5.707   6.736  0.6323 -0.2822 -0.6123
12413TIP3   OH258729   3.808   3.148  13.895  0.0403 -0.4346  0.0248
12413TIP3    H158730   3.734   3.161  13.836  0.6970 -1.2997 -1.0242
12413TIP3    H258731   3.807   3.055  13.916 -0.2577 -0.1190  1.5132
12414TIP3   OH258732   1.348   3.873   2.618  0.4218 -0.3950  0.0922
12414TIP3    H158733   1.398   3.952   2.599  0.3444 -0.3898 -0.0912
12414TIP3    H258734   1.307   3.890   2.703 -0.6747  0.2971 -0.5612
12415TIP3   OH258735   6.087   1.547  14.700 -0.0014 -0.0951 -0.2761
12415TIP3    H158736   6.043   1.474  14.743 -0.5013  1.0370  1.2213
12415TIP3    H258737   6.112   1.606  14.772  1.7262  0.4982 -1.3047
12416TIP3   OH258738   6.656   2.148  15.569  0.3297 -0.1772 -0.4104
12416TIP3    H158739   6.567   2.143  15.604  0.6490  1.3867  0.7201
12416TIP3    H258740   6.700   2.072  15.608  0.1797  0.5104  1.1871
12417TIP3   OH258741   3.721   6.814  16.306 -0.2047  0.5269 -0.4931
12417TIP3    H158742   3.778   6.759  16.361 -0.0291 -1.2668 -2.3311
12417TIP3    H258743   3.756   6.803  16.217  0.2366  4.2309 -0.9046
12418TIP3   OH258744   6.568   1.741  14.021  0.5170  0.8614 -0.1564
12418TIP3    H158745   6.512   1.768  13.948  2.1429  0.1936 -1.7200
12418TIP3    H258746   6.544   1.650  14.038 -0.8025  1.3969  1.1233
12419TIP3   OH258747   6.037   4.939  12.285  0.4549 -0.4585  0.4393
12419TIP3    H158748   5.946   4.955  12.310  1.1873  2.6273  1.6220
12419TIP3    H258749   6.033   4.864  12.226 -2.9131 -0.0374 -0.0634
12420TIP3   OH258750   1.637   3.381   4.331  0.3356  0.1463  0.2147
12420TIP3    H158751   1.643   3.467   4.373  1.8016  0.6722 -0.9871
12420TIP3    H258752   1.692   3.388   4.253 -0.6584 -1.4484 -0.6871
12421TIP3   OH258753   4.554   5.378   4.081  0.1593 -0.0076 -0.2733
12421TIP3    H158754   4.465   5.392   4.114  0.3359  0.3870  0.0353
12421TIP3    H258755   4.556   5.423   3.996 -0.2566 -0.9185 -0.7838
12422TIP3   OH258756   1.598   0.098   4.575  0.1610 -0.0129  0.1461
12422TIP3    H158757   1.609   0.131   4.486  1.7990 -0.7815  0.0253
12422TIP3    H258758   1.505   0.107   4.593 -0.5460 -1.5386 -2.3352
12423TIP3   OH258759   2.387   5.140  14.478 -0.0594  0.2486 -0.2938
12423TIP3    H158760   2.292   5.133  14.491 -0.1131 -0.3427 -0.9144
12423TIP3    H258761   2.424   5.136  14.566 -0.6834  2.0039  0.0750
12424TIP3   OH258762   3.880   3.021   3.456 -0.0236 -0.2239 -0.1501
12424TIP3    H158763   3.880   3.017   3.360  0.6739 -1.1034 -0.1262
12424TIP3    H258764   3.892   2.930   3.483  0.0594  0.0587  0.7727
12425TIP3   OH258765   2.803   1.286  10.627 -0.1397 -0.2387  0.0515
12425TIP3    H158766   2.835   1.354  10.568 -0.6233 -0.3420 -0.3422
12425TIP3    H258767   2.710   1.306  10.637 -0.4418 -1.2348 -0.6256
12426TIP3   OH258768   4.207   1.801  15.689 -0.3130 -0.3288 -0.6762
12426TIP3    H158769   4.176   1.780  15.777  0.6603 -1.2277 -0.5269
12426TIP3    H258770   4.169   1.886  15.670 -0.2895  0.0290  0.7472
12427TIP3   OH258771   3.157   3.801  11.770  0.4407 -0.2037  0.0792
12427TIP3    H158772   3.244   3.786  11.732  0.7844  0.0363  0.7522
12427TIP3    H258773   3.116   3.715  11.770  0.0356 -0.0451 -1.7707
12428TIP3   OH258774   2.340   1.161  11.794  0.1438  1.2411  0.0099
12428TIP3    H158775   2.427   1.131  11.770 -0.8840 -0.3266 -2.1134
12428TIP3    H258776   2.326   1.128  11.883  0.6872 -0.9576 -0.6714
12429TIP3   OH258777   3.601   3.746   3.569 -0.5522 -0.3384 -0.5495
12429TIP3    H158778   3.641   3.793   3.496  2.4876  1.4948  1.9952
12429TIP3    H258779   3.646   3.661   3.570  0.6473  0.2752  0.0826
12430TIP3   OH258780   1.385   6.644   2.931  0.5889  0.2533 -0.9058
12430TIP3    H158781   1.393   6.715   2.995 -0.0216  1.5060 -2.1395
12430TIP3    H258782   1.335   6.683   2.859 -0.1354 -1.5896 -1.4531
12431TIP3   OH258783   1.912   4.745   4.959 -0.9848  0.6180  0.2467
12431TIP3    H158784   1.987   4.706   5.004  0.0469  1.8060 -0.3632
12431TIP3    H258785   1.904   4.832   4.997  0.2761  1.8833 -2.1470
12432TIP3   OH258786   2.160   3.973  14.148 -0.1114 -0.1235  0.2725
12432TIP3    H158787   2.209   4.054  14.135 -1.1689  0.5758  0.4590
12432TIP3    H258788   2.134   3.946  14.060 -0.4446  0.1873  0.2751
12433TIP3   OH258789   1.092   3.338   0.911  0.0746 -0.1604 -0.1407
12433TIP3    H158790   1.065   3.381   0.830 -1.6364 -0.3755  0.2719
12433TIP3    H258791   1.107   3.247   0.886  1.1737  0.1038 -0.5084
12434TIP3   OH258792   4.630   6.428  15.671 -0.1254  0.5269 -0.1358
12434TIP3    H158793   4.671   6.420  15.757 -0.0813  0.2602 -0.1812
12434TIP3    H258794   4.595   6.517  15.669  0.2381  0.6768  0.0010
12435TIP3   OH258795   5.619   1.944  13.990  0.4154  0.2257  0.0641
12435TIP3    H158796   5.668   1.895  14.056 -0.7278  0.1073  0.8599
12435TIP3    H258797   5.666   2.027  13.983  0.4252  0.3420  1.2310
12436TIP3   OH258798   6.235   3.566  16.791 -0.2710  0.2916 -0.6053
12436TIP3    H158799   6.216   3.659  16.802 -2.5622  0.0374 -1.8395
12436TIP3    H258800   6.250   3.555  16.697  0.9994 -0.4582 -0.3479
12437TIP3   OH258801   2.340   4.528  12.445  0.5735  0.0015 -0.0713
12437TIP3    H158802   2.329   4.464  12.515  1.1163  0.3440  0.3363
12437TIP3    H258803   2.431   4.517  12.417 -0.3159 -1.9608 -2.5469
12438TIP3   OH258804   4.639   1.767   3.045 -0.0397  0.1601 -0.1918
12438TIP3    H158805   4.696   1.837   3.012 -0.3745  0.0258 -1.0984
12438TIP3    H258806   4.598   1.731   2.966 -1.1209  0.0290  0.4103
12439TIP3   OH258807   6.040   0.305  12.581  0.2281  0.4331  0.5643
12439TIP3    H158808   5.960   0.276  12.538 -0.1696  0.2762  1.4014
12439TIP3    H258809   6.012   0.335  12.668  0.6366  3.1329 -0.1323
12440TIP3   OH258810   2.499   1.736  12.990 -0.3254 -0.0438  0.0360
12440TIP3    H158811   2.537   1.712  12.905 -0.0884 -1.4436  0.5159
12440TIP3    H258812   2.557   1.805  13.023 -0.0843  0.1076 -0.6677
12441TIP3   OH258813   0.944   6.424   4.705 -0.0126 -0.3197  0.0967
12441TIP3    H158814   0.937   6.432   4.800 -1.9840 -0.5104  0.0069
12441TIP3    H258815   0.959   6.331   4.690 -0.3908 -0.4031  0.2113
12442TIP3   OH258816   2.759   4.497  13.907  0.2500  0.1192  0.2428
12442TIP3    H158817   2.703   4.558  13.859  0.0163 -1.3166 -1.4072
12442TIP3    H258818   2.702   4.423  13.928  0.4560  0.5101  2.4469
12443TIP3   OH258819   4.888   3.810   0.080  0.3500 -0.1788  0.0857
12443TIP3    H158820   4.881   3.715   0.080  1.8880 -0.3421 -1.4427
12443TIP3    H258821   4.822   3.839   0.143 -0.9059 -2.1779 -0.2120
12444TIP3   OH258822   1.295   4.673   2.560  0.0629  0.7161 -0.1732
12444TIP3    H158823   1.293   4.639   2.649 -1.7486  0.2119 -0.3696
12444TIP3    H258824   1.220   4.632   2.517  1.0586  0.7583 -2.0113
12445TIP3   OH258825   4.215   1.734  12.083 -0.2531 -0.0106  0.8706
12445TIP3    H158826   4.290   1.767  12.034  0.1552 -1.2140  0.6508
12445TIP3    H258827   4.232   1.640  12.092 -1.5203 -0.2232  1.2011
12446TIP3   OH258828   4.881   0.734   2.538 -0.5057 -0.1493  0.3768
12446TIP3    H158829   4.933   0.787   2.479 -0.9957  0.2638  0.3076
12446TIP3    H258830   4.801   0.785   2.553 -0.3012 -0.1395  1.5653
12447TIP3   OH258831   1.438   0.999  16.239  0.0936 -0.2466  0.1196
12447TIP3    H158832   1.437   0.997  16.144 -2.1936  0.8373  0.0697
12447TIP3    H258833   1.512   1.057  16.261  0.7225 -0.6177 -0.9601
12448TIP3   OH258834   4.967   6.382   5.142 -1.0485  0.2732  0.3335
12448TIP3    H158835   4.900   6.412   5.080  1.4590  0.6904 -2.3869
12448TIP3    H258836   5.000   6.463   5.182  1.2833  0.7319 -2.2350
12449TIP3   OH258837   1.365   4.014   1.051 -0.1668  0.3280  0.7102
12449TIP3    H158838   1.405   4.033   1.135 -0.5609 -0.0778  0.9920
12449TIP3    H258839   1.376   3.919   1.040 -1.7304  0.0737  1.1571
12450TIP3   OH258840   3.329   1.182   6.624 -0.4422  0.0721 -0.6599
12450TIP3    H158841   3.374   1.239   6.686 -0.1038  0.9067 -1.6653
12450TIP3    H258842   3.352   1.093   6.653 -0.1723  0.4419  0.3087
12451TIP3   OH258843   3.215   2.862  13.760 -0.3793 -0.1678 -0.2517
12451TIP3    H158844   3.152   2.805  13.716 -0.2615  0.3446 -1.1119
12451TIP3    H258845   3.203   2.947  13.717 -1.6275  0.8878  2.0117
12452TIP3   OH258846   5.339   1.433   4.833 -0.0659  0.4966  0.0075
12452TIP3    H158847   5.286   1.513   4.836  1.1435  1.4044 -1.5955
12452TIP3    H258848   5.415   1.452   4.888 -0.0733  0.2202  0.1157
12453TIP3   OH258849   6.344   5.800  11.081  0.6793 -0.8920 -0.4094
12453TIP3    H158850   6.329   5.709  11.056  0.2852 -0.6207 -1.1754
12453TIP3    H258851   6.332   5.850  11.000 -0.1304 -0.0455  0.2099
12454TIP3   OH258852   5.635   2.063   2.533 -0.3144  0.1276 -0.1252
12454TIP3    H158853   5.697   2.116   2.583 -0.2218  0.2318 -0.3488
12454TIP3    H258854   5.688   1.993   2.495 -0.5253 -0.4528  0.6173
12455TIP3   OH258855   6.648   4.505  13.156 -0.1124  0.8460  0.0122
12455TIP3    H158856   6.704   4.555  13.215  0.3723  1.2042 -0.7419
12455TIP3    H258857   6.699   4.427  13.134  0.8702  1.9933 -2.0538
12456TIP3   OH258858   5.645   1.455  12.262 -0.2287 -0.4531  0.3587
12456TIP3    H158859   5.676   1.394  12.195 -0.6156  0.3730 -0.5897
12456TIP3    H258860   5.550   1.444  12.261 -0.2561 -0.2403  0.5846
12457TIP3   OH258861   3.052   1.236   4.491 -0.4730 -0.1278 -0.0259
12457TIP3    H158862   3.009   1.266   4.571  1.2712 -0.8558  1.2531
12457TIP3    H258863   3.094   1.314   4.456  1.9007 -0.4284  1.8934
12458TIP3   OH258864   5.748   6.790   5.539  0.3971 -0.0075  0.2025
12458TIP3    H158865   5.720   6.700   5.525  0.6579 -0.0055 -0.3782
12458TIP3    H258866   5.675   6.843   5.508  1.0090 -0.0016 -1.3128
12459TIP3   OH258867   4.265   6.330   2.857 -0.0509 -0.3128 -0.1823
12459TIP3    H158868   4.292   6.239   2.869  1.6821  0.1767 -0.0892
12459TIP3    H258869   4.347   6.378   2.852 -0.8715  0.9854 -2.4353
12460TIP3   OH258870   3.921   1.560   5.418  0.0968 -0.5076 -0.0114
12460TIP3    H158871   3.838   1.551   5.372 -0.4622 -0.0695  0.8890
12460TIP3    H258872   3.974   1.487   5.388 -0.6942 -0.9116 -0.4302
12461TIP3   OH258873   4.490   5.763  14.806  0.0588  0.0459  0.4203
12461TIP3    H158874   4.541   5.690  14.773 -1.5912 -0.6851 -0.6197
12461TIP3    H258875   4.406   5.725  14.830 -0.8656  1.6085 -0.2013
12462TIP3   OH258876   4.793   5.298  13.908  0.1289  1.0903 -0.2381
12462TIP3    H158877   4.777   5.245  13.986 -0.6958  1.0397 -0.4322
12462TIP3    H258878   4.706   5.325  13.879  0.2394 -0.6672 -2.3883
12463TIP3   OH258879   5.040   0.619   0.419 -0.6218  0.4438 -0.0167
12463TIP3    H158880   5.118   0.581   0.378 -1.5240 -1.2449 -0.2640
12463TIP3    H258881   4.970   0.601   0.356 -1.9031 -1.5028  1.8459
12464TIP3   OH258882   2.463   3.081  11.744  0.0285 -0.4288  0.4809
12464TIP3    H158883   2.530   3.139  11.779  0.7918 -0.6865 -0.5027
12464TIP3    H258884   2.425   3.039  11.821  0.1966  0.5731  1.1244
12465TIP3   OH258885   3.710   0.115   1.698  0.0500  0.5542  0.1951
12465TIP3    H158886   3.735   0.156   1.615 -1.4883  2.2962  0.5128
12465TIP3    H258887   3.614   0.123   1.700 -0.1079 -1.1799  1.2888
12466TIP3   OH258888   5.457   4.194  13.290  0.3204 -0.1064 -0.7481
12466TIP3    H158889   5.436   4.281  13.325  0.2958 -1.0202  1.7118
12466TIP3    H258890   5.374   4.161  13.257  0.3219  0.7517 -1.6713
12467TIP3   OH258891   2.520   3.622   1.249 -0.0481 -0.5037  0.0118
12467TIP3    H158892   2.444   3.680   1.240  1.7843  2.7212  2.6674
12467TIP3    H258893   2.495   3.560   1.318 -1.1060 -1.1823 -0.9520
12468TIP3   OH258894   6.613   6.531  11.387 -0.6453  0.1795  0.8101
12468TIP3    H158895   6.681   6.464  11.391  0.7516  1.5029  0.2343
12468TIP3    H258896   6.574   6.522  11.300 -0.7044 -0.1109  0.8675
12469TIP3   OH258897   5.723   4.527   3.258 -0.7429  0.0618  0.0142
12469TIP3    H158898   5.802   4.496   3.215  0.2798  1.4563  0.8185
12469TIP3    H258899   5.738   4.511   3.351 -0.8765  1.4022  0.2865
12470TIP3   OH258900   2.322   2.172   0.542 -0.1701 -0.3473 -0.3385
12470TIP3    H158901   2.300   2.243   0.603 -0.6791  0.5694 -1.5482
12470TIP3    H258902   2.417   2.181   0.529  0.1806 -1.3382  1.2378
12471TIP3   OH258903   2.876   6.091   2.104 -0.5098 -0.1582  0.1178
12471TIP3    H158904   2.907   6.160   2.162 -1.4483 -1.0922  1.8052
12471TIP3    H258905   2.785   6.115   2.084 -0.5996 -0.5014  0.1006
12472TIP3   OH258906   6.649   2.140   0.126  0.8168 -0.3251  0.0447
12472TIP3    H158907   6.732   2.125   0.170  0.5551 -1.8579  0.0667
12472TIP3    H258908   6.673   2.164   0.037  1.2874 -0.5900  0.0956
12473TIP3   OH258909   6.190   3.375  11.980 -0.3491  0.8729  0.1442
12473TIP3    H158910   6.281   3.375  11.950  0.0364  0.0822  1.2757
12473TIP3    H258911   6.150   3.300  11.936 -0.6925  1.6808 -0.9763
12474TIP3   OH258912   2.791   5.608   3.173 -0.3027  0.2062  0.0786
12474TIP3    H158913   2.723   5.576   3.114 -1.2202  0.7114  0.8121
12474TIP3    H258914   2.755   5.690   3.208 -0.1605 -0.4622  1.9137
12475TIP3   OH258915   0.199   6.760   6.130 -0.4020  0.1159  0.3448
12475TIP3    H158916   0.226   6.668   6.123  0.5635  0.4367 -0.3380
12475TIP3    H258917   0.191   6.790   6.040 -0.3602  0.8016  0.5656
12476TIP3   OH258918   6.819   4.051  15.491 -0.2728 -0.3213  0.4881
12476TIP3    H158919   6.893   4.101  15.527  1.2504 -1.8520 -0.3404
12476TIP3    H258920   6.834   4.053  15.397 -1.0955 -0.9795  0.3428
12477TIP3   OH258921   1.666   5.377  11.363  0.4213 -0.5585 -0.9978
12477TIP3    H158922   1.579   5.368  11.402  1.0878 -0.2057  0.7009
12477TIP3    H258923   1.653   5.364  11.270 -1.6080  0.4856 -0.9018
12478TIP3   OH258924   0.727   4.089  12.689 -0.1221 -0.1483 -0.4665
12478TIP3    H158925   0.715   3.994  12.686 -1.6360  0.0302 -0.8396
12478TIP3    H258926   0.719   4.117  12.598 -2.1028  0.5687 -0.1214
12479TIP3   OH258927   4.057   6.574   5.193  0.5103  0.4025  0.1461
12479TIP3    H158928   4.060   6.480   5.211 -0.1148  0.4505  0.5381
12479TIP3    H258929   3.980   6.586   5.137  2.7267  0.1797 -3.2112
12480TIP3   OH258930   3.067   6.001  16.843  0.2875 -0.4045  0.3353
12480TIP3    H158931   3.026   5.958  16.918 -0.5802 -1.8566 -0.9228
12480TIP3    H258932   3.155   5.963  16.838  0.0079 -1.0363  0.0632
12481TIP3   OH258933   2.536   2.548  14.968  0.6754 -0.2236 -0.4725
12481TIP3    H158934   2.483   2.480  15.008 -0.1867  1.5153  1.5113
12481TIP3    H258935   2.487   2.629  14.981  1.5582  0.8355 -2.9208
12482TIP3   OH258936   6.250   1.475  11.916 -0.6375  0.1124  0.2555
12482TIP3    H158937   6.195   1.402  11.888  0.7218 -0.8903  0.1031
12482TIP3    H258938   6.203   1.553  11.887 -0.4174 -0.7720 -2.8929
12483TIP3   OH258939   5.789   2.710  15.197  0.1483 -0.4061 -0.0472
12483TIP3    H158940   5.804   2.634  15.141 -0.1461 -0.9041  0.5374
12483TIP3    H258941   5.876   2.750  15.206  0.2931 -0.6317 -0.4190
12484TIP3   OH258942   2.839   6.037  16.645  0.2997  0.2234 -0.0009
12484TIP3    H158943   2.910   6.061  16.585 -0.6117 -0.1581 -1.2913
12484TIP3    H258944   2.861   6.079  16.728  1.0088  1.7536 -0.9318
12485TIP3   OH258945   3.070   1.117   3.663 -0.0624 -0.3002 -0.3441
12485TIP3    H158946   2.979   1.094   3.646 -0.3790  0.5904  0.0890
12485TIP3    H258947   3.075   1.211   3.642  1.0879 -0.6340 -1.7070
12486TIP3   OH258948   3.367   3.560   0.710  0.1082 -0.0915 -0.3247
12486TIP3    H158949   3.350   3.640   0.760  1.5591  0.0780 -0.0537
12486TIP3    H258950   3.328   3.577   0.625 -3.2783 -0.7664  0.9556
12487TIP3   OH258951   0.731   3.442  10.847  0.2786 -1.0898 -0.5310
12487TIP3    H158952   0.736   3.400  10.933 -1.3738 -1.2307 -0.4725
12487TIP3    H258953   0.661   3.397  10.802 -1.6233  1.5490 -0.4586
12488TIP3   OH258954   5.764   5.036  14.138 -0.4827  0.2439  0.4998
12488TIP3    H158955   5.800   5.118  14.105 -0.0821  0.1379  0.6680
12488TIP3    H258956   5.835   4.997  14.190 -1.5791  1.1579  2.8331
12489TIP3   OH258957   4.225   3.497   6.477 -0.9217  0.2225  0.0462
12489TIP3    H158958   4.212   3.427   6.541 -0.0688 -2.5509 -2.5873
12489TIP3    H258959   4.140   3.505   6.434 -1.4010  1.8596  1.1884
12490TIP3   OH258960   2.963   4.273  16.139 -0.2373  0.2071  1.1181
12490TIP3    H158961   3.032   4.288  16.075 -1.1383 -1.3641 -0.3187
12490TIP3    H258962   2.990   4.193  16.185 -0.4041  0.3928  1.5436
12491TIP3   OH258963   1.537   3.776   3.203  0.5319 -0.2686  0.2701
12491TIP3    H158964   1.509   3.685   3.189  0.9507 -0.4233  0.4263
12491TIP3    H258965   1.458   3.820   3.235  0.6598 -0.8727  1.4671
12492TIP3   OH258966   2.607   2.654   1.483  0.0599 -1.3274 -0.0325
12492TIP3    H158967   2.604   2.560   1.468 -1.1981 -1.2487 -0.3483
12492TIP3    H258968   2.560   2.692   1.408  1.5831 -0.3636 -0.5455
12493TIP3   OH258969   5.937   0.922   5.320  0.0886 -0.5575 -0.5389
12493TIP3    H158970   5.933   0.937   5.414 -0.7764  1.0927 -0.8010
12493TIP3    H258971   6.029   0.907   5.302  0.2425 -1.0672  0.5848
12494TIP3   OH258972   0.886   3.058   1.574 -0.2856  0.1713 -0.0435
12494TIP3    H158973   0.869   3.147   1.544 -1.4069 -0.3214 -0.9186
12494TIP3    H258974   0.966   3.032   1.527  0.1299  0.7656  0.3320
12495TIP3   OH258975   3.809   2.529  12.232  0.6464  0.3096 -0.6860
12495TIP3    H158976   3.870   2.553  12.162  0.9980 -0.5972 -0.6977
12495TIP3    H258977   3.744   2.474  12.190  0.6067  0.1275 -0.3881
12496TIP3   OH258978   2.802   3.068  15.212 -0.5948 -0.2442 -0.3696
12496TIP3    H158979   2.869   3.091  15.147 -1.3454 -0.5218 -1.2709
12496TIP3    H258980   2.729   3.036  15.159 -1.2212 -0.4818  0.6314
12497TIP3   OH258981   4.794   3.136   4.332  0.6096  0.2705  0.1108
12497TIP3    H158982   4.721   3.113   4.274  1.4556 -0.3118 -0.7614
12497TIP3    H258983   4.871   3.099   4.289  1.4813  1.2223  0.7967
12498TIP3   OH258984   1.376   1.416  14.648  0.3199 -0.2679 -0.0977
12498TIP3    H158985   1.315   1.441  14.579  1.4962  1.6605 -0.5437
12498TIP3    H258986   1.423   1.340  14.613  0.6028  0.4280 -1.2776
12499TIP3   OH258987   3.450   6.618  14.265  0.5659 -0.2783  0.2135
12499TIP3    H158988   3.374   6.639  14.210  0.1466  3.8191  1.9932
12499TIP3    H258989   3.417   6.553  14.327 -1.4303  1.0039  0.6045
12500TIP3   OH258990   4.139   5.927  12.750  0.5112  0.2450  0.2666
12500TIP3    H158991   4.170   6.004  12.798 -0.3178  0.8948 -0.2050
12500TIP3    H258992   4.076   5.962  12.687 -1.6872 -1.0456  1.5883
12501TIP3   OH258993   0.739   2.251   3.703  0.1021  0.5298  0.2075
12501TIP3    H158994   0.700   2.327   3.748 -0.8447  0.4976 -0.5269
12501TIP3    H258995   0.678   2.231   3.632  0.0721 -1.2493  0.6919
12502TIP3   OH258996   0.005   1.744   3.725  0.7701  0.0491  0.6855
12502TIP3    H158997   0.043   1.741   3.812  2.2532  0.1855  0.0703
12502TIP3    H258998   0.025   1.832   3.693  0.0697  0.0681  0.2768
12503TIP3   OH258999   4.899   2.504   3.936 -0.2776 -0.2057  0.0069
12503TIP3    H159000   4.835   2.444   3.898 -2.3939  1.0811  1.3604
12503TIP3    H259001   4.937   2.455   4.009 -1.4993 -0.1574  0.6915
12504TIP3   OH259002   2.117   4.364  15.744 -0.5505 -0.4235  0.2836
12504TIP3    H159003   2.032   4.406  15.759 -1.5892 -2.1759 -0.4264
12504TIP3    H259004   2.178   4.437  15.734 -1.8831  0.8727  1.2431
12505TIP3   OH259005   2.326   0.072  16.840  0.1411  0.2937 -0.0809
12505TIP3    H159006   2.327   0.149  16.897  0.0620  0.3790 -0.1940
12505TIP3    H259007   2.393   0.090  16.775  2.4091 -1.1276  1.7109
12506TIP3   OH259008   6.594   1.770  13.140  0.0428 -0.8175  0.0191
12506TIP3    H159009   6.517   1.820  13.111 -0.6731 -0.4007  2.4645
12506TIP3    H259010   6.667   1.812  13.095 -0.9605 -0.0732 -0.9888
12507TIP3   OH259011   0.525   4.319   5.399  0.3634 -0.0843  0.2396
12507TIP3    H159012   0.597   4.325   5.336 -0.8970 -0.3595 -1.2814
12507TIP3    H259013   0.494   4.410   5.408 -0.3437 -0.2150 -0.6595
12508TIP3   OH259014   0.222   3.833   4.815 -0.6018  0.1423 -0.0621
12508TIP3    H159015   0.286   3.793   4.874  2.4758  1.3455 -2.2926
12508TIP3    H259016   0.239   3.792   4.730 -0.4953  2.7821 -1.4112
12509TIP3   OH259017   4.427   3.078  12.227 -0.5977  0.0429 -0.0815
12509TIP3    H159018   4.446   3.117  12.313 -0.2486  0.6194 -0.4098
12509TIP3    H259019   4.436   3.152  12.166  1.9537 -0.8882 -0.9752
12510TIP3   OH259020   3.423   0.157   3.593  0.3499 -0.3505  0.0675
12510TIP3    H159021   3.389   0.205   3.517 -1.3435 -2.7781 -0.8291
12510TIP3    H259022   3.492   0.101   3.558 -1.9801 -3.2325 -0.3549
12511TIP3   OH259023   0.289   1.823   0.121  0.1897 -0.3268 -0.3796
12511TIP3    H159024   0.376   1.863   0.125  0.0333 -0.0616  0.3995
12511TIP3    H259025   0.284   1.768   0.199 -0.7476  0.4952  0.1626
12512TIP3   OH259026   5.501   3.879   0.410  0.2127 -0.4947 -0.0855
12512TIP3    H159027   5.415   3.921   0.415  0.5507  0.2486 -0.3253
12512TIP3    H259028   5.526   3.865   0.501 -0.6700 -1.8071 -0.0200
12513TIP3   OH259029   4.369   4.530  16.946 -0.1557  0.2118 -0.1144
12513TIP3    H159030   4.441   4.524  16.883 -1.0400 -0.9156 -1.0684
12513TIP3    H259031   4.309   4.593  16.908 -0.7190 -0.5127 -0.4572
12514TIP3   OH259032   4.624   6.422   4.386 -0.5484 -0.4575 -0.6329
12514TIP3    H159033   4.543   6.397   4.431 -0.6451 -1.3887 -1.2987
12514TIP3    H259034   4.598   6.439   4.296  0.3249 -3.3367 -1.5489
12515TIP3   OH259035   6.240   6.274   2.758 -0.3748  0.0804  0.8540
12515TIP3    H159036   6.307   6.216   2.724 -0.6859  0.9171 -1.2964
12515TIP3    H259037   6.174   6.215   2.796  0.9075 -0.7830  1.8270
12516TIP3   OH259038   0.523   1.828  15.443  0.0508  0.0273  0.1991
12516TIP3    H159039   0.478   1.897  15.493 -0.7957 -1.5598  1.7437
12516TIP3    H259040   0.453   1.768  15.419  0.6458  0.1231 -1.9267
12517TIP3   OH259041   6.769   2.520   5.838 -0.3506 -0.1219  0.4600
12517TIP3    H159042   6.725   2.599   5.869 -0.0922 -0.2199  1.0918
12517TIP3    H259043   6.698   2.458   5.821 -0.4690 -0.2478  1.3806
12518TIP3   OH259044   6.197   5.865   2.370 -0.1219 -0.2938 -0.0482
12518TIP3    H159045   6.277   5.813   2.372 -0.5679 -1.1324 -1.7934
12518TIP3    H259046   6.228   5.956   2.363  0.6698 -0.1330  3.6978
12519TIP3   OH259047   0.295   0.491   3.388 -0.2420 -0.1281  0.2912
12519TIP3    H159048   0.360   0.542   3.436 -0.2300 -1.6528  2.0191
12519TIP3    H259049   0.234   0.557   3.353  1.1344  1.1943  0.2852
12520TIP3   OH259050   4.874   6.180   5.334 -0.2807  0.6796  0.0347
12520TIP3    H159051   4.894   6.108   5.274  0.5496  0.1115  0.9518
12520TIP3    H259052   4.890   6.259   5.284  0.6241  0.2202 -0.4234
12521TIP3   OH259053   2.347   5.113  15.519 -0.1662 -0.7250  0.2321
12521TIP3    H159054   2.363   5.027  15.557  0.3856 -1.6622 -1.9917
12521TIP3    H259055   2.429   5.136  15.476 -1.0126 -0.1466 -1.1508
12522TIP3   OH259056   3.419   3.592   2.391  0.0753 -0.2200  0.1713
12522TIP3    H159057   3.408   3.664   2.329 -0.8061  0.1013  0.6826
12522TIP3    H259058   3.501   3.611   2.436  2.0912 -1.7543 -2.5503
12523TIP3   OH259059   3.759   5.149  13.074 -0.5731  0.0871  0.0102
12523TIP3    H159060   3.774   5.190  12.989  0.3136  0.6155  0.4161
12523TIP3    H259061   3.843   5.107  13.096 -1.3940 -1.8819 -0.3369
12524TIP3   OH259062   0.302   5.140   1.001  0.4975  0.4069 -0.2750
12524TIP3    H159063   0.371   5.073   0.999 -0.7530 -0.9490 -0.0118
12524TIP3    H259064   0.320   5.195   0.925  1.0138 -0.8308 -1.0970
12525TIP3   OH259065   1.862   2.879  16.769 -0.5018  0.3610  0.2895
12525TIP3    H159066   1.819   2.796  16.788  1.5890 -0.9298 -0.3186
12525TIP3    H259067   1.822   2.909  16.687  0.2223 -1.2218 -0.7047
12526TIP3   OH259068   4.799   1.812   3.471 -0.5800  0.0998  0.0309
12526TIP3    H159069   4.727   1.754   3.448 -0.7188  0.7942 -1.4179
12526TIP3    H259070   4.762   1.871   3.536 -1.3209  0.3947 -0.6393
12527TIP3   OH259071   4.331   1.439   5.590  0.4913  0.0546 -0.3727
12527TIP3    H159072   4.331   1.344   5.608  0.9004 -0.0368 -0.8311
12527TIP3    H259073   4.329   1.445   5.495  0.0862  0.5163 -0.3343
12528TIP3   OH259074   4.145   4.441   1.175  0.2342 -0.4776  0.0475
12528TIP3    H159075   4.212   4.461   1.110  1.3456  0.0461  1.3105
12528TIP3    H259076   4.189   4.452   1.260 -0.7080 -2.6548  0.9041
12529TIP3   OH259077   1.343   6.379   3.565 -0.0846 -0.3563  0.3899
12529TIP3    H159078   1.340   6.437   3.641  0.4177 -1.4170  1.2299
12529TIP3    H259079   1.397   6.305   3.592  0.1608 -0.7290 -1.0212
12530TIP3   OH259080   5.846   6.761   2.864  0.1522  0.1338  0.0525
12530TIP3    H159081   5.858   6.791   2.954 -0.7538  1.2098 -0.1602
12530TIP3    H259082   5.931   6.725   2.838  0.7675  0.9359  0.9199
12531TIP3   OH259083   3.774   6.418   5.351 -0.1698  0.0593  0.2757
12531TIP3    H159084   3.866   6.402   5.368  0.0404 -1.8957 -2.1100
12531TIP3    H259085   3.770   6.507   5.316  1.5406 -1.0679 -3.3043
12532TIP3   OH259086   0.850   4.090   2.487  0.6969 -0.0619 -0.1373
12532TIP3    H159087   0.810   4.078   2.574  1.8047  0.0597  0.4024
12532TIP3    H259088   0.935   4.048   2.493 -0.7186 -3.7858 -2.4857
12533TIP3   OH259089   0.580   2.605   3.579  0.6664 -0.0432 -0.0542
12533TIP3    H159090   0.551   2.518   3.551 -0.1289  0.4398 -0.7681
12533TIP3    H259091   0.616   2.591   3.667  0.3740 -1.0571 -0.0826
12534TIP3   OH259092   6.483   2.654   2.183 -0.3076 -0.5060  0.3725
12534TIP3    H159093   6.504   2.565   2.210 -0.1684 -0.4320  0.5150
12534TIP3    H259094   6.408   2.679   2.236 -0.1469 -0.4254  0.5660
12535TIP3   OH259095   2.767   5.663  13.491  0.2087 -0.4708 -0.2548
12535TIP3    H159096   2.726   5.747  13.472 -1.0045 -0.4359  2.0343
12535TIP3    H259097   2.853   5.686  13.527  0.2417 -0.2551 -0.4690
12536TIP3   OH259098   4.279   6.093  12.924 -0.0247 -0.1612  0.4913
12536TIP3    H159099   4.356   6.146  12.943  1.0881 -1.1196 -1.1110
12536TIP3    H259100   4.205   6.154  12.932  1.0194  1.1242  0.6632
12537TIP3   OH259101   3.664   4.381   0.531 -0.1157 -0.2237 -0.5875
12537TIP3    H159102   3.701   4.300   0.497  0.6344  0.1939 -0.7745
12537TIP3    H259103   3.718   4.402   0.607  0.2360  0.5494 -1.0395
12538TIP3   OH259104   3.606   2.145   3.590 -0.7378 -0.2400 -0.2402
12538TIP3    H159105   3.590   2.060   3.550  1.5768  0.0443 -1.9705
12538TIP3    H259106   3.575   2.208   3.525 -0.9221  0.2504  0.3165
12539TIP3   OH259107   6.221   1.461   4.279 -0.3150 -0.3476 -0.3351
12539TIP3    H159108   6.188   1.437   4.366  0.1447 -0.6715 -0.2486
12539TIP3    H259109   6.166   1.535   4.253  0.9767  1.2491  1.1905
12540TIP3   OH259110   3.844   4.269  12.556 -0.3322 -0.2098  0.9474
12540TIP3    H159111   3.885   4.245  12.639  0.2677  0.8656  0.9680
12540TIP3    H259112   3.754   4.236  12.564 -0.2499 -0.2240  1.9678
12541TIP3   OH259113   1.255   0.983   5.036  0.0857 -0.3600  0.0489
12541TIP3    H159114   1.191   1.049   5.062 -0.6916 -0.8968 -0.4370
12541TIP3    H259115   1.340   1.021   5.058 -0.2989  1.0696 -0.8127
12542TIP3   OH259116   1.247   1.209  14.865  0.3472  0.0684  0.6444
12542TIP3    H159117   1.229   1.139  14.804 -0.8908  0.3307  0.6936
12542TIP3    H259118   1.262   1.286  14.810  0.7371 -0.0117  0.6303
12543TIP3   OH259119   1.566   1.874   5.042 -0.3802 -0.2118  0.5055
12543TIP3    H159120   1.478   1.847   5.018 -0.4786 -0.6851  1.3282
12543TIP3    H259121   1.562   1.969   5.049 -0.7800 -0.2188  0.3680
12544TIP3   OH259122   0.146   6.582  11.435  0.4346 -0.0314 -0.3079
12544TIP3    H159123   0.149   6.632  11.516 -0.9018  1.2918 -1.0125
12544TIP3    H259124   0.091   6.634  11.377 -1.9596 -2.7882 -0.7726
12545TIP3   OH259125   2.860   3.776   2.342 -0.4142 -0.0564 -0.1487
12545TIP3    H159126   2.874   3.851   2.400 -0.3475 -1.0131  1.1085
12545TIP3    H259127   2.775   3.794   2.301 -1.7440 -0.5403  2.1853
12546TIP3   OH259128   3.296   0.836   3.984 -0.0493 -0.5310 -0.1163
12546TIP3    H159129   3.221   0.894   3.974 -0.6757 -1.0382  1.3510
12546TIP3    H259130   3.296   0.782   3.905 -0.8101 -0.0486 -0.4508
12547TIP3   OH259131   4.110   1.039  12.411 -0.2732 -0.2484  0.3900
12547TIP3    H159132   4.030   1.041  12.464  0.1856 -0.3930  1.1067
12547TIP3    H259133   4.098   0.964  12.353 -0.3548 -0.7184  1.0013
12548TIP3   OH259134   5.807   3.292  13.972 -0.3221  0.1529 -0.1021
12548TIP3    H159135   5.724   3.276  14.016 -0.3912 -1.4609 -0.7474
12548TIP3    H259136   5.833   3.206  13.937  2.3733  0.2403  1.3745
12549TIP3   OH259137   1.906   4.644  13.843 -0.0231  0.2611 -0.2565
12549TIP3    H159138   1.860   4.701  13.781  1.3423  1.2016 -0.4473
12549TIP3    H259139   1.976   4.603  13.791  0.5965  0.3877  0.4586
12550TIP3   OH259140   1.443   2.479  14.897 -0.3116  0.0944  0.4231
12550TIP3    H159141   1.515   2.527  14.857  0.2782 -0.3419  0.9433
12550TIP3    H259142   1.367   2.536  14.886  0.1635  0.6812  0.1087
12551TIP3   OH259143   0.581   2.550   3.113  0.4510 -0.3856  0.0719
12551TIP3    H159144   0.500   2.600   3.123  0.4907 -0.3693  0.3231
12551TIP3    H259145   0.575   2.512   3.026  0.9513  1.0324 -0.6140
12552TIP3   OH259146   2.287   1.229   3.293 -0.9460  0.8643  0.4641
12552TIP3    H159147   2.199   1.204   3.264 -0.2418 -1.2656 -0.0074
12552TIP3    H259148   2.287   1.213   3.387 -1.0864  0.9728  0.4833
12553TIP3   OH259149   3.507   1.923   0.094 -0.6477  0.3152  0.3998
12553TIP3    H159150   3.494   1.882   0.009  0.1894  1.8565 -0.5185
12553TIP3    H259151   3.518   1.850   0.155 -0.3044 -0.8147 -0.9730
12554TIP3   OH259152   3.431   2.191  13.994 -1.2964  0.1159 -0.3447
12554TIP3    H159153   3.525   2.183  13.977 -1.5446 -1.0745 -1.2715
12554TIP3    H259154   3.424   2.265  14.055  0.2291  0.2514 -0.2947
12555TIP3   OH259155   5.005   0.450   0.780  0.1028  0.1603 -0.0813
12555TIP3    H159156   5.057   0.442   0.700 -0.7769  1.3617 -0.8213
12555TIP3    H259157   4.999   0.545   0.795 -0.6757 -0.0120  0.7867
12556TIP3   OH259158   1.474   0.540   6.082 -0.3298  0.2628 -0.1793
12556TIP3    H159159   1.527   0.574   6.154 -1.3138  0.0500  0.6767
12556TIP3    H259160   1.537   0.501   6.022  0.5499  0.8379  0.3430
12557TIP3   OH259161   5.082   2.684  13.453 -0.3026  0.1965 -0.1668
12557TIP3    H159162   5.029   2.610  13.420  1.1649 -0.8440 -0.2664
12557TIP3    H259163   5.111   2.730  13.374 -0.2720  0.2099 -0.1477
12558TIP3   OH259164   4.852   0.100  13.946 -0.3204 -0.1869 -0.1684
12558TIP3    H159165   4.849   0.196  13.941 -2.6520 -0.0622  1.6867
12558TIP3    H259166   4.869   0.072  13.857  0.8234  1.9531 -0.6983
12559TIP3   OH259167   3.482   5.832   5.918 -0.3509 -0.1117  0.3381
12559TIP3    H159168   3.568   5.846   5.958  0.2157  0.3121 -0.9977
12559TIP3    H259169   3.420   5.871   5.980  0.5713  1.2030  0.4710
12560TIP3   OH259170   3.059   3.057  15.557  0.4147 -0.2436  0.0807
12560TIP3    H159171   3.119   3.004  15.609 -0.0268 -0.8198  0.0032
12560TIP3    H259172   3.018   2.996  15.496 -1.8697 -0.3043  1.5673
12561TIP3   OH259173   1.530   2.380   3.986  0.2383 -0.5319  0.0961
12561TIP3    H159174   1.468   2.307   3.986  0.5805 -0.8321 -0.2728
12561TIP3    H259175   1.579   2.370   4.067  0.6482 -1.0417 -0.2017
12562TIP3   OH259176   0.563   5.569   5.817 -0.2828  0.0820 -0.6646
12562TIP3    H159177   0.494   5.597   5.757  0.0507  0.2456 -0.9733
12562TIP3    H259178   0.623   5.518   5.763 -0.6840 -0.9213 -0.1828
12563TIP3   OH259179   3.993   5.524   5.675 -0.0546 -0.0532 -0.3992
12563TIP3    H159180   4.051   5.459   5.714  2.2804  2.3129  0.4147
12563TIP3    H259181   4.028   5.537   5.587  0.3565  0.9996 -0.0957
12564TIP3   OH259182   3.747   2.593  16.262 -0.0957 -0.0157  0.8395
12564TIP3    H159183   3.705   2.517  16.222 -1.4245  0.4639  1.2928
12564TIP3    H259184   3.721   2.667  16.207 -1.8232  0.6348  2.4139
12565TIP3   OH259185   4.521   5.789  11.691 -0.3046  0.2566 -0.4927
12565TIP3    H159186   4.445   5.741  11.722  0.6953 -2.0809 -1.3983
12565TIP3    H259187   4.596   5.743  11.729  0.7282  2.5470  0.4660
12566TIP3   OH259188   3.828   5.792   5.155  0.1394 -0.3330  0.0449
12566TIP3    H159189   3.833   5.770   5.062 -1.1568 -2.8674  0.4732
12566TIP3    H259190   3.761   5.859   5.161  1.3875  1.0562 -0.9735
12567TIP3   OH259191   1.760   4.911   5.256 -0.1316 -0.1720 -0.7198
12567TIP3    H159192   1.762   4.958   5.173  0.0234  1.3280  0.0974
12567TIP3    H259193   1.692   4.956   5.307 -1.5404 -2.2209 -0.6507
12568TIP3   OH259194   0.962   6.611  11.853  0.1596 -0.2356  0.5541
12568TIP3    H159195   0.905   6.580  11.783  1.3972  0.2892 -0.7621
12568TIP3    H259196   0.953   6.707  11.850  0.3396 -0.2051  0.9919
12569TIP3   OH259197   4.352   4.369  12.607 -0.2370  0.0614  0.4092
12569TIP3    H159198   4.339   4.349  12.515  0.3220  0.9949  0.1083
12569TIP3    H259199   4.354   4.465  12.611  1.3171  0.0336  1.1509
12570TIP3   OH259200   0.370   4.433   3.363 -0.2164 -0.1295 -0.7888
12570TIP3    H159201   0.393   4.519   3.330 -2.2740  0.3824 -1.0232
12570TIP3    H259202   0.342   4.448   3.453 -0.3568 -0.5736 -0.7552
12571TIP3   OH259203   0.239   2.615   0.858  0.1322 -0.1699  0.1242
12571TIP3    H159204   0.159   2.614   0.911  0.8588  1.1234  1.3044
12571TIP3    H259205   0.263   2.523   0.849 -0.6609 -0.4814  1.0540
12572TIP3   OH259206   2.569   6.707  11.676 -0.6402 -0.5436  0.5815
12572TIP3    H159207   2.569   6.664  11.591  0.2583  0.6341 -0.0411
12572TIP3    H259208   2.622   6.785  11.664 -2.0239  0.6511  1.7239
12573TIP3   OH259209   0.714   2.672  11.458 -0.5639 -0.2791  0.2101
12573TIP3    H159210   0.648   2.646  11.522 -0.1172  0.9503  1.2156
12573TIP3    H259211   0.739   2.590  11.415 -3.2074 -0.7075 -0.7083
12574TIP3   OH259212   2.537   2.594  14.222 -0.0276  0.5787  0.1060
12574TIP3    H159213   2.527   2.589  14.127  0.2697 -0.9795  0.1380
12574TIP3    H259214   2.459   2.640  14.252 -1.1568 -0.7296 -0.7237
12575TIP3   OH259215   4.673   0.325  13.924 -0.1836 -0.1431  0.0930
12575TIP3    H159216   4.613   0.253  13.908  0.5009 -0.9435  0.9964
12575TIP3    H259217   4.619   0.403  13.919 -0.8271 -0.6644 -1.4903
12576TIP3   OH259218   5.032   6.524  12.168  0.0172  0.4145  0.5854
12576TIP3    H159219   5.021   6.572  12.086 -1.3825 -0.4226  0.2545
12576TIP3    H259220   4.951   6.541  12.217  0.1305 -0.4159  1.0888
12577TIP3   OH259221   3.659   4.570   3.664 -0.3429  0.4028 -0.2929
12577TIP3    H159222   3.720   4.617   3.608 -1.6291  0.8280 -1.4095
12577TIP3    H259223   3.640   4.630   3.736  0.1342  0.4876 -0.2397
12578TIP3   OH259224   1.184   2.681   0.852 -0.2882  0.7298  0.1964
12578TIP3    H159225   1.203   2.753   0.791 -0.2523 -0.0848 -0.7759
12578TIP3    H259226   1.144   2.613   0.798  0.1302 -0.1842  1.0018
12579TIP3   OH259227   3.006   3.542  15.631  0.3928  0.1898 -0.5304
12579TIP3    H159228   3.024   3.462  15.680 -0.0495 -0.0762 -0.7966
12579TIP3    H259229   3.092   3.582  15.619  0.8159 -0.9887 -1.6670
12580TIP3   OH259230   4.102   2.205  13.170  0.6791  0.4195 -0.2835
12580TIP3    H159231   4.169   2.261  13.208  0.7317  0.0961  0.1116
12580TIP3    H259232   4.146   2.120  13.160  0.5133  0.3717 -0.5957
12581TIP3   OH259233   0.756   0.264   0.245 -0.1341  0.0134 -0.1409
12581TIP3    H159234   0.815   0.211   0.191 -1.0451 -0.4086 -0.7380
12581TIP3    H259235   0.808   0.342   0.266  0.9250 -0.7091  0.0396
12582TIP3   OH259236   2.729   2.446   5.693  0.1510 -0.7731 -0.0421
12582TIP3    H159237   2.762   2.441   5.782 -0.2681 -0.9328  0.1088
12582TIP3    H259238   2.797   2.492   5.644 -0.0065  0.1277  0.5519
12583TIP3   OH259239   6.662   2.502  14.049  0.3451  0.1259 -0.2891
12583TIP3    H159240   6.721   2.497  14.125  0.9115 -2.9790 -0.8046
12583TIP3    H259241   6.574   2.502  14.087  0.6257  0.0653  0.3796
12584TIP3   OH259242   2.536   5.590   2.212  0.1429  0.4121 -0.0626
12584TIP3    H159243   2.545   5.660   2.148  1.2995  0.7499  0.4563
12584TIP3    H259244   2.551   5.632   2.296  0.4490 -0.3836  0.2902
12585TIP3   OH259245   0.794   6.102   2.298  0.0956 -0.1007  0.2498
12585TIP3    H159246   0.780   6.020   2.250 -0.4788 -0.6059  1.2426
12585TIP3    H259247   0.763   6.170   2.238  2.8527 -0.3146 -1.6253
12586TIP3   OH259248   5.409   0.286   5.809  0.0972  0.0848 -0.2984
12586TIP3    H159249   5.391   0.194   5.830 -0.0527 -0.2363 -1.6920
12586TIP3    H259250   5.326   0.319   5.774 -0.5914  1.4902  2.3833
12587TIP3   OH259251   6.187   5.300  14.860 -0.3340 -0.1408  0.3815
12587TIP3    H159252   6.185   5.338  14.947 -1.3342 -0.3244  0.4551
12587TIP3    H259253   6.138   5.218  14.868  1.4363 -1.2748  0.1376
12588TIP3   OH259254   6.536   3.617  13.447  0.3322  0.3100 -0.1672
12588TIP3    H159255   6.621   3.651  13.418  0.8029 -0.6172  0.0905
12588TIP3    H259256   6.552   3.524  13.465 -1.0092 -0.1570 -1.2119
12589TIP3   OH259257   4.225   4.054   5.975  0.3713 -0.2939 -0.2052
12589TIP3    H159258   4.215   4.011   6.060 -0.4969  1.7392  0.7961
12589TIP3    H259259   4.175   4.001   5.914 -0.1356 -1.0358  0.8393
12590TIP3   OH259260   4.426   1.702  12.915  0.4326 -0.2291  0.0274
12590TIP3    H159261   4.490   1.706  12.844  0.1553 -1.0723 -0.2805
12590TIP3    H259262   4.404   1.794  12.932  0.4622 -0.0156 -1.0114
12591TIP3   OH259263   3.303   6.215  14.678 -0.0250  0.3425 -0.1337
12591TIP3    H159264   3.312   6.310  14.679 -0.8425  0.5109 -2.4092
12591TIP3    H259265   3.360   6.186  14.606  0.0427 -0.8601  0.3803
12592TIP3   OH259266   6.573   4.133   0.539 -0.1877 -0.1280 -0.2203
12592TIP3    H159267   6.569   4.108   0.446 -0.5718  1.7558 -0.7503
12592TIP3    H259268   6.484   4.160   0.560  0.3484  1.5040  0.0688
12593TIP3   OH259269   1.489   0.741  13.481 -0.0226  0.2061  0.4486
12593TIP3    H159270   1.514   0.685  13.554  1.3778 -1.2056 -1.0465
12593TIP3    H259271   1.439   0.684  13.423  0.1977  0.8985 -0.4408
12594TIP3   OH259272   3.310   5.916  10.392  0.0847  0.3871 -0.5910
12594TIP3    H159273   3.293   5.881  10.480 -1.2821  1.9012 -0.1951
12594TIP3    H259274   3.405   5.925  10.387  0.2621 -0.8526  0.2737
12595TIP3   OH259275   0.990   3.961  17.142 -0.2294 -1.0821 -0.4826
12595TIP3    H159276   0.908   3.956  17.191 -1.6230 -0.6470 -2.6776
12595TIP3    H259277   1.048   3.900  17.188 -1.1098 -0.0422  2.2346
12596TIP3   OH259278   1.420   2.180  17.096  0.1206  0.0965 -0.8312
12596TIP3    H159279   1.407   2.191  17.001  0.9681  0.2450 -0.9339
12596TIP3    H259280   1.468   2.098  17.104  1.5370  0.9113 -0.6591
12597TIP3   OH259281   0.576   6.732  17.184  0.2953 -0.3365  0.0856
12597TIP3    H159282   0.551   6.785  17.260  0.6159  0.5749 -0.4228
12597TIP3    H259283   0.619   6.794  17.126  1.3478 -1.3229 -0.2170
12598TIP3   OH259284   0.473   3.371   5.028  0.4624 -0.1277 -0.2837
12598TIP3    H159285   0.409   3.311   5.066 -0.1943 -1.1709 -2.8811
12598TIP3    H259286   0.555   3.351   5.075 -0.3731 -1.0387  0.8450
12599TIP3   OH259287   3.531   4.761   1.598 -0.0383 -0.4590 -0.0568
12599TIP3    H159288   3.557   4.836   1.544 -4.1528  0.4022 -1.1476
12599TIP3    H259289   3.564   4.685   1.550  1.1858  0.4859 -0.7824
12600TIP3   OH259290   1.081   4.925   0.669 -0.9016  0.0307 -0.7332
12600TIP3    H159291   1.148   4.932   0.600 -0.7187 -0.5571 -0.6209
12600TIP3    H259292   1.084   4.833   0.696 -0.5338  0.3827  0.4925
12601TIP3   OH259293   5.554   3.508  16.948 -0.1623  0.0750  0.3574
12601TIP3    H159294   5.630   3.522  17.004 -0.3793 -0.7339  0.8780
12601TIP3    H259295   5.502   3.588  16.956  1.2088  1.1754 -0.9827
12602TIP3   OH259296   1.264   3.748   0.252  0.3159  0.2378  1.0336
12602TIP3    H159297   1.188   3.699   0.283 -0.3853 -0.2238 -1.2364
12602TIP3    H259298   1.335   3.684   0.251 -0.2331 -0.3960 -0.4744
12603TIP3   OH259299   1.793   0.418  16.193 -0.0491 -0.3376  0.7626
12603TIP3    H159300   1.888   0.420  16.180 -0.0954 -0.1543  0.4595
12603TIP3    H259301   1.764   0.342  16.144 -0.5422  1.7095 -2.3667
12604TIP3   OH259302   5.582   6.730   0.654 -0.5713  0.4936 -0.4063
12604TIP3    H159303   5.556   6.685   0.735 -2.1267  0.3834 -0.9378
12604TIP3    H259304   5.669   6.694   0.634 -0.8580 -0.6860  0.3385
12605TIP3   OH259305   1.100   0.665   1.820  0.2115  0.7565  0.2148
12605TIP3    H159306   1.169   0.696   1.762 -0.5803  1.4125 -0.4090
12605TIP3    H259307   1.038   0.620   1.762 -0.8475  1.8614  0.4601
12606TIP3   OH259308   0.879   5.976   5.681  0.2782 -1.3561  0.1246
12606TIP3    H159309   0.910   5.998   5.593 -1.5513 -1.8650 -0.6980
12606TIP3    H259310   0.804   6.033   5.695 -1.3137 -3.3016  0.0781
12607TIP3   OH259311   4.199   0.463   3.384  0.5146 -0.4243 -0.4133
12607TIP3    H159312   4.224   0.471   3.292  0.2677  0.6613 -0.4005
12607TIP3    H259313   4.151   0.543   3.403 -1.0160 -1.4365  0.1946
12608TIP3   OH259314   4.392   1.569  11.807 -0.5302  0.2647  0.3585
12608TIP3    H159315   4.301   1.553  11.784 -0.1954  0.8694 -1.5556
12608TIP3    H259316   4.432   1.600  11.726  1.6500 -1.0870  0.8353
12609TIP3   OH259317   5.598   3.321  12.332 -0.1962  0.3470 -0.1844
12609TIP3    H159318   5.548   3.305  12.252 -1.9874 -0.0278  0.9590
12609TIP3    H259319   5.545   3.283  12.402  1.6054  0.1153  1.1422
12610TIP3   OH259320   5.009   5.483  16.145 -1.0278 -0.0468  0.4176
12610TIP3    H159321   5.036   5.539  16.218 -1.6014 -1.7671  2.0290
12610TIP3    H259322   5.053   5.399  16.161 -2.4167 -0.9534 -0.3182
12611TIP3   OH259323   5.901   1.235   5.888 -0.0493 -0.1416 -0.2907
12611TIP3    H159324   5.872   1.145   5.907 -2.0914  0.6816  0.8347
12611TIP3    H259325   5.961   1.256   5.959  0.4236 -0.6018 -0.5490
12612TIP3   OH259326   5.058   0.892   3.446  0.0568 -0.3651 -0.2069
12612TIP3    H159327   5.122   0.930   3.386  0.0879  0.1474  0.1389
12612TIP3    H259328   5.041   0.805   3.411  1.7489 -0.9351  0.2843
12613TIP3   OH259329   1.688   5.326   4.641  0.2089  0.2870  0.7772
12613TIP3    H159330   1.613   5.339   4.699  0.4312  1.1805  0.8694
12613TIP3    H259331   1.753   5.390   4.671  1.1082 -0.6330  0.8548
12614TIP3   OH259332   0.380   1.933   0.522 -0.5753  0.0634  1.0859
12614TIP3    H159333   0.375   2.003   0.457 -2.9704  0.8000  1.9646
12614TIP3    H259334   0.290   1.904   0.533  0.2272 -2.5970  1.4171
12615TIP3   OH259335   6.271   6.726  16.525 -0.2823 -0.2271  0.1802
12615TIP3    H159336   6.201   6.777  16.485 -0.4694 -1.2123 -0.8097
12615TIP3    H259337   6.315   6.683  16.451  0.7111 -0.4396  0.8708
12616TIP3   OH259338   4.079   5.781  16.494  0.6921  0.7457  0.5058
12616TIP3    H159339   4.172   5.792  16.512  1.0887  0.9275 -1.5037
12616TIP3    H259340   4.075   5.746  16.405 -1.1485  0.4097  0.6826
12617TIP3   OH259341   4.668   0.356   5.699 -0.0705 -0.5435 -0.2483
12617TIP3    H159342   4.601   0.403   5.648 -0.1302 -1.0012 -0.6024
12617TIP3    H259343   4.744   0.414   5.697 -0.6495  0.2725  0.6987
12618TIP3   OH259344   1.948   4.643  12.191  0.5666 -0.3709  0.3740
12618TIP3    H159345   1.898   4.638  12.110 -0.0874 -1.2496  0.8190
12618TIP3    H259346   1.900   4.707  12.244 -0.6949 -1.9239  1.1823
12619TIP3   OH259347   1.054   5.093  13.325  0.1865  0.6161  0.1944
12619TIP3    H159348   1.118   5.025  13.302  0.6068  1.1633 -0.2862
12619TIP3    H259349   1.089   5.173  13.286 -0.1259  1.1842  1.0377
12620TIP3   OH259350   0.225   1.525  13.131  0.0570  0.4987  0.3254
12620TIP3    H159351   0.175   1.542  13.210 -1.1331 -1.0345 -0.0510
12620TIP3    H259352   0.277   1.447  13.151  1.1808  1.1907  0.2006
12621TIP3   OH259353   4.026   1.698   5.146 -0.1187 -0.3330 -0.1433
12621TIP3    H159354   4.048   1.791   5.151 -1.9888  0.2190 -1.1594
12621TIP3    H259355   4.027   1.668   5.237  2.1904  0.2102  0.0595
12622TIP3   OH259356   5.206   4.326  12.404  0.3590 -0.1955  0.2469
12622TIP3    H159357   5.208   4.340  12.498 -1.0169  0.3174  0.2174
12622TIP3    H259358   5.118   4.352  12.377  0.8210 -0.0468 -1.2299
12623TIP3   OH259359   5.427   5.586   1.313  0.0354  0.2732 -0.2160
12623TIP3    H159360   5.441   5.624   1.400 -0.5405  0.0153 -0.0043
12623TIP3    H259361   5.452   5.655   1.252  1.5718  0.0700  0.1369
12624TIP3   OH259362   1.193   4.339   3.000  0.1439  0.3220 -0.1463
12624TIP3    H159363   1.238   4.343   2.916  0.1700  1.2989 -0.0984
12624TIP3    H259364   1.113   4.389   2.987  1.2813  2.6085  1.0737
12625TIP3   OH259365   5.337   0.188   1.293 -0.1887 -0.0909  0.3582
12625TIP3    H159366   5.392   0.267   1.286 -1.2644  0.5610 -1.8690
12625TIP3    H259367   5.273   0.208   1.360 -0.5080  1.0134 -0.2538
12626TIP3   OH259368   2.819   0.712  13.012 -0.2828  0.6121  0.3819
12626TIP3    H159369   2.851   0.621  13.008  0.9005  0.9614  1.3264
12626TIP3    H259370   2.755   0.711  13.083 -1.7221  0.1317 -0.8590
12627TIP3   OH259371   1.209   4.906   3.441 -0.0711 -0.2707 -0.0481
12627TIP3    H159372   1.170   4.830   3.398 -1.4124  1.4885 -2.1641
12627TIP3    H259373   1.180   4.899   3.532 -1.5828 -1.4158 -0.5726
12628TIP3   OH259374   6.439   4.507  12.948 -0.1891 -0.2394 -0.4343
12628TIP3    H159375   6.436   4.603  12.955  0.2126 -0.1661 -1.1295
12628TIP3    H259376   6.512   4.481  13.004 -0.1069 -0.1039 -0.4768
12629TIP3   OH259377   5.991   1.599   0.346 -0.3183 -0.3440 -0.0962
12629TIP3    H159378   5.998   1.504   0.359  0.9582 -0.3425 -0.6333
12629TIP3    H259379   6.030   1.614   0.260 -0.5137  0.6720 -0.0160
12630TIP3   OH259380   3.144   6.807   0.739 -0.4336  0.2801 -0.5073
12630TIP3    H159381   3.224   6.794   0.791 -0.9804  1.6685  0.7664
12630TIP3    H259382   3.169   6.870   0.672 -0.5303  1.0371  0.1480
12631TIP3   OH259383   4.690   4.325   2.061  0.4398  0.1840 -0.5195
12631TIP3    H159384   4.616   4.369   2.018  0.5808  0.5983 -0.3481
12631TIP3    H259385   4.740   4.397   2.100  1.7868  0.0591 -1.9237
12632TIP3   OH259386   0.040   2.577   3.400  0.1020 -0.8587 -0.3341
12632TIP3    H159387   0.032   2.591   3.494 -3.5652 -0.4695 -0.5379
12632TIP3    H259388   0.015   2.486   3.386  1.4298 -1.1607 -0.9114
12633TIP3   OH259389   6.240   2.597  11.626 -0.1116  0.1459  0.1301
12633TIP3    H159390   6.276   2.511  11.608 -0.7782 -0.2547  0.6541
12633TIP3    H259391   6.162   2.603  11.570 -0.4858  0.1008  0.6343
12634TIP3   OH259392   1.408   4.707   6.459  0.1188  0.4284  0.1080
12634TIP3    H159393   1.321   4.667   6.467  0.5025 -0.4431  0.0219
12634TIP3    H259394   1.455   4.650   6.398  1.0729  0.3167  0.9167
12635TIP3   OH259395   0.663   1.279  17.139 -0.1728 -0.5126  0.2462
12635TIP3    H159396   0.647   1.344  17.208 -0.3856  0.1816 -0.4457
12635TIP3    H259397   0.675   1.197  17.186 -0.1212 -0.0120  1.1260
12636TIP3   OH259398   3.512   5.373  16.434  0.3697 -0.7872 -0.0720
12636TIP3    H159399   3.487   5.382  16.342 -0.4354 -1.2850  0.0846
12636TIP3    H259400   3.564   5.293  16.438  0.2385 -0.8736 -0.0683
12637TIP3   OH259401   0.580   6.289  16.793 -0.3080  0.4113  0.1436
12637TIP3    H159402   0.593   6.372  16.747 -1.4411  0.0776 -0.8496
12637TIP3    H259403   0.493   6.299  16.833 -0.0517  0.0453  0.7906
12638TIP3   OH259404   3.670   0.066   1.958  0.0974  0.5044 -0.2687
12638TIP3    H159405   3.727   0.035   2.029 -0.7245 -1.2081 -0.2861
12638TIP3    H259406   3.727   0.074   1.882  0.6162  0.3944  0.1080
12639TIP3   OH259407   0.055   5.870  12.346 -0.6934 -0.2542  0.1130
12639TIP3    H159408   0.046   5.904  12.257  1.6924  0.3805  0.0358
12639TIP3    H259409   0.114   5.795  12.337 -1.3875 -0.9302  1.0282
12640TIP3   OH259410   6.521   5.336  12.911  0.1040 -0.4296 -0.4809
12640TIP3    H159411   6.528   5.322  13.005  1.1591  1.3679 -0.2407
12640TIP3    H259412   6.487   5.425  12.902  0.3071 -0.4570 -1.7856
12641TIP3   OH259413   0.023   5.132  13.864 -0.2998 -0.0899 -0.4222
12641TIP3    H159414  -0.035   5.174  13.927 -0.9728 -1.0831 -0.3490
12641TIP3    H259415  -0.033   5.068  13.819  0.5561 -0.5314 -0.8811
12642TIP3   OH259416   2.191   2.840   5.652  0.5905 -0.8229  0.2207
12642TIP3    H159417   2.266   2.897   5.671 -0.1010 -0.2532  1.3629
12642TIP3    H259418   2.156   2.818   5.739 -0.9746 -0.5178 -0.3067
12643TIP3   OH259419   3.725   6.109  11.845 -0.0703 -0.3036 -0.8891
12643TIP3    H159420   3.644   6.110  11.793 -0.6644 -2.4259 -0.1376
12643TIP3    H259421   3.774   6.034  11.811  1.4487  0.7408 -1.0878
12644TIP3   OH259422   1.992   1.648  13.062 -0.0396 -0.1041  0.5975
12644TIP3    H159423   2.069   1.703  13.051  0.0193 -0.3434 -0.2799
12644TIP3    H259424   1.935   1.697  13.121  0.6636  0.1941  1.0450
12645TIP3   OH259425   1.366   3.378   2.460  0.5508 -0.2585  0.9761
12645TIP3    H159426   1.272   3.364   2.453  0.4259  0.0294  1.9215
12645TIP3    H259427   1.396   3.312   2.522  1.0371 -0.5993  0.3848
12646TIP3   OH259428   3.821   4.947  13.258 -0.1845 -0.4453 -0.4299
12646TIP3    H159429   3.727   4.927  13.258 -0.5219  1.0073 -1.5282
12646TIP3    H259430   3.863   4.865  13.232 -1.1052 -1.1806  0.2892
12647TIP3   OH259431   6.602   6.184  15.900 -0.4780  0.3285  0.0291
12647TIP3    H159432   6.535   6.172  15.967 -0.6421 -0.9055 -0.3429
12647TIP3    H259433   6.586   6.273  15.867 -1.8936  0.0863 -0.0157
12648TIP3   OH259434   0.655   6.458  14.254 -0.2254 -0.1947 -0.3785
12648TIP3    H159435   0.661   6.487  14.346  0.5960  0.1499 -0.5255
12648TIP3    H259436   0.579   6.401  14.252  0.4107 -1.1384  0.7849
12649TIP3   OH259437   4.912   3.360   6.628 -0.2761  0.1871 -0.1184
12649TIP3    H159438   4.951   3.303   6.562 -0.8040  1.6063 -1.7409
12649TIP3    H259439   4.976   3.361   6.699  0.3413 -1.3541 -0.6051
12650TIP3   OH259440   3.720   6.170  13.919  0.0394 -0.2494  0.4843
12650TIP3    H159441   3.633   6.203  13.898  0.0243 -1.0879 -0.9753
12650TIP3    H259442   3.744   6.118  13.842  2.3695  1.0202  0.2891
12651TIP3   OH259443   0.017   2.673  15.037 -0.1278  0.4329 -0.0715
12651TIP3    H159444   0.040   2.732  14.965 -0.0425  0.6118  0.1022
12651TIP3    H259445  -0.036   2.605  14.996  0.0685  0.4384 -0.3358
12652TIP3   OH259446   2.451   3.925  17.136  0.4126 -0.2095  0.4177
12652TIP3    H159447   2.397   3.866  17.188  0.2619 -0.4320  0.0163
12652TIP3    H259448   2.422   3.911  17.046  1.0987 -0.2996  0.2007
12653TIP3   OH259449   4.483   5.041  14.583 -0.2775 -0.0457  0.3540
12653TIP3    H159450   4.505   5.126  14.619 -1.2183 -0.1983  1.3555
12653TIP3    H259451   4.400   5.055  14.537  0.6383  0.0284 -1.3450
12654TIP3   OH259452   1.221   4.874  12.629  0.1254  1.2473  0.3741
12654TIP3    H159453   1.219   4.804  12.693  1.4067  0.0878 -0.7840
12654TIP3    H259454   1.267   4.946  12.673  1.8486  0.1329  0.4960
12655TIP3   OH259455   2.220   3.289  13.332 -0.6803 -0.1388  0.1748
12655TIP3    H159456   2.148   3.289  13.268 -0.4167 -0.1175 -0.1243
12655TIP3    H259457   2.297   3.315  13.281 -0.6945  1.1104  0.7532
12656TIP3   OH259458   6.537   6.120  11.675  0.1515 -0.3675 -0.2985
12656TIP3    H159459   6.513   6.048  11.734  1.7010 -0.6310  0.0463
12656TIP3    H259460   6.593   6.177  11.728 -1.1525  1.2211 -0.5192
12657TIP3   OH259461   3.343   1.464   3.608  0.5954  0.0327  0.1471
12657TIP3    H159462   3.323   1.376   3.640  0.3375  0.3003  0.7446
12657TIP3    H259463   3.258   1.507   3.602  0.6089 -0.1003 -1.2065
12658TIP3   OH259464   3.671   2.136   2.095 -0.1904 -0.2633  0.4089
12658TIP3    H159465   3.654   2.153   2.187 -1.9461 -1.7776  0.4232
12658TIP3    H259466   3.740   2.070   2.095  0.3623  0.3051  0.5964
12659TIP3   OH259467   1.627   2.142  11.292  0.3773  0.0833 -0.5928
12659TIP3    H159468   1.721   2.153  11.275  0.2553  2.5974 -0.0025
12659TIP3    H259469   1.585   2.207  11.237 -1.0421 -0.7920 -0.6087
12660TIP3   OH259470   3.601   2.477   0.986 -0.0003 -1.0984 -0.3480
12660TIP3    H159471   3.691   2.477   1.018  0.1491 -1.7946 -0.7518
12660TIP3    H259472   3.583   2.568   0.963  1.1344 -1.1976 -1.7342
12661TIP3   OH259473   6.230   4.137   5.362  0.8971  0.0901  0.4014
12661TIP3    H159474   6.228   4.069   5.429  1.6495 -0.4146 -0.0776
12661TIP3    H259475   6.138   4.149   5.338  0.6050  0.2968  1.5263
12662TIP3   OH259476   1.092   1.059   1.991  0.2788  0.2007 -0.0282
12662TIP3    H159477   1.015   1.027   1.944 -1.0673  2.8729  0.1676
12662TIP3    H259478   1.147   1.097   1.923 -0.5615  1.9254  0.1773
12663TIP3   OH259479   1.409   1.904   0.800  0.1381  0.3887 -0.0569
12663TIP3    H159480   1.499   1.905   0.766  0.9270 -1.1110  1.8137
12663TIP3    H259481   1.358   1.866   0.729  1.3820 -0.8196 -0.3537
12664TIP3   OH259482   4.999   1.385  15.986 -0.4036 -0.0281  0.2654
12664TIP3    H159483   5.006   1.387  16.081  0.9709 -0.5755  0.1935
12664TIP3    H259484   5.078   1.429  15.955  0.0535 -1.3903 -0.6192
12665TIP3   OH259485   6.407   4.181  13.174 -0.2415  0.6158  0.0986
12665TIP3    H159486   6.434   4.089  13.174 -0.3047  0.5546  1.8918
12665TIP3    H259487   6.325   4.182  13.124 -0.1036 -0.2630 -0.1638
12666TIP3   OH259488   0.787   2.831   5.990  0.1204 -0.0691  0.1872
12666TIP3    H159489   0.754   2.757   6.041 -1.2359  0.8348  0.6673
12666TIP3    H259490   0.849   2.875   6.047  1.3522 -1.1080 -0.2950
12667TIP3   OH259491   6.368   3.837   6.025  0.1738 -0.2208 -0.5140
12667TIP3    H159492   6.300   3.865   5.964 -1.3221  0.8274  1.5281
12667TIP3    H259493   6.444   3.820   5.969 -1.8090 -1.8655 -2.9573
12668TIP3   OH259494   0.998   5.469   5.474  0.5580 -0.3914  0.0563
12668TIP3    H159495   1.089   5.452   5.450  0.4776  0.2797 -0.7512
12668TIP3    H259496   0.981   5.557   5.442 -0.5890 -0.7624 -0.3967
12669TIP3   OH259497   1.775   4.257   1.128  0.1639 -0.0900  0.2130
12669TIP3    H159498   1.862   4.293   1.142  1.3031 -1.6815 -2.2370
12669TIP3    H259499   1.719   4.334   1.116  1.9690  0.9874 -1.9745
12670TIP3   OH259500   4.069   6.413  15.080  0.3840  0.3549  0.0431
12670TIP3    H159501   4.123   6.409  15.002 -0.5044 -0.0457 -0.5639
12670TIP3    H259502   4.080   6.327  15.121  1.3896  0.8016  0.7427
12671TIP3   OH259503   1.479   0.242  16.591  0.0318 -0.4140 -0.2105
12671TIP3    H159504   1.514   0.330  16.582 -1.3975  0.3901  1.4087
12671TIP3    H259505   1.422   0.231  16.516 -0.9691  0.6752  0.3575
12672TIP3   OH259506   2.210   0.837   5.788  0.2514 -0.2158  0.8831
12672TIP3    H159507   2.247   0.874   5.868  0.9849  0.4274  0.2623
12672TIP3    H259508   2.216   0.742   5.800  1.4170 -0.1201  1.1186
12673TIP3   OH259509   5.749   3.035  12.297  0.2700 -0.7018  0.4460
12673TIP3    H159510   5.831   3.081  12.280  0.6498 -0.9022  1.6441
12673TIP3    H259511   5.682   3.102  12.289  0.4003 -0.7334 -1.5723
12674TIP3   OH259512   2.349   6.537  12.151 -0.3751 -0.1194  0.4651
12674TIP3    H159513   2.381   6.607  12.094 -1.6061  0.5982  0.6174
12674TIP3    H259514   2.272   6.575  12.195 -1.8526 -1.9670 -0.4015
12675TIP3   OH259515   3.752   1.775   1.054  0.0154 -0.1410  0.3433
12675TIP3    H159516   3.764   1.865   1.084  0.4852 -0.6752  1.8053
12675TIP3    H259517   3.822   1.762   0.990  0.7223  0.1493  1.0449
12676TIP3   OH259518   5.160   3.778  17.210 -0.6317 -0.4328  0.3216
12676TIP3    H159519   5.225   3.842  17.238  0.4837 -2.0426  1.5855
12676TIP3    H259520   5.096   3.777  17.281 -1.1466 -0.0634 -0.1315
12677TIP3   OH259521   3.730   2.462   3.343 -0.4523  0.4803 -0.1929
12677TIP3    H159522   3.754   2.421   3.426 -1.6192 -2.0271 -0.9820
12677TIP3    H259523   3.793   2.533   3.332 -0.0503  0.6666  2.6314
12678TIP3   OH259524   2.213   5.009  15.846 -0.2294  0.4969  0.1216
12678TIP3    H159525   2.232   5.098  15.817 -0.8337 -0.1341 -2.4966
12678TIP3    H259526   2.119   5.008  15.863 -0.7155 -0.1629 -2.2575
12679TIP3   OH259527   4.682   6.088   1.194 -0.2253  0.1818 -0.3172
12679TIP3    H159528   4.725   6.017   1.148  0.6462 -0.8023  1.8586
12679TIP3    H259529   4.589   6.079   1.172  0.0371 -0.8460 -1.0545
12680TIP3   OH259530   3.287   5.341   2.652  0.1026 -0.1031  0.1793
12680TIP3    H159531   3.293   5.388   2.569  2.6555 -0.5108  0.0434
12680TIP3    H259532   3.355   5.379   2.707 -1.1771 -0.2026  1.9402
12681TIP3   OH259533   2.554   6.582   4.678  0.3293  0.0003 -0.0760
12681TIP3    H159534   2.647   6.602   4.682  0.7193 -1.9078  1.8736
12681TIP3    H259535   2.550   6.486   4.677 -1.6168  0.0441 -0.8396
12682TIP3   OH259536   2.876   6.466  12.272 -0.4469 -0.1272 -0.2845
12682TIP3    H159537   2.786   6.452  12.243 -0.3566 -2.7609  0.4478
12682TIP3    H259538   2.929   6.415  12.211  0.2921 -0.6444  0.7584
12683TIP3   OH259539   3.890   5.130   2.788 -0.2938 -0.1151  0.1321
12683TIP3    H159540   3.863   5.067   2.855  1.1237 -2.9709 -1.7377
12683TIP3    H259541   3.825   5.120   2.718 -0.6779  1.4021  0.2383
12684TIP3   OH259542   6.301   5.211  12.824  0.5753  0.8248 -0.3454
12684TIP3    H159543   6.242   5.239  12.893 -0.4709  1.7179 -1.5608
12684TIP3    H259544   6.385   5.250  12.847  1.2428 -1.7269  2.2505
12685TIP3   OH259545   4.929   3.234  16.160 -0.0104  0.5521 -0.3108
12685TIP3    H159546   4.954   3.278  16.079  1.9830 -1.6715 -1.0318
12685TIP3    H259547   5.005   3.244  16.217  0.3049 -1.3786 -0.3103
12686TIP3   OH259548   6.216   4.722   4.420 -0.6014 -0.0811  0.1951
12686TIP3    H159549   6.232   4.816   4.419 -3.5220  0.5312  0.0451
12686TIP3    H259550   6.255   4.689   4.339 -1.5017  1.4504 -0.9122
12687TIP3   OH259551   4.199   4.216   3.492  0.3848 -0.8568 -0.2200
12687TIP3    H159552   4.218   4.286   3.430  1.8843 -0.3525  0.7670
12687TIP3    H259553   4.247   4.240   3.571 -3.6900  0.1136  2.2802
12688TIP3   OH259554   4.356   2.886  13.459 -0.2710  0.7796 -0.0100
12688TIP3    H159555   4.276   2.936  13.475 -0.2266  0.8184  0.0921
12688TIP3    H259556   4.362   2.881  13.363 -1.1833 -0.4986 -0.0238
12689TIP3   OH259557   0.306   1.856   1.429  0.1829  0.8185 -0.1524
12689TIP3    H159558   0.235   1.906   1.389  0.3899  2.2857  1.2090
12689TIP3    H259559   0.269   1.825   1.512  0.8523  0.8966  0.1808
12690TIP3   OH259560   6.468   2.730  11.666 -0.5430  0.0864  0.1169
12690TIP3    H159561   6.419   2.806  11.633 -0.7478 -0.4803 -0.9550
12690TIP3    H259562   6.400   2.669  11.693 -0.5716 -1.2364 -2.5752
12691TIP3   OH259563   4.206   0.164  12.423 -0.6800 -0.3197 -0.4321
12691TIP3    H159564   4.275   0.098  12.433  1.6868  1.7716 -1.7948
12691TIP3    H259565   4.182   0.188  12.512  0.1087 -1.3162  0.0668
12692TIP3   OH259566   3.158   4.850   2.697 -0.1876  0.6136  0.3979
12692TIP3    H159567   3.119   4.933   2.723 -2.4617 -0.9706  2.5379
12692TIP3    H259568   3.084   4.791   2.687  1.3929 -1.3541 -0.3482
12693TIP3   OH259569   4.764   2.501  16.038  0.2134  0.0505 -0.3967
12693TIP3    H159570   4.759   2.597  16.033 -0.2101  0.1388  1.0467
12693TIP3    H259571   4.819   2.484  16.114  0.2439 -0.8564 -0.6066
12694TIP3   OH259572   6.806   3.367   0.776  0.1792 -0.0340  0.3189
12694TIP3    H159573   6.762   3.334   0.698  0.1648  1.2649 -0.2413
12694TIP3    H259574   6.897   3.379   0.749  0.8934 -2.3956  1.3793
12695TIP3   OH259575   3.459   4.718  11.020  0.1650  0.1376 -0.8500
12695TIP3    H159576   3.365   4.701  11.016  0.2777 -0.5463 -0.7928
12695TIP3    H259577   3.473   4.792  10.961 -0.5131  0.7439 -0.2616
12696TIP3   OH259578   6.136   2.228   0.273 -0.2395 -0.3265 -0.0146
12696TIP3    H159579   6.180   2.143   0.260  1.8933  0.7928 -0.6089
12696TIP3    H259580   6.136   2.241   0.367  0.3254 -0.5616  0.0216
12697TIP3   OH259581   6.390   1.041   3.978  0.2352  0.2074 -0.0069
12697TIP3    H159582   6.328   0.992   3.923 -0.2787  0.8219  0.0156
12697TIP3    H259583   6.336   1.077   4.048  0.7838 -0.0310  0.5439
12698TIP3   OH259584   2.855   5.600   0.929  0.0219  0.3550 -0.1516
12698TIP3    H159585   2.910   5.522   0.929 -0.9531 -0.3694  0.6820
12698TIP3    H259586   2.808   5.596   1.013 -0.6041  1.4350 -0.4274
12699TIP3   OH259587   2.830   0.009  12.302 -0.1666  0.1021  0.3334
12699TIP3    H159588   2.766  -0.051  12.263 -0.6763  0.1887  1.0231
12699TIP3    H259589   2.810   0.093  12.262 -0.1189  0.0202  0.1334
12700TIP3   OH259590   1.284   3.247   5.821  0.3097  0.1796 -0.5346
12700TIP3    H159591   1.212   3.209   5.872  1.0433 -0.0720  0.3389
12700TIP3    H259592   1.274   3.341   5.831 -1.3733  0.2829 -2.5037
12701TIP3   OH259593   6.198   3.322  14.519 -0.0067 -0.0250  1.1186
12701TIP3    H159594   6.240   3.236  14.515  1.6267  0.7768 -1.2249
12701TIP3    H259595   6.117   3.312  14.469  1.3378  0.2459 -1.3279
12702TIP3   OH259596   3.633   5.350  12.466 -0.0954  0.4023  0.0818
12702TIP3    H159597   3.617   5.257  12.450  2.1506 -0.2220  1.1086
12702TIP3    H259598   3.724   5.364  12.440 -0.0119  2.0208  1.1002
12703TIP3   OH259599   3.766   0.448   4.929 -0.3061 -0.0766  0.1911
12703TIP3    H159600   3.817   0.523   4.900  0.6461 -1.2759 -1.4014
12703TIP3    H259601   3.701   0.435   4.859 -0.7012 -0.5040  0.6314
12704TIP3   OH259602   3.836   5.828   5.447  0.4324 -0.1398 -0.3256
12704TIP3    H159603   3.827   5.922   5.430 -0.4677 -0.1879 -0.1565
12704TIP3    H259604   3.860   5.791   5.362 -0.1628  0.1235 -0.6155
12705TIP3   OH259605   0.625   3.248   4.203  0.1590 -0.0136 -0.0087
12705TIP3    H159606   0.648   3.307   4.274  0.9959  0.3728 -0.5845
12705TIP3    H259607   0.565   3.185   4.242 -0.3299  0.8991  0.7463
12706TIP3   OH259608   3.566   4.133   0.872  0.0188 -0.2660 -0.4231
12706TIP3    H159609   3.516   4.177   0.804 -1.0635 -1.0076 -0.1280
12706TIP3    H259610   3.593   4.204   0.931  0.1751  0.2602 -1.1057
12707TIP3   OH259611   6.530   2.681   5.237 -0.6213 -0.1749 -0.2497
12707TIP3    H159612   6.559   2.706   5.325  1.2416 -2.3401 -0.1498
12707TIP3    H259613   6.466   2.611   5.252 -2.6899  1.5233 -0.6185
12708TIP3   OH259614   1.219   4.879   1.750  0.6712 -0.1001 -0.4798
12708TIP3    H159615   1.233   4.968   1.716  1.3861 -0.7436 -1.9767
12708TIP3    H259616   1.299   4.832   1.726  0.5436 -1.0174  0.8010
12709TIP3   OH259617   4.203   0.346  10.998  0.0995  0.3636 -0.6830
12709TIP3    H159618   4.199   0.371  10.906  0.7810  0.5439 -0.6703
12709TIP3    H259619   4.218   0.251  10.997 -0.4962  0.2660 -0.7468
12710TIP3   OH259620   6.743   0.163  15.324  0.4577 -0.1354  0.0211
12710TIP3    H159621   6.723   0.070  15.314  0.8885 -0.2553  0.2420
12710TIP3    H259622   6.703   0.187  15.407 -1.9133  0.5224 -1.2403
12711TIP3   OH259623   4.054   4.419   0.621 -0.8279  0.1077  0.4785
12711TIP3    H159624   4.031   4.412   0.714 -0.4415 -1.6136  0.4698
12711TIP3    H259625   4.121   4.487   0.618 -1.2939  0.6226  1.3659
12712TIP3   OH259626   4.826   2.795  14.860  0.0517  0.0764  0.4527
12712TIP3    H159627   4.817   2.879  14.906  0.3394 -0.5645  1.7259
12712TIP3    H259628   4.800   2.814  14.770  0.1903  1.5532  0.6957
12713TIP3   OH259629   2.774   5.273   4.649  0.8652  0.1663  0.0117
12713TIP3    H159630   2.813   5.261   4.735  1.2856  2.7902  0.2590
12713TIP3    H259631   2.788   5.365   4.628 -3.8304  1.0172 -0.5679
12714TIP3   OH259632   4.764   4.996   3.498  0.0747 -0.3096 -0.1129
12714TIP3    H159633   4.784   5.084   3.530 -0.2854 -0.1039 -0.4383
12714TIP3    H259634   4.849   4.952   3.493  0.1155 -0.4973  1.5240
12715TIP3   OH259635   4.290   3.016   4.347  0.5198 -0.3016  0.5267
12715TIP3    H159636   4.329   2.933   4.319 -2.8961 -1.6908 -0.6110
12715TIP3    H259637   4.254   2.998   4.433 -1.6437 -0.6063 -0.3825
12716TIP3   OH259638   0.055   5.950  11.411  0.4194 -0.1387 -0.2649
12716TIP3    H159639  -0.022   6.007  11.402 -0.4720 -1.3076 -0.3025
12716TIP3    H259640   0.126   5.999  11.370 -0.6920  0.2304 -1.8375
12717TIP3   OH259641   2.387   4.110   1.982 -0.1784 -0.3651  0.6325
12717TIP3    H159642   2.419   4.065   1.904 -1.8135 -0.3921 -0.0586
12717TIP3    H259643   2.455   4.095   2.048  0.7835 -1.1563 -0.5010
12718TIP3   OH259644   4.729   3.530   5.008  0.6487  0.0574 -0.4192
12718TIP3    H159645   4.776   3.580   4.941  1.7945 -0.7213 -0.2211
12718TIP3    H259646   4.775   3.447   5.012  1.8428  0.7449  2.6994
12719TIP3   OH259647   4.596   1.108  14.751 -0.2841 -0.0782  0.2900
12719TIP3    H159648   4.569   1.085  14.662 -0.6913 -0.7270  0.5686
12719TIP3    H259649   4.610   1.202  14.749 -0.0116 -0.1327 -0.5327
12720TIP3   OH259650   2.241   6.556  16.097 -0.2419  0.0280 -0.2937
12720TIP3    H159651   2.156   6.514  16.085 -0.2351 -0.3322  0.8096
12720TIP3    H259652   2.276   6.518  16.178  0.9288  0.2417 -0.6755
12721TIP3   OH259653   5.903   0.643   6.288 -0.2324 -0.3901  0.3215
12721TIP3    H159654   5.810   0.641   6.307 -0.2776 -0.8096  0.0501
12721TIP3    H259655   5.924   0.556   6.254 -0.0242  0.1294 -0.9384
12722TIP3   OH259656   4.819   6.644  16.755 -0.3286 -0.0665  0.5075
12722TIP3    H159657   4.873   6.709  16.709  1.3643 -2.9661 -1.9157
12722TIP3    H259658   4.805   6.683  16.841 -0.1354  3.8461 -1.0180
12723TIP3   OH259659   4.621   0.762   3.818 -0.0236 -0.5752 -0.4348
12723TIP3    H159660   4.551   0.747   3.881  0.1809  0.4251  0.0451
12723TIP3    H259661   4.682   0.821   3.863 -0.3769  0.9960 -1.9362
12724TIP3   OH259662   2.862   6.584  12.539 -0.2089 -0.1473  0.3942
12724TIP3    H159663   2.857   6.571  12.444  1.2627  0.9046  0.1355
12724TIP3    H259664   2.785   6.540  12.573 -0.4278 -1.1090 -1.2325
12725TIP3   OH259665   4.180   0.216   1.873  0.4600 -0.2648  0.3729
12725TIP3    H159666   4.262   0.217   1.824  0.5738 -0.2116  0.5629
12725TIP3    H259667   4.191   0.283   1.940 -1.6454  3.5097 -2.6291
12726TIP3   OH259668   5.174   6.402   1.322 -0.1342  0.0957 -0.3150
12726TIP3    H159669   5.167   6.331   1.258  0.0026  0.0400 -0.2699
12726TIP3    H259670   5.118   6.375   1.394 -2.6857  1.5269 -1.6232
12727TIP3   OH259671   5.990   0.813  14.150 -0.3640 -0.3545 -0.3962
12727TIP3    H159672   6.055   0.744  14.154 -0.1520 -0.1281  0.1660
12727TIP3    H259673   6.018   0.869  14.077  0.2237 -0.1137  0.0026
12728TIP3   OH259674   0.032   1.184  12.639  0.3430 -0.6941 -0.3117
12728TIP3    H159675   0.009   1.092  12.644  2.4840 -1.3768 -1.5902
12728TIP3    H259676   0.127   1.184  12.626  0.4978  1.7202  0.3354
12729TIP3   OH259677   2.902   2.443   1.874  0.3212  0.1952 -0.1466
12729TIP3    H159678   2.970   2.464   1.811  0.6320  0.6307  0.3289
12729TIP3    H259679   2.822   2.437   1.821  0.8287 -1.0028 -0.8082
12730TIP3   OH259680   0.879   1.642   1.978  0.3964 -0.1058  0.1578
12730TIP3    H159681   0.836   1.578   1.922  2.6570 -1.4650 -0.1650
12730TIP3    H259682   0.916   1.706   1.918 -0.5650  0.6813  0.3863
12731TIP3   OH259683   0.662   3.448  15.430 -0.1667 -0.3059 -0.5076
12731TIP3    H159684   0.667   3.455  15.335  0.1060  0.8258 -0.4332
12731TIP3    H259685   0.744   3.406  15.455  1.2060  2.1244 -0.5951
12732TIP3   OH259686   4.578   5.013  12.134  0.0242 -0.1592 -0.1203
12732TIP3    H159687   4.525   4.933  12.135 -2.3126  1.0732  4.8942
12732TIP3    H259688   4.660   4.989  12.177 -0.0757 -0.1776  0.0606
12733TIP3   OH259689   6.237   6.247  14.958 -0.1343 -0.6618 -0.1775
12733TIP3    H159690   6.235   6.222  15.050 -0.4384 -0.0228 -0.0117
12733TIP3    H259691   6.330   6.238  14.933  0.2986  0.9825  0.7007
12734TIP3   OH259692   4.378   1.224   2.427 -0.8895 -0.4040 -0.4409
12734TIP3    H159693   4.339   1.289   2.367 -0.4716 -0.0534 -0.3359
12734TIP3    H259694   4.313   1.215   2.497 -0.9358 -0.0732 -0.4402
12735TIP3   OH259695   2.484   6.759  14.509 -0.2060 -0.3816  0.1727
12735TIP3    H159696   2.553   6.756  14.576  1.8338 -0.4003 -1.8107
12735TIP3    H259697   2.476   6.669  14.479  2.9546  0.2674 -3.3413
12736TIP3   OH259698   1.646   0.535   3.230  0.1391  0.4085 -0.6535
12736TIP3    H159699   1.610   0.623   3.242  0.0745  0.3016 -0.0230
12736TIP3    H259700   1.636   0.517   3.136 -0.5373  0.7733 -0.6562
12737TIP3   OH259701   0.689   5.178  16.707  0.5270 -0.4713  0.0153
12737TIP3    H159702   0.765   5.185  16.649  1.3951 -1.1179  1.0236
12737TIP3    H259703   0.626   5.240  16.672  2.4569  1.9304  0.4863
12738TIP3   OH259704   3.880   0.210  12.372  0.1518  0.2526  0.0746
12738TIP3    H159705   3.960   0.161  12.392  1.1519  2.2630  1.2799
12738TIP3    H259706   3.812   0.142  12.365  1.6130 -1.3680  0.7555
12739TIP3   OH259707   0.958   6.354  12.415  0.1597 -0.1905 -0.4929
12739TIP3    H159708   1.024   6.334  12.482  0.5620  0.5810 -0.6437
12739TIP3    H259709   0.955   6.276  12.360 -0.4215 -0.9679  0.6092
12740TIP3   OH259710   4.042   6.051   0.718  0.3188  0.1361 -0.3876
12740TIP3    H159711   4.040   6.036   0.624  0.9914 -0.1021 -0.3711
12740TIP3    H259712   3.974   6.118   0.734  1.2920  1.3804 -1.2607
12741TIP3   OH259713   5.805   3.023  11.818 -0.9402 -0.1563  0.1740
12741TIP3    H159714   5.853   2.967  11.756 -1.2102  0.3341 -0.4931
12741TIP3    H259715   5.845   3.004  11.903 -0.2828 -0.5485 -0.2092
12742TIP3   OH259716   0.355   6.405   4.129 -0.3639  0.4244 -0.1670
12742TIP3    H159717   0.357   6.310   4.138 -0.1345  0.4456  0.0066
12742TIP3    H259718   0.324   6.436   4.214 -1.9092  0.4310 -0.7094
12743TIP3   OH259719   6.487   4.735   1.019 -0.7964  0.1099 -0.0638
12743TIP3    H159720   6.493   4.828   0.999 -1.0743 -0.1896 -1.6375
12743TIP3    H259721   6.413   4.728   1.079 -0.0572  1.0155  1.0046
12744TIP3   OH259722   0.495   2.768  12.486  0.1776 -0.3330  0.2399
12744TIP3    H159723   0.413   2.721  12.475 -2.2677  3.5158  0.0070
12744TIP3    H259724   0.468   2.856  12.515  4.2484  1.0963  0.3013
12745TIP3   OH259725   3.810   5.640   4.350 -0.0360 -0.3175  0.2972
12745TIP3    H159726   3.723   5.601   4.353  0.6088 -1.8257  0.3111
12745TIP3    H259727   3.820   5.671   4.260 -0.7930  0.3956  0.4510
12746TIP3   OH259728   4.916   6.255   1.780 -0.2821  0.0765  0.1927
12746TIP3    H159729   4.991   6.237   1.838  1.6941  0.9350 -1.9410
12746TIP3    H259730   4.887   6.169   1.751  0.0570 -0.2607  0.8089
12747TIP3   OH259731   6.253   6.476   4.699 -0.1718 -0.1871 -0.2247
12747TIP3    H159732   6.179   6.489   4.759  0.4946  0.5498  0.4492
12747TIP3    H259733   6.260   6.559   4.652  0.0448 -0.3643 -0.5051
12748TIP3   OH259734   5.018   6.356  12.968  0.2652  0.7877  0.2361
12748TIP3    H159735   5.028   6.343  12.874 -0.5729  2.3872 -0.1121
12748TIP3    H259736   4.950   6.423  12.976 -1.1684 -0.7772  2.0570
12749TIP3   OH259737   2.258   0.662  13.823  0.4131  0.3575  0.3777
12749TIP3    H159738   2.164   0.665  13.805  0.1341 -0.8663  1.4898
12749TIP3    H259739   2.296   0.617  13.747 -0.3159 -1.8301  1.2454
12750TIP3   OH259740   0.337   0.290   0.329  0.4788 -0.0167  0.0699
12750TIP3    H159741   0.332   0.383   0.306  0.1554 -0.2559 -0.8899
12750TIP3    H259742   0.321   0.287   0.423  1.7824  1.0147  0.3456
12751TIP3   OH259743   2.372   6.567  13.661  0.3623 -0.0102 -0.2278
12751TIP3    H159744   2.324   6.490  13.691 -0.5538  0.1081 -1.3127
12751TIP3    H259745   2.402   6.609  13.741 -0.2772 -0.7775  0.4378
12752TIP3   OH259746   2.958   1.408   4.712 -0.5853 -0.0391 -0.3033
12752TIP3    H159747   2.962   1.463   4.790 -0.1598  0.7751 -0.8829
12752TIP3    H259748   2.907   1.331   4.739 -0.8652  0.4591  0.6247
12753TIP3   OH259749   0.661   4.790  16.232 -0.2766  0.0712 -0.3694
12753TIP3    H159750   0.647   4.875  16.274 -2.5731 -0.3434 -0.1786
12753TIP3    H259751   0.588   4.736  16.262  0.5792 -1.6750 -1.2865
12754TIP3   OH259752   4.305   1.662  12.538 -0.7606  0.0894  0.5814
12754TIP3    H159753   4.278   1.731  12.478 -0.9542 -0.6010 -0.1415
12754TIP3    H259754   4.352   1.599  12.483  0.5086  0.2409  1.4410
12755TIP3   OH259755   4.845   1.173  17.053 -0.1976 -0.2103  0.0195
12755TIP3    H159756   4.754   1.143  17.065 -0.1056 -0.6855 -0.4621
12755TIP3    H259757   4.861   1.165  16.959 -0.0436  1.0092 -0.0625
12756TIP3   OH259758   3.709   6.586  14.206  0.0167 -0.3533  0.2810
12756TIP3    H159759   3.705   6.573  14.111 -0.3845 -1.3520  0.4277
12756TIP3    H259760   3.617   6.594  14.233  0.1407  0.1658  0.5571
12757TIP3   OH259761   4.821   2.901   2.277 -0.5564 -0.0704 -0.4076
12757TIP3    H159762   4.865   2.978   2.240 -0.1293 -0.5544 -0.9303
12757TIP3    H259763   4.885   2.830   2.269 -0.6528 -0.3164  0.8009
12758TIP3   OH259764   6.448   3.077   1.359 -0.0954  0.0466  0.4499
12758TIP3    H159765   6.457   3.134   1.435 -0.8065  0.5092  0.1988
12758TIP3    H259766   6.534   3.035   1.350  0.2209  0.5508  1.0539
12759TIP3   OH259767   1.279   0.051  14.508  0.1436 -0.0694  0.7066
12759TIP3    H159768   1.322  -0.013  14.451 -1.1883 -0.2942 -0.1028
12759TIP3    H259769   1.196   0.008  14.532 -1.2175  1.6839 -0.6112
12760TIP3   OH259770   3.488   0.234  11.843 -0.1261  0.5346  0.7375
12760TIP3    H159771   3.408   0.219  11.792  0.2275  1.8977 -0.2819
12760TIP3    H259772   3.495   0.157  11.900 -2.3566  0.5531  1.1428
12761TIP3   OH259773   4.015   2.701  15.239 -0.1331 -0.1275 -0.2075
12761TIP3    H159774   3.970   2.690  15.323  0.0699 -0.1949 -0.1085
12761TIP3    H259775   4.020   2.613  15.202 -0.6162 -0.0412 -0.4946
12762TIP3   OH259776   2.369   4.981   0.215  0.5435  0.1207 -0.4183
12762TIP3    H159777   2.442   5.018   0.166 -0.7143  0.1513 -2.3750
12762TIP3    H259778   2.383   5.011   0.305  2.4289  0.8720 -0.9144
12763TIP3   OH259779   3.047   5.472   0.481 -0.4260  0.0409 -0.6177
12763TIP3    H159780   2.996   5.449   0.403 -2.4849 -0.1688  0.7229
12763TIP3    H259781   3.013   5.558   0.507  0.3397  0.1739 -0.0254
12764TIP3   OH259782   2.458   5.466   3.289  0.4885  0.4411 -0.0609
12764TIP3    H159783   2.379   5.515   3.265 -0.8922 -1.5888  0.0550
12764TIP3    H259784   2.470   5.405   3.216  1.4158  0.0894  0.3744
12765TIP3   OH259785   3.866   0.822   2.821  0.2878  0.2405 -0.2998
12765TIP3    H159786   3.901   0.871   2.747  0.5122  0.7264  0.1283
12765TIP3    H259787   3.943   0.797   2.872  0.3055 -1.6743 -1.1753
12766TIP3   OH259788   5.624   6.783   0.379  0.2987 -0.2453 -0.7058
12766TIP3    H159789   5.652   6.875   0.385 -0.1052 -0.1319 -0.5152
12766TIP3    H259790   5.577   6.767   0.461 -0.5686 -0.2992 -1.1999
12767TIP3   OH259791   6.640   0.232  16.339 -0.4786  0.1605  0.3615
12767TIP3    H159792   6.546   0.246  16.352 -0.2430  1.1142  1.1928
12767TIP3    H259793   6.674   0.218  16.428  0.4510  1.8094  0.3161
12768TIP3   OH259794   1.966   1.450   2.707  0.0375  0.1157 -0.6682
12768TIP3    H159795   2.006   1.367   2.734  0.6515  0.5935 -0.0699
12768TIP3    H259796   1.983   1.456   2.613  1.0633  0.1398 -0.4879
12769TIP3   OH259797   1.754   5.780  16.092 -0.5962  0.4680 -0.0269
12769TIP3    H159798   1.704   5.846  16.044  1.5624  3.1420  1.1088
12769TIP3    H259799   1.717   5.783  16.180 -0.2900  0.3776  0.1023
12770TIP3   OH259800   5.725   6.706   1.830 -0.3020 -0.2801  0.3579
12770TIP3    H159801   5.783   6.744   1.764 -0.6264 -0.6481 -0.1504
12770TIP3    H259802   5.713   6.775   1.894 -0.5272  0.3285 -0.3236
12771TIP3   OH259803   0.711   2.423  11.365 -0.4753  0.0035  0.1376
12771TIP3    H159804   0.639   2.362  11.380 -1.5447  0.7436 -1.6200
12771TIP3    H259805   0.727   2.419  11.271  1.3977  0.3155  0.3956
12772TIP3   OH259806   2.885   5.132   3.372  0.1468  0.4196  0.3285
12772TIP3    H159807   2.907   5.225   3.383 -1.2961  1.3267 -3.1347
12772TIP3    H259808   2.799   5.132   3.330 -0.1211 -2.5389  0.6432
12773TIP3   OH259809   5.967   5.133   0.983 -0.3173  0.5238 -0.3997
12773TIP3    H159810   6.034   5.101   1.044 -0.9249 -0.9864 -0.4908
12773TIP3    H259811   5.894   5.073   0.994 -0.8404  0.8679 -1.8677
12774TIP3   OH259812   2.693   6.801  16.617  0.1294  0.1078  0.1309
12774TIP3    H159813   2.770   6.823  16.565 -0.6295  0.5845 -0.8215
12774TIP3    H259814   2.727   6.787  16.705  1.1795  1.2481 -0.0663
12775TIP3   OH259815   0.730   4.872   2.775  0.5220 -0.0877  0.1047
12775TIP3    H159816   0.646   4.917   2.782  0.2229 -0.7007  0.5332
12775TIP3    H259817   0.742   4.860   2.680  1.2756  2.0869 -0.1193
12776TIP3   OH259818   0.335   1.351   2.532  0.3098 -0.1716  0.4842
12776TIP3    H159819   0.307   1.276   2.479  0.5322  0.0653  0.0292
12776TIP3    H259820   0.337   1.424   2.471  2.3141 -0.2638  0.3965
12777TIP3   OH259821   0.569   1.379   4.614 -0.4263  0.2945 -0.3075
12777TIP3    H159822   0.496   1.404   4.559 -1.1888 -0.1089  0.4886
12777TIP3    H259823   0.605   1.461   4.646 -0.4053  0.5027 -0.8589
12778TIP3   OH259824   1.606   2.876   6.561  0.5908 -0.2162 -0.3379
12778TIP3    H159825   1.698   2.901   6.555  0.6592 -0.6654 -1.3035
12778TIP3    H259826   1.562   2.953   6.596  1.2495  0.2021 -0.4214
12779TIP3   OH259827   0.424   1.417   3.096  0.0272 -0.4179 -0.0987
12779TIP3    H159828   0.449   1.402   3.188 -0.4411 -1.0241 -0.0615
12779TIP3    H259829   0.410   1.329   3.061  1.4750 -0.2658 -1.1249
12780TIP3   OH259830   2.334   6.083   5.390  0.2597  0.6963 -0.0193
12780TIP3    H159831   2.269   6.115   5.328 -0.0876  3.0146  1.3918
12780TIP3    H259832   2.287   6.018   5.442  0.6223 -1.4476 -2.1941
12781TIP3   OH259833   1.862   1.591  12.359  0.1625  0.0973 -0.5026
12781TIP3    H159834   1.886   1.677  12.394  0.3175 -0.7592  1.7023
12781TIP3    H259835   1.864   1.533  12.436 -1.9779 -1.4683 -1.5355
12782TIP3   OH259836   4.708   2.660   3.362  0.0955  0.1567 -0.0321
12782TIP3    H159837   4.692   2.741   3.412  1.7871  0.2066  0.4980
12782TIP3    H259838   4.802   2.663   3.342 -0.0118 -1.2323 -0.8126
12783TIP3   OH259839   4.995   3.306   0.772  0.6692  0.1231 -0.0408
12783TIP3    H159840   4.996   3.317   0.677 -1.5943  1.3211  0.0045
12783TIP3    H259841   5.070   3.249   0.791  1.4758  0.2917 -2.4647
12784TIP3   OH259842   1.396   5.836  16.202  0.1456  0.8194 -0.4068
12784TIP3    H159843   1.380   5.834  16.296  0.4791  1.9560 -0.3068
12784TIP3    H259844   1.409   5.745  16.177 -1.8972  0.2811  0.2954
12785TIP3   OH259845   6.822   0.168   0.355  0.1791 -0.2171  0.7058
12785TIP3    H159846   6.739   0.137   0.390  0.0633 -1.2310 -0.4268
12785TIP3    H259847   6.800   0.248   0.306 -0.2972 -0.9934 -0.3757
12786TIP3   OH259848   1.840   4.056  15.547 -0.4121 -0.1723  0.1174
12786TIP3    H159849   1.853   3.999  15.622  0.7267 -0.6101 -0.3900
12786TIP3    H259850   1.922   4.106  15.540 -0.5739 -0.0011 -0.7087
12787TIP3   OH259851   1.157   5.826  13.939 -0.0794  0.7039  0.1460
12787TIP3    H159852   1.140   5.797  13.850 -2.1941  1.8215  0.1197
12787TIP3    H259853   1.213   5.758  13.976  0.5053  0.0181 -1.8855
12788TIP3   OH259854   5.744   1.449   3.520  0.1351  0.0851  0.3056
12788TIP3    H159855   5.751   1.401   3.437 -0.0508  0.2935  0.1692
12788TIP3    H259856   5.714   1.384   3.583 -0.3006  0.0639  0.0791
12789TIP3   OH259857   3.085   6.117   4.608  0.5323 -0.3996 -0.2715
12789TIP3    H159858   3.114   6.030   4.580  0.4578  0.0774 -1.9339
12789TIP3    H259859   3.160   6.174   4.590 -0.2726  0.2867 -1.5625
12790TIP3   OH259860   3.621   1.114   0.791 -0.3374  0.0682 -0.1525
12790TIP3    H159861   3.607   1.020   0.783  2.6099 -0.3425 -1.5168
12790TIP3    H259862   3.715   1.126   0.782 -0.6902  3.2377 -0.8792
12791TIP3   OH259863   5.959   3.111  13.324  0.1289 -0.3694 -0.1060
12791TIP3    H159864   5.908   3.030  13.323 -2.5994  1.1908 -1.7238
12791TIP3    H259865   5.931   3.157  13.403 -1.3334  0.6094 -1.1316
12792TIP3   OH259866   0.075   4.971   4.954  0.1208 -0.0407  0.0274
12792TIP3    H159867  -0.010   5.009   4.932  0.4221  0.6785  0.0759
12792TIP3    H259868   0.062   4.877   4.946 -0.3496  0.1146 -1.1304
12793TIP3   OH259869   2.531   2.735   3.130  0.2484 -0.1102 -0.0852
12793TIP3    H159870   2.551   2.666   3.067 -0.8646 -0.8114  0.2845
12793TIP3    H259871   2.533   2.691   3.215  0.4421  0.5251  0.2464
12794TIP3   OH259872   2.388   1.458   5.512  0.2092 -0.5671  0.4413
12794TIP3    H159873   2.332   1.406   5.456  0.7431 -0.8867  0.1962
12794TIP3    H259874   2.471   1.411   5.514 -0.0979 -1.1155  2.3250
12795TIP3   OH259875   6.304   2.573   3.040 -0.2658  0.0553  0.0009
12795TIP3    H159876   6.294   2.661   3.006 -0.3844  0.2153  0.4442
12795TIP3    H259877   6.399   2.560   3.046 -0.2260 -0.2796 -1.1603
12796TIP3   OH259878   5.816   6.592  15.617  0.1428 -0.0374 -0.1070
12796TIP3    H159879   5.760   6.642  15.676 -0.1551  0.5023 -0.8276
12796TIP3    H259880   5.886   6.652  15.592 -0.1848  0.0303 -0.9301
12797TIP3   OH259881   4.113   4.801  14.748  0.1566  0.1915 -0.1828
12797TIP3    H159882   4.083   4.833  14.663  0.1332  1.3241  0.2337
12797TIP3    H259883   4.195   4.756  14.729 -0.4771 -0.6851 -0.9688
12798TIP3   OH259884   0.606   3.565   3.781 -0.4513  0.2821 -0.2492
12798TIP3    H159885   0.676   3.628   3.760  0.5329 -0.2315  1.3183
12798TIP3    H259886   0.647   3.504   3.842 -1.7564 -1.1573 -0.7507
12799TIP3   OH259887   0.198   1.071   5.044  0.3887  0.0668  0.1663
12799TIP3    H159888   0.210   1.155   5.089  0.6906 -0.6249  1.3911
12799TIP3    H259889   0.281   1.025   5.054  0.8335  0.2841 -1.9949
12800TIP3   OH259890   4.585   6.506  14.032  0.6484  0.6409 -1.2702
12800TIP3    H159891   4.633   6.581  13.996  1.8131  1.0103  0.9154
12800TIP3    H259892   4.504   6.544  14.067  1.3416  0.9588  0.0422
12801TIP3   OH259893   6.613   1.280  15.031  0.7546 -0.0034  0.7225
12801TIP3    H159894   6.603   1.278  14.936  0.6129 -1.4673  0.7435
12801TIP3    H259895   6.558   1.208  15.062  0.8679  0.4031  1.9148
12802TIP3   OH259896   5.155   4.388  14.968  0.5625 -0.4569  0.0032
12802TIP3    H159897   5.169   4.474  15.009 -1.6978  0.9836 -1.9913
12802TIP3    H259898   5.104   4.339  15.031  0.2602  0.3766  0.4223
12803TIP3   OH259899   3.994   5.503   2.971  0.1549  0.0443 -0.4636
12803TIP3    H159900   3.920   5.520   3.029 -0.6244 -1.1551 -1.0464
12803TIP3    H259901   3.953   5.477   2.888  1.1957 -1.5965 -0.5093
12804TIP3   OH259902   6.065   4.141  14.644  0.7051 -0.0588 -0.0774
12804TIP3    H159903   6.070   4.055  14.603 -0.2111  0.7627 -2.0314
12804TIP3    H259904   5.980   4.143  14.687  1.7051 -0.9576  2.1182
12805TIP3   OH259905   0.239   3.926  11.982  0.8020  0.0081 -0.3786
12805TIP3    H159906   0.210   3.868  12.053 -1.0614  0.7592 -0.4695
12805TIP3    H259907   0.200   3.888  11.903  1.5571  0.0538 -0.7742
12806TIP3   OH259908   4.963   1.762  13.739  0.2930 -0.4711  0.4606
12806TIP3    H159909   5.057   1.773  13.755  0.0138  2.0082  0.6921
12806TIP3    H259910   4.957   1.734  13.648  1.2142  1.1292 -0.1285
12807TIP3   OH259911   6.057   6.231  16.288 -0.0885  0.0932  0.6910
12807TIP3    H159912   6.015   6.298  16.234 -0.2948 -1.0935 -0.7061
12807TIP3    H259913   6.064   6.270  16.375  1.5856  2.6729 -0.4860
12808TIP3   OH259914   2.640   1.719   0.789 -0.1958 -0.3145  0.2436
12808TIP3    H159915   2.560   1.667   0.801  0.3736 -1.2967 -0.0851
12808TIP3    H259916   2.643   1.777   0.865 -1.4816  0.0961 -0.0010
12809TIP3   OH259917   2.542   5.846  14.143  0.2375 -0.1652  0.4206
12809TIP3    H159918   2.520   5.777  14.207  0.9718 -4.2219 -3.2472
12809TIP3    H259919   2.632   5.871  14.164 -0.1428 -0.0119  2.0011
12810TIP3   OH259920   1.075   0.149   5.214  0.5224 -0.3285 -0.1899
12810TIP3    H159921   1.061   0.232   5.260  0.7155  0.0527 -0.8214
12810TIP3    H259922   1.010   0.148   5.144 -0.4638 -1.3749  0.6966
12811TIP3   OH259923   4.997   5.421  14.544 -0.8142  0.0977  0.4122
12811TIP3    H159924   5.032   5.434  14.632  2.4039 -2.3082 -0.3079
12811TIP3    H259925   5.056   5.470  14.487  0.9452 -3.0790 -0.7698
12812TIP3   OH259926   4.931   1.644  12.418  0.5568 -0.2186  0.4052
12812TIP3    H159927   4.987   1.633  12.341 -0.7605 -1.3019 -0.4520
12812TIP3    H259928   4.954   1.569  12.474  0.8452  0.0503  0.6558
12813TIP3   OH259929   4.715   0.089   0.720  0.5931 -0.2614  0.0907
12813TIP3    H159930   4.712   0.070   0.814  1.6806 -1.0846 -0.0237
12813TIP3    H259931   4.643   0.038   0.683  1.4408 -1.6023  0.2323
12814TIP3   OH259932   3.489   1.228  16.105  0.2057 -0.4295  0.5962
12814TIP3    H159933   3.551   1.245  16.034  0.3581  0.0801  0.8471
12814TIP3    H259934   3.477   1.313  16.148 -1.4177 -0.3018 -0.0473
12815TIP3   OH259935   1.401   5.388  12.560 -0.3909 -0.2825  0.6424
12815TIP3    H159936   1.340   5.315  12.568 -1.4786  0.5501  0.2190
12815TIP3    H259937   1.436   5.400  12.648 -0.4865 -1.0720  0.7938
12816TIP3   OH259938   1.730   2.157  13.885  0.1976  0.2838  0.4236
12816TIP3    H159939   1.675   2.229  13.852 -0.7856  0.3098  2.0109
12816TIP3    H259940   1.818   2.193  13.886 -0.1731  1.2257  0.4591
12817TIP3   OH259941   1.400   1.933  14.210  0.0405  0.1989  0.7940
12817TIP3    H159942   1.486   1.967  14.235 -0.7457  1.6583  1.6875
12817TIP3    H259943   1.395   1.847  14.252  0.8660  0.3236  1.1720
12818TIP3   OH259944   3.390   6.266   0.568  0.0635 -0.2096 -0.4976
12818TIP3    H159945   3.396   6.357   0.596  1.5398 -0.5522  0.3972
12818TIP3    H259946   3.474   6.247   0.528 -0.5110 -0.9651 -1.3908
12819TIP3   OH259947   6.454   0.712  11.822  0.2706 -0.6220 -0.4269
12819TIP3    H159948   6.533   0.736  11.775  0.0489 -0.2569 -0.6171
12819TIP3    H259949   6.423   0.793  11.863  0.1019 -0.7999 -0.1916
12820TIP3   OH259950   5.425   2.824   2.756 -0.2465 -0.1886 -0.2773
12820TIP3    H159951   5.333   2.824   2.730 -1.3886  2.6229  2.9192
12820TIP3    H259952   5.441   2.736   2.790 -2.0941 -0.4340  0.0515
12821TIP3   OH259953   0.278   6.364  11.314 -0.1803  0.9322  0.4922
12821TIP3    H159954   0.236   6.432  11.368 -1.0555  1.4123 -0.7572
12821TIP3    H259955   0.277   6.400  11.225 -2.4048 -1.4414 -0.5636
12822TIP3   OH259956   5.561   6.592   5.482  0.2720 -0.2280 -0.5668
12822TIP3    H159957   5.563   6.613   5.388  2.1490  1.2237 -0.2537
12822TIP3    H259958   5.624   6.521   5.492 -0.4447 -0.8726 -0.4647
12823TIP3   OH259959   5.235   4.017   1.226 -0.1871 -0.3284 -0.4210
12823TIP3    H159960   5.243   4.112   1.234 -0.7509 -0.1405 -1.8708
12823TIP3    H259961   5.288   3.983   1.298  0.5002  1.0715 -0.2262
12824TIP3   OH259962   1.409   6.150  14.727 -0.2090 -0.5269 -0.2980
12824TIP3    H159963   1.321   6.152  14.690 -0.6602 -0.7558  0.7561
12824TIP3    H259964   1.402   6.097  14.806  0.5841  0.5342  0.5171
12825TIP3   OH259965   5.167   0.365   5.707  0.3069 -0.5019  0.4593
12825TIP3    H159966   5.150   0.356   5.613  2.7230  0.4303 -0.1244
12825TIP3    H259967   5.141   0.454   5.728 -1.0168 -0.9661  0.9091
12826TIP3   OH259968   2.542   4.005   5.727 -0.1350  0.1541 -0.3402
12826TIP3    H159969   2.597   4.024   5.803 -0.2752  0.8712 -0.4138
12826TIP3    H259970   2.453   4.009   5.761 -0.1669 -0.8605 -0.2524
12827TIP3   OH259971   4.664   6.770  13.099 -0.0326 -0.5574  0.0136
12827TIP3    H159972   4.598   6.717  13.055  0.7796 -2.4095  0.9261
12827TIP3    H259973   4.726   6.793  13.030 -1.4037  0.9644 -0.7972
12828TIP3   OH259974   2.955   4.347  15.242  0.2598 -0.3115 -0.4484
12828TIP3    H159975   2.910   4.387  15.316 -1.2299  0.6029 -1.7719
12828TIP3    H259976   3.010   4.280  15.281 -1.6764 -0.9809  1.3707
12829TIP3   OH259977   1.408   6.278  15.229 -0.2845  0.1035 -0.4044
12829TIP3    H159978   1.426   6.245  15.317 -0.7647 -0.0209 -0.3487
12829TIP3    H259979   1.492   6.314  15.199 -0.3005  0.8274  0.3941
12830TIP3   OH259980   1.822   1.824   4.818  0.3319 -0.7654  0.4550
12830TIP3    H159981   1.904   1.776   4.833  0.6032 -0.9578 -1.4144
12830TIP3    H259982   1.757   1.755   4.804  0.4607 -0.6365 -0.9353
12831TIP3   OH259983   4.556   0.752   5.933  0.6151  0.4733 -0.2174
12831TIP3    H159984   4.544   0.843   5.962  0.1247  0.4450 -0.3160
12831TIP3    H259985   4.470   0.727   5.898  0.1265 -0.7110  1.6752
12832TIP3   OH259986   5.931   0.720   3.356 -0.4821 -0.3310 -0.5597
12832TIP3    H159987   5.993   0.778   3.402  0.3935 -0.5936 -1.3694
12832TIP3    H259988   5.912   0.765   3.274 -0.0546 -1.0064 -1.0483
12833TIP3   OH259989   3.221   1.438  14.566 -0.2829  0.7027  0.4009
12833TIP3    H159990   3.147   1.477  14.518 -1.2242 -1.0386  0.3605
12833TIP3    H259991   3.280   1.406  14.498  0.8294  2.5207  0.4230
12834TIP3   OH259992   1.809   6.810  11.525  0.4732 -0.6646  0.1318
12834TIP3    H159993   1.870   6.736  11.523  1.8655  0.3408  1.7823
12834TIP3    H259994   1.796   6.833  11.433  0.8263 -2.2860 -0.3546
12835TIP3   OH259995   0.753   0.884  15.316  0.1822 -0.3669 -0.2710
12835TIP3    H159996   0.782   0.937  15.241 -0.4979 -1.0946 -1.0728
12835TIP3    H259997   0.687   0.826  15.279 -0.0085 -0.8854  0.8680
12836TIP3   OH259998   3.648   5.875  15.994 -0.0639  0.1389 -0.3743
12836TIP3    H159999   3.706   5.951  16.001  2.0550 -1.4704  0.4834
12836TIP3    H260000   3.569   5.901  16.043  0.1341  2.1462 -1.0304
12837TIP3   OH260001   1.113   2.843   0.648 -0.3323 -0.2222  0.1241
12837TIP3    H160002   1.030   2.845   0.599 -0.1536  0.2849 -0.1554
12837TIP3    H260003   1.180   2.840   0.580 -0.1180 -0.6180  0.3533
12838TIP3   OH260004   6.346   4.164  13.756  0.4059 -0.0175 -0.2984
12838TIP3    H160005   6.259   4.144  13.722  1.0375 -2.1181 -0.8747
12838TIP3    H260006   6.341   4.255  13.785 -1.5766  0.3315 -1.5514
12839TIP3   OH260007   5.703   6.210   4.209  0.3003  0.4432 -0.2403
12839TIP3    H160008   5.693   6.148   4.281 -3.7971  1.7728  0.5726
12839TIP3    H260009   5.758   6.279   4.245  0.6524 -0.2409  0.5857
12840TIP3   OH260010   2.924   6.422  11.750  0.1186 -0.0700 -0.3355
12840TIP3    H160011   2.999   6.368  11.777 -0.6933 -0.9312  0.2997
12840TIP3    H260012   2.963   6.496  11.704  1.3756 -0.3337  0.2510
12841TIP3   OH260013   5.780   5.243   4.452 -0.0790 -0.0597 -0.4413
12841TIP3    H160014   5.812   5.333   4.461 -1.5366  0.6148 -1.5421
12841TIP3    H260015   5.740   5.241   4.365 -2.4628 -0.9997  0.6121
12842TIP3   OH260016   2.329   4.716   0.133  0.0218 -0.0816 -0.2971
12842TIP3    H160017   2.353   4.790   0.189  0.0604 -0.3652  0.0610
12842TIP3    H260018   2.375   4.641   0.170 -0.8533 -0.4988 -0.0097
12843TIP3   OH260019   4.707   0.734  13.141  0.2251  0.0087 -0.6744
12843TIP3    H160020   4.788   0.778  13.168  0.1118  0.1487 -0.5659
12843TIP3    H260021   4.737   0.665  13.082  0.4466 -0.0937 -0.4457
12844TIP3   OH260022   1.318   2.933  14.810  0.1018 -0.1604 -0.6318
12844TIP3    H160023   1.358   2.932  14.897 -2.4187  1.0675  0.6496
12844TIP3    H260024   1.224   2.931  14.827 -0.5146  1.6333 -3.2482
12845TIP3   OH260025   3.558   2.754   0.823  0.2160 -0.2149 -0.3393
12845TIP3    H160026   3.536   2.784   0.912  0.2286  0.5905 -0.6051
12845TIP3    H260027   3.475   2.756   0.776  0.2232 -0.5720 -0.3701
12846TIP3   OH260028   4.091   6.218  16.476 -0.3540  0.1894  0.4411
12846TIP3    H160029   4.094   6.297  16.421  0.5045 -0.3193 -0.2564
12846TIP3    H260030   3.998   6.205  16.494 -0.4800  1.6083  0.9372
12847TIP3   OH260031   4.720   5.463   2.261  0.2928 -0.0006  0.0732
12847TIP3    H160032   4.682   5.405   2.195  0.3846  0.4570 -0.3855
12847TIP3    H260033   4.666   5.449   2.339 -0.1818 -0.1029 -0.2743
12848TIP3   OH260034   1.396   3.437  11.491  0.0693 -0.0670 -0.2045
12848TIP3    H160035   1.431   3.370  11.549 -1.2791 -0.4400  0.2271
12848TIP3    H260036   1.396   3.397  11.404  0.5242 -0.1279 -0.1752
12849TIP3   OH260037   6.725   3.006  12.535 -0.6509 -0.0303  0.0168
12849TIP3    H160038   6.716   3.065  12.460 -0.2393 -2.4914 -2.1295
12849TIP3    H260039   6.652   2.944  12.525 -0.3072 -0.6824  1.3741
12850TIP3   OH260040   4.461   1.596  14.240 -0.2425  0.1987 -0.7973
12850TIP3    H160041   4.434   1.623  14.152 -0.1719 -0.2650 -0.9616
12850TIP3    H260042   4.380   1.566  14.282 -0.2429  0.2406 -0.7681
12851TIP3   OH260043   6.619   6.700  12.758  0.2719 -0.4018 -0.1523
12851TIP3    H160044   6.553   6.769  12.762  0.7359  0.0958 -0.9393
12851TIP3    H260045   6.596   6.650  12.680  0.3501 -0.7187  0.0251
12852TIP3   OH260046   1.831   4.076   4.402  0.2404  0.0263  0.0666
12852TIP3    H160047   1.773   4.066   4.477 -0.3939 -1.0066 -0.5289
12852TIP3    H260048   1.851   4.170   4.399 -1.0031  0.3304  0.5919
12853TIP3   OH260049   0.944   4.238   4.115  0.2839 -0.8958  0.2972
12853TIP3    H160050   0.896   4.300   4.171  1.7429  1.4957 -0.9148
12853TIP3    H260051   0.892   4.232   4.036  0.0416 -1.3730  0.4942
12854TIP3   OH260052   4.746   4.659   0.628 -0.8350  0.1789  0.1536
12854TIP3    H160053   4.745   4.616   0.543  0.0749 -0.1396  0.2943
12854TIP3    H260054   4.724   4.591   0.691 -2.0106  0.5285  0.1363
12855TIP3   OH260055   4.691   2.121   3.662 -0.7295 -0.3841 -0.0661
12855TIP3    H160056   4.614   2.157   3.706 -0.8299 -0.6739  0.0004
12855TIP3    H260057   4.677   2.140   3.569  0.5415  2.2244  0.1992
12856TIP3   OH260058   3.596   4.311   6.251 -0.0376 -0.1266 -0.1642
12856TIP3    H160059   3.545   4.249   6.304  1.3182 -0.5083  0.7307
12856TIP3    H260060   3.574   4.397   6.288  0.9472 -0.3954  1.0976
12857TIP3   OH260061   6.139   5.813   0.107  0.4140  0.6147  0.8856
12857TIP3    H160062   6.125   5.742   0.169  1.7759 -0.0334  0.4891
12857TIP3    H260063   6.184   5.881   0.158  3.3514 -0.6893  0.2798
12858TIP3   OH260064   3.965   1.803  16.507  0.1957 -0.1452  0.2110
12858TIP3    H160065   3.967   1.898  16.497 -0.2803 -0.2183 -0.7861
12858TIP3    H260066   4.053   1.780  16.534  0.8076  0.4386 -1.1776
12859TIP3   OH260067   3.099   6.074  16.482 -0.4394  1.2406  0.4045
12859TIP3    H160068   3.183   6.053  16.523 -1.0095  0.0271  0.9827
12859TIP3    H260069   3.099   6.025  16.400 -0.8588  0.7107  0.7186
12860TIP3   OH260070   0.428   4.241  14.692  0.3245 -0.4061 -0.0356
12860TIP3    H160071   0.400   4.241  14.784 -1.9641  0.8384 -0.6614
12860TIP3    H260072   0.464   4.328  14.677 -1.9885  0.4608 -0.9859
12861TIP3   OH260073   2.105   4.955   6.313  0.3192 -0.1010  0.3280
12861TIP3    H160074   2.056   5.012   6.253  0.3710 -0.1003  0.2865
12861TIP3    H260075   2.065   4.971   6.399 -0.2798 -0.6888  0.1679
12862TIP3   OH260076   2.746   1.491   2.961  0.2379  0.3216 -0.2439
12862TIP3    H160077   2.766   1.516   2.871  0.6029 -0.9265 -0.5312
12862TIP3    H260078   2.777   1.565   3.014  0.2690  0.9454 -1.1169
12863TIP3   OH260079   3.626   1.389   1.345  0.3391  0.3499 -0.4109
12863TIP3    H160080   3.696   1.405   1.282 -0.9087  0.4824 -1.7946
12863TIP3    H260081   3.600   1.476   1.375  0.9620  0.2855  0.3586
12864TIP3   OH260082   4.032   1.910  16.981 -0.2450 -0.0573  0.0845
12864TIP3    H160083   3.964   1.843  16.994 -0.4659  0.3731  1.2918
12864TIP3    H260084   4.077   1.915  17.066  0.0764  0.9861 -0.1313
12865TIP3   OH260085   3.638   6.671  10.853  0.1019 -0.1984 -0.4747
12865TIP3    H160086   3.645   6.578  10.830 -0.6878  0.2262 -2.6220
12865TIP3    H260087   3.623   6.715  10.770  1.2187  1.9701  0.4088
12866TIP3   OH260088   3.223   5.086  11.773 -0.0340  0.3242 -0.3807
12866TIP3    H160089   3.164   5.043  11.712 -0.6656  1.5479 -0.6725
12866TIP3    H260090   3.224   5.178  11.746  0.2734  0.7564  0.9763
12867TIP3   OH260091   6.593   3.692   4.040  0.6809 -0.2358  0.0024
12867TIP3    H160092   6.585   3.669   4.133  0.0927  1.4622  0.4109
12867TIP3    H260093   6.519   3.648   3.999  0.7668 -0.7505  0.3773
12868TIP3   OH260094   3.116   5.105   3.065 -0.5223  0.4313 -0.2596
12868TIP3    H160095   3.033   5.151   3.078 -1.4252 -0.5870 -1.9914
12868TIP3    H260096   3.128   5.104   2.970  0.7298 -0.7224 -0.1131
12869TIP3   OH260097   6.371   3.689  15.374  0.3078  0.3056 -0.1113
12869TIP3    H160098   6.382   3.615  15.315  1.9937  1.0931 -0.8564
12869TIP3    H260099   6.304   3.660  15.437  1.5540 -2.1931  0.1854
12870TIP3   OH260100   3.960   0.480  13.966 -0.1007 -0.7432 -0.1569
12870TIP3    H160101   3.888   0.418  13.965 -1.2690  0.5622  0.0601
12870TIP3    H260102   3.953   0.527  13.883  1.9083 -2.1074 -1.1705
12871TIP3   OH260103   1.669   3.772   3.952 -0.1672 -0.0615 -0.0269
12871TIP3    H160104   1.704   3.708   4.014 -0.5714 -1.7713 -1.4938
12871TIP3    H260105   1.730   3.846   3.957  0.0085 -0.2629  2.1157
12872TIP3   OH260106   5.852   4.533  16.467 -0.3444 -0.4237  0.7938
12872TIP3    H160107   5.906   4.485  16.403 -0.9914 -2.2395  1.5444
12872TIP3    H260108   5.799   4.593  16.413 -0.1240 -1.1551 -0.2756
12873TIP3   OH260109   0.927   6.650   0.584 -0.0648 -0.0304  0.1021
12873TIP3    H160110   0.834   6.667   0.601  0.2579  1.5250  0.4081
12873TIP3    H260111   0.937   6.662   0.490 -0.1936 -0.3865  0.0384
12874TIP3   OH260112   0.950   4.835   4.821 -0.5223 -0.2524 -0.6660
12874TIP3    H160113   1.035   4.858   4.857 -0.9150  0.0887  0.0773
12874TIP3    H260114   0.954   4.740   4.809  0.1925 -0.1509 -1.2781
12875TIP3   OH260115   1.688   2.772  10.529  0.1153  0.1625 -0.8758
12875TIP3    H160116   1.781   2.778  10.552 -0.6793 -1.1242  3.5586
12875TIP3    H260117   1.662   2.684  10.557 -2.7335  0.9375 -0.8239
12876TIP3   OH260118   1.306   4.526  15.982 -0.1267  0.0844  0.1205
12876TIP3    H160119   1.225   4.480  15.960 -0.1406  1.3268 -2.8182
12876TIP3    H260120   1.278   4.596  16.042 -0.9591 -0.3916  0.3031
12877TIP3   OH260121   0.627   3.436  14.010  0.3256 -0.2158  0.3047
12877TIP3    H160122   0.642   3.399  14.098 -1.2994 -0.6247  0.4419
12877TIP3    H260123   0.659   3.526  14.017 -1.4758  0.3766  1.9344
12878TIP3   OH260124   1.710   5.706  11.286 -0.9851 -0.1553 -0.5810
12878TIP3    H160125   1.801   5.735  11.295 -0.5409 -1.3253 -1.1887
12878TIP3    H260126   1.684   5.735  11.199 -1.7581  1.6062  0.1780
12879TIP3   OH260127   1.950   2.519  13.070  0.0416 -0.0307  0.4831
12879TIP3    H160128   1.913   2.607  13.074 -1.1465 -0.5079  0.3571
12879TIP3    H260129   1.881   2.465  13.031  1.8479 -0.4541 -2.4840
12880TIP3   OH260130   1.180   4.011   0.237  0.0605 -0.1922 -0.0907
12880TIP3    H160131   1.127   3.988   0.313  1.4658  0.6510  1.1819
12880TIP3    H260132   1.244   3.940   0.230  0.5350  0.2076  0.1143
12881TIP3   OH260133   0.376   3.159   2.104  0.5936  0.3299  0.1005
12881TIP3    H160134   0.344   3.088   2.160  0.7423  0.3311  0.1871
12881TIP3    H260135   0.337   3.141   2.019 -0.7759  1.1256  0.5430
12882TIP3   OH260136   2.090   2.987  17.120  0.6573 -0.2020  0.0279
12882TIP3    H160137   2.062   2.900  17.147  2.3739 -0.6127  0.6024
12882TIP3    H260138   2.172   3.001  17.167  0.2433  1.8724  0.2151
12883TIP3   OH260139   2.734   0.805  15.749  0.2373 -0.6900  0.0306
12883TIP3    H160140   2.721   0.711  15.740 -1.6974 -0.4950  0.4040
12883TIP3    H260141   2.714   0.823  15.841 -0.3508  0.2080 -0.2650
12884TIP3   OH260142   3.404   6.632   3.241  0.4454 -0.1919  0.1282
12884TIP3    H160143   3.436   6.698   3.179 -1.0203 -0.5370 -1.0542
12884TIP3    H260144   3.312   6.656   3.255  0.7191 -0.1711  2.1546
12885TIP3   OH260145   4.297   3.716  16.186 -0.1118 -0.0565 -0.9362
12885TIP3    H160146   4.370   3.683  16.239 -1.7714 -0.0773  1.4787
12885TIP3    H260147   4.268   3.795  16.232 -0.2923  1.2005 -3.0735
12886TIP3   OH260148   3.390   5.673   5.688 -0.3014 -0.0617  0.5530
12886TIP3    H160149   3.435   5.715   5.616  0.1866 -0.7370  0.4489
12886TIP3    H260150   3.406   5.730   5.764 -0.0987  0.2015  0.3112
12887TIP3   OH260151   2.288   2.291  10.669  0.1419  0.3304 -0.4710
12887TIP3    H160152   2.231   2.366  10.649 -1.3409 -0.7866 -0.6110
12887TIP3    H260153   2.234   2.215  10.651  1.6287 -0.7974 -0.3542
12888TIP3   OH260154   1.472   4.475  10.909 -0.3544  0.1035 -0.2913
12888TIP3    H160155   1.440   4.544  10.851 -0.0807 -0.4354 -1.1005
12888TIP3    H260156   1.561   4.457  10.878 -1.4852 -2.8685 -2.2737
12889TIP3   OH260157   1.155   2.129   3.510  0.0324  0.1413  0.7719
12889TIP3    H160158   1.239   2.090   3.533 -0.8802 -1.1229  2.1898
12889TIP3    H260159   1.150   2.209   3.562  0.9378  1.0253 -0.4284
12890TIP3   OH260160   4.158   3.277  14.612  0.8500  0.2699  0.2331
12890TIP3    H160161   4.091   3.330  14.569  0.8268 -0.5146 -0.7392
12890TIP3    H260162   4.240   3.308  14.574  0.8997  0.1049  0.2087
12891TIP3   OH260163   6.110   3.313   2.431  0.5109  0.4251  0.4508
12891TIP3    H160164   6.121   3.380   2.363  1.5228 -0.5007 -0.3383
12891TIP3    H260165   6.158   3.237   2.398  2.0895  0.3301  2.7706
12892TIP3   OH260166   5.443   3.934  11.056  0.2340 -0.7553  0.1739
12892TIP3    H160167   5.525   3.898  11.091  0.3307 -0.7815 -0.0777
12892TIP3    H260168   5.376   3.899  11.114  0.1546 -2.6966 -0.9984
12893TIP3   OH260169   5.591   0.956   6.301  0.1891 -0.7606 -0.1361
12893TIP3    H160170   5.568   1.048   6.317  0.8765 -0.8006  1.2397
12893TIP3    H260171   5.527   0.926   6.237  1.5018  1.3974 -2.6745
12894TIP3   OH260172   1.332   3.297   0.183  0.0553 -0.7233  0.5330
12894TIP3    H160173   1.344   3.218   0.237  0.4477 -1.1526 -0.1740
12894TIP3    H260174   1.283   3.267   0.107 -0.4645 -0.1228  0.6274
12895TIP3   OH260175   5.735   2.834  10.492 -0.4382 -0.1131 -0.4692
12895TIP3    H160176   5.710   2.769  10.426 -2.5702  0.3192 -0.1489
12895TIP3    H260177   5.745   2.783  10.572 -0.6466 -0.2439 -0.5254
12896TIP3   OH260178   2.705   5.139  14.128  0.2308  0.1490 -0.2140
12896TIP3    H160179   2.799   5.151  14.140  0.2085  0.2741 -0.1601
12896TIP3    H260180   2.681   5.071  14.191 -0.2400  2.1747  1.9642
12897TIP3   OH260181   6.803   3.554   6.348  0.7131 -0.3411 -0.1996
12897TIP3    H160182   6.766   3.472   6.315 -1.0592 -0.3127  1.5331
12897TIP3    H260183   6.877   3.527   6.401  1.6064 -0.6108 -1.5420
12898TIP3   OH260184   0.864   4.451   0.185 -0.1749 -0.0316  0.3111
12898TIP3    H160185   0.882   4.443   0.092 -2.1099  0.4580 -0.1671
12898TIP3    H260186   0.899   4.371   0.224  0.0417 -0.5740 -0.9463
12899TIP3   OH260187   4.786   0.795  14.535 -0.1453  0.1698 -0.3149
12899TIP3    H160188   4.699   0.762  14.557 -0.0199 -1.5052 -2.0898
12899TIP3    H260189   4.824   0.822  14.618 -1.2887 -1.7530  0.8942
12900TIP3   OH260190   1.406   2.942   3.486  0.4282 -0.0401 -0.2231
12900TIP3    H160191   1.326   2.897   3.515  0.6793  0.1092  0.7593
12900TIP3    H260192   1.474   2.911   3.546  0.3017  2.7839  1.5715
12901TIP3   OH260193   4.447   5.785  13.546  0.2532 -0.2638  0.0463
12901TIP3    H160194   4.503   5.850  13.589  0.7495 -0.4049 -0.3754
12901TIP3    H260195   4.506   5.713  13.524  0.1459  0.0679 -1.4240
12902TIP3   OH260196   5.517   0.954   4.069 -0.3215  0.4613 -1.2418
12902TIP3    H160197   5.598   1.000   4.047  0.0821  1.1085  1.3055
12902TIP3    H260198   5.509   0.886   4.001  2.0472  0.7203 -1.8777
12903TIP3   OH260199   3.153   2.802   4.376  0.0140 -0.0926  0.2251
12903TIP3    H160200   3.127   2.840   4.292 -0.2273 -0.1172  0.2874
12903TIP3    H260201   3.249   2.801   4.374  0.0527  1.3759  0.6042
12904TIP3   OH260202   5.587   1.425  11.602  0.3699 -0.0181 -0.1223
12904TIP3    H160203   5.653   1.362  11.631  0.8444  0.7482  0.4932
12904TIP3    H260204   5.638   1.499  11.567 -0.1817 -0.3935 -1.7965
12905TIP3   OH260205   5.492   3.718   3.866  0.4082 -0.2378  0.0349
12905TIP3    H160206   5.526   3.800   3.830  2.3415 -0.8737  0.2798
12905TIP3    H260207   5.557   3.693   3.933 -1.3411 -0.8051  1.6034
12906TIP3   OH260208   2.104   0.414  12.836  0.1971  0.5506 -0.0744
12906TIP3    H160209   2.064   0.420  12.923 -2.5920 -0.4019 -1.1721
12906TIP3    H260210   2.118   0.505  12.810 -1.3686  0.9527  0.3699
12907TIP3   OH260211   5.015   4.037   2.972  0.0196  0.3397  0.2478
12907TIP3    H160212   5.059   4.108   3.019  2.3840 -0.4831 -0.5551
12907TIP3    H260213   5.030   4.058   2.880 -1.3054 -0.0100 -0.0614
12908TIP3   OH260214   0.645   2.972  12.835  0.1865 -0.0095 -0.4298
12908TIP3    H160215   0.695   2.959  12.754  0.8844  1.2816 -0.2402
12908TIP3    H260216   0.670   2.898  12.890 -1.6350 -1.8922 -1.9682
12909TIP3   OH260217   0.740   0.617   0.134  0.2250 -0.0593 -0.1388
12909TIP3    H160218   0.657   0.572   0.116  1.0348 -1.6370 -0.0722
12909TIP3    H260219   0.805   0.569   0.082  0.8111  2.4644 -1.9095
12910TIP3   OH260220   4.569   5.704  12.601 -0.4890  0.2296  0.2772
12910TIP3    H160221   4.474   5.701  12.584 -1.0414 -3.1752  2.7568
12910TIP3    H260222   4.576   5.732  12.692  1.0374  1.6802 -0.2545
12911TIP3   OH260223   1.292   4.919   2.439  0.3112 -0.0594 -0.4327
12911TIP3    H160224   1.206   4.950   2.465  0.2860 -0.7866  0.3617
12911TIP3    H260225   1.298   4.831   2.474  1.9312  0.4800  0.7595
12912TIP3   OH260226   5.380   4.568  11.172  0.0468  0.0561 -0.1097
12912TIP3    H160227   5.419   4.481  11.175  1.1238  0.5433  0.6383
12912TIP3    H260228   5.286   4.553  11.187  0.2360 -0.9502  0.1535
12913TIP3   OH260229   4.563   3.273  12.727 -0.5216  0.1495  0.6228
12913TIP3    H160230   4.542   3.182  12.704  0.6155 -0.2189  0.9679
12913TIP3    H260231   4.570   3.318  12.643 -1.5123  0.0298  0.4637
12914TIP3   OH260232   2.093   0.427   6.026  0.4751 -0.0410 -0.2108
12914TIP3    H160233   2.008   0.435   5.984  0.4997  0.6098 -0.1477
12914TIP3    H260234   2.074   0.398   6.115  0.3374 -0.1439 -0.2743
12915TIP3   OH260235   4.781   0.726   4.141 -0.0958  0.3743 -0.6104
12915TIP3    H160236   4.778   0.769   4.056  0.2886  1.1175 -0.2664
12915TIP3    H260237   4.704   0.760   4.187  0.2107  0.7076 -0.3359
12916TIP3   OH260238   4.810   0.321  11.430  0.8962 -0.2340  0.1659
12916TIP3    H160239   4.813   0.415  11.410  2.6752 -0.0463  1.1139
12916TIP3    H260240   4.811   0.278  11.345 -2.1494  0.5585 -0.3913
12917TIP3   OH260241   0.470   5.126   0.302 -0.3165 -0.2792 -0.0719
12917TIP3    H160242   0.532   5.053   0.298 -0.0427 -0.0462 -0.0623
12917TIP3    H260243   0.431   5.120   0.389 -2.1601 -1.9557 -0.9384
12918TIP3   OH260244   1.913   1.281   5.266  0.1002  0.6702 -0.6980
12918TIP3    H160245   1.831   1.302   5.221 -0.7823 -0.3770  0.3275
12918TIP3    H260246   1.903   1.189   5.291  1.5862  0.5380 -0.5283
12919TIP3   OH260247   5.111   4.293   1.046  0.2592  0.3214 -0.1268
12919TIP3    H160248   5.098   4.269   0.954  0.2731 -0.3413  0.0337
12919TIP3    H260249   5.024   4.289   1.085  0.2678  0.5002 -0.0899
12920TIP3   OH260250   1.709   6.287   0.256 -0.1284  0.1140  1.0961
12920TIP3    H160251   1.690   6.223   0.325 -0.1257 -0.5400  0.5092
12920TIP3    H260252   1.757   6.236   0.190 -0.0018  0.7628  0.6835
12921TIP3   OH260253   1.312   4.534   1.192 -0.0113 -0.4960  0.1360
12921TIP3    H160254   1.329   4.511   1.101 -1.1705  0.4214 -0.3416
12921TIP3    H260255   1.398   4.530   1.234  0.8555  0.7700 -1.3966
12922TIP3   OH260256   5.545   2.486   0.246 -0.4828  0.7741 -0.4657
12922TIP3    H160257   5.559   2.575   0.279 -1.8321  0.6609  0.4763
12922TIP3    H260258   5.466   2.455   0.291 -0.9670 -0.3128 -1.9518
12923TIP3   OH260259   6.059   3.322  11.028  0.0276  0.0910  0.2162
12923TIP3    H160260   5.978   3.299  10.983 -1.3763 -3.2665  3.8967
12923TIP3    H260261   6.126   3.271  10.983 -0.7070 -0.5894 -0.1287
12924TIP3   OH260262   4.678   3.450   6.468 -0.2570 -0.3850  0.0208
12924TIP3    H160263   4.638   3.364   6.484 -0.0262 -0.2297  1.6020
12924TIP3    H260264   4.745   3.457   6.535  1.3065  0.0792 -1.5341
12925TIP3   OH260265   1.668   3.319   1.938  0.8481 -0.6965  0.6064
12925TIP3    H160266   1.741   3.275   1.894  1.4209  0.6983  0.1214
12925TIP3    H260267   1.705   3.351   2.020  0.3167 -1.4741  1.1656
12926TIP3   OH260268   3.183   2.329  15.066  0.8868 -0.0263 -0.0952
12926TIP3    H160269   3.099   2.375  15.073  2.0919  2.1585  1.2124
12926TIP3    H260270   3.246   2.389  15.106  3.0321 -1.7468 -0.7227
12927TIP3   OH260271   1.452   4.745   3.689 -0.5632  0.1655  0.1893
12927TIP3    H160272   1.427   4.668   3.741  0.5922  0.5684  1.3885
12927TIP3    H260273   1.371   4.797   3.685 -0.4815  0.6035  2.4964
12928TIP3   OH260274   4.365   5.967  16.641 -0.3142  0.0673  0.6039
12928TIP3    H160275   4.372   5.961  16.546  1.4547  0.5483  0.6716
12928TIP3    H260276   4.436   5.912  16.674 -1.5285 -0.9179  1.6881
12929TIP3   OH260277   1.503   0.304  16.240 -0.2219 -0.5903  0.7648
12929TIP3    H160278   1.563   0.349  16.182  1.8427  0.4236  3.4553
12929TIP3    H260279   1.421   0.354  16.234  0.5339  0.6020  0.1104
12930TIP3   OH260280   1.961   0.249   3.005  0.2202  0.4651  0.6143
12930TIP3    H160281   1.921   0.172   3.044 -0.6910  0.9154  0.5845
12930TIP3    H260282   1.916   0.260   2.921  0.5651  0.8443  0.4756
12931TIP3   OH260283   2.441   1.362   2.036  0.2252 -0.0250 -0.1454
12931TIP3    H160284   2.462   1.454   2.051 -2.3950  0.8076 -0.9878
12931TIP3    H260285   2.516   1.328   1.987  0.3887  2.2208 -1.5963
12932TIP3   OH260286   3.128   2.137  11.909 -0.0633  0.1772  0.2724
12932TIP3    H160287   3.118   2.191  11.831 -1.0508 -1.6410 -0.9427
12932TIP3    H260288   3.080   2.184  11.978 -0.4293  1.0959 -0.5980
12933TIP3   OH260289   0.760   5.487  14.939  0.1584 -0.3333 -0.2542
12933TIP3    H160290   0.724   5.555  14.882 -1.0639 -1.0796 -0.4337
12933TIP3    H260291   0.783   5.532  15.019 -0.5543  0.3175 -0.4041
12934TIP3   OH260292   2.146   1.855  14.983  0.0481 -0.0713  0.3170
12934TIP3    H160293   2.204   1.820  15.051 -0.0323 -0.3721  0.2333
12934TIP3    H260294   2.063   1.872  15.029  0.6200  1.7185  0.7558
12935TIP3   OH260295   6.087   4.650   1.066 -0.1010 -0.5909 -0.2023
12935TIP3    H160296   6.040   4.684   1.142 -0.3770  0.3008 -0.7521
12935TIP3    H260297   6.173   4.626   1.100 -0.1133  0.1038  0.3352
12936TIP3   OH260298   0.594   6.277  17.059 -0.0729  0.4813 -0.1497
12936TIP3    H160299   0.604   6.269  16.964  0.4172  0.1320 -0.0751
12936TIP3    H260300   0.579   6.370  17.074  2.0186  0.9127 -0.4013
12937TIP3   OH260301   5.153   4.468   2.936 -0.1130 -0.2995 -0.5549
12937TIP3    H160302   5.072   4.422   2.912 -0.8476  0.1952  0.8644
12937TIP3    H260303   5.170   4.526   2.862 -2.0841  0.8860 -0.1428
12938TIP3   OH260304   3.953   3.086  16.177 -0.5702  0.1321 -0.2369
12938TIP3    H160305   3.980   2.995  16.174  1.1238  0.5955 -0.0768
12938TIP3    H260306   3.889   3.090  16.247  0.5678 -0.6555  0.8879
12939TIP3   OH260307   4.844   4.512  12.310 -0.1205  0.5200  0.2316
12939TIP3    H160308   4.860   4.418  12.314  0.5635  0.3843 -3.0866
12939TIP3    H260309   4.915   4.546  12.257 -2.7934  2.1648 -2.6000
12940TIP3   OH260310   0.572   1.912   4.118 -0.3062  0.0473 -0.1541
12940TIP3    H160311   0.612   1.940   4.035  0.3618  0.6884  0.3644
12940TIP3    H260312   0.505   1.978   4.135 -0.0439  0.2561  0.0969
12941TIP3   OH260313   4.639   3.943   6.254 -0.2813  0.1209  0.4235
12941TIP3    H160314   4.564   3.897   6.217  0.4933 -0.6007 -0.2940
12941TIP3    H260315   4.667   3.889   6.328  0.2826 -0.2763 -0.0727
12942TIP3   OH260316   4.903   2.184   0.252 -0.1278  0.2417 -0.9763
12942TIP3    H160317   4.993   2.198   0.222 -0.4605  1.6320 -1.4154
12942TIP3    H260318   4.862   2.132   0.183 -0.5095  2.2777 -2.3901
12943TIP3   OH260319   3.864   0.243  14.313  0.1172 -0.0466 -0.1081
12943TIP3    H160320   3.871   0.149  14.330 -0.0331  0.0845  0.7567
12943TIP3    H260321   3.935   0.282  14.366  1.1732  0.2075 -1.6550
12944TIP3   OH260322   2.129   2.844   0.385  0.8675 -0.5645  0.6233
12944TIP3    H160323   2.207   2.890   0.356  1.4205 -0.8811  1.5624
12944TIP3    H260324   2.080   2.908   0.436  0.8404 -0.5587  0.5904
12945TIP3   OH260325   2.574   0.266   3.354 -0.1652  0.0993 -0.4264
12945TIP3    H160326   2.552   0.357   3.334  0.1480  0.1181 -0.7033
12945TIP3    H260327   2.490   0.223   3.368 -0.3288  0.3772 -0.5497
12946TIP3   OH260328   6.112   3.964   5.868  0.0094  0.5715  0.2781
12946TIP3    H160329   6.107   4.031   5.800 -2.3247  0.4344  0.2362
12946TIP3    H260330   6.029   3.971   5.915 -0.3789 -2.3216  0.2003
12947TIP3   OH260331   6.218   2.361   4.717  0.8920  0.1792  0.1719
12947TIP3    H160332   6.244   2.352   4.625  0.4535  1.4388 -0.1055
12947TIP3    H260333   6.298   2.388   4.762  0.9791  0.1110  0.0602
12948TIP3   OH260334   3.857   4.299  13.194  0.3151 -0.8010  0.1363
12948TIP3    H160335   3.815   4.377  13.159  1.3624 -0.2555  0.0367
12948TIP3    H260336   3.785   4.241  13.220 -0.4705 -0.5464 -1.4107
12949TIP3   OH260337   6.612   6.515  16.444 -0.4390 -0.6953  0.3770
12949TIP3    H160338   6.626   6.606  16.470 -0.1758 -0.9196  1.0506
12949TIP3    H260339   6.556   6.521  16.366  1.8670  0.1414 -1.3118
12950TIP3   OH260340   3.768   0.879  12.169  0.0237  0.0927 -0.6325
12950TIP3    H160341   3.737   0.914  12.253 -0.2629 -3.0900  0.7344
12950TIP3    H260342   3.853   0.920  12.156 -0.6169  1.8546  0.3603
12951TIP3   OH260343   4.597   3.742  12.640 -0.7088 -0.0467  0.4920
12951TIP3    H160344   4.665   3.744  12.708  1.1131  0.6138 -1.2702
12951TIP3    H260345   4.590   3.833  12.610 -0.1789 -0.5802 -1.3881
12952TIP3   OH260346   5.148   0.359   5.434  0.3797  0.0520  0.7060
12952TIP3    H160347   5.092   0.436   5.442  0.1263  0.0781 -1.0742
12952TIP3    H260348   5.128   0.323   5.348  0.5129 -1.9999  1.4669
12953TIP3   OH260349   5.213   1.475  15.838 -0.5571  0.2120  0.5562
12953TIP3    H160350   5.214   1.568  15.816 -1.0873 -0.0582 -0.6684
12953TIP3    H260351   5.265   1.433  15.770 -0.7958 -0.4594  0.7763
12954TIP3   OH260352   5.679   0.579  11.799 -0.2065 -0.3883 -0.1534
12954TIP3    H160353   5.668   0.596  11.705 -0.6997 -0.8678 -0.1887
12954TIP3    H260354   5.609   0.630  11.840 -1.4391 -1.9556 -0.2293
12955TIP3   OH260355   6.521   0.603   4.224  0.2697  0.1639 -0.4903
12955TIP3    H160356   6.436   0.647   4.214  0.9123  1.1774 -2.0252
12955TIP3    H260357   6.535   0.559   4.140  1.3073  0.1186 -0.3098
12956TIP3   OH260358   1.256   6.301   2.773 -0.1908 -0.9888 -0.2093
12956TIP3    H160359   1.300   6.386   2.766 -1.7750  0.1057  1.9957
12956TIP3    H260360   1.327   6.238   2.785  0.9823  0.0700 -1.3378
12957TIP3   OH260361   4.023   3.256  17.213  0.3640  0.3370 -0.1641
12957TIP3    H160362   3.946   3.199  17.218  0.2696  0.3894 -0.8591
12957TIP3    H260363   4.097   3.195  17.209  0.2093  0.2115 -1.8525
12958TIP3   OH260364   3.348   0.474  11.105 -0.1451  0.0582  0.0087
12958TIP3    H160365   3.377   0.511  11.022 -1.9626  0.3294 -0.5430
12958TIP3    H260366   3.399   0.522  11.171 -0.3892  1.5642 -0.8340
12959TIP3   OH260367   2.767   1.600  14.632 -0.2248  0.0452 -0.0464
12959TIP3    H160368   2.699   1.572  14.571 -0.7855 -1.4472  1.1947
12959TIP3    H260369   2.730   1.583  14.718  1.7189 -0.7948  0.6754
12960TIP3   OH260370   2.856   3.862  13.008 -0.2839 -0.1251  0.0548
12960TIP3    H160371   2.888   3.889  13.095 -2.0693 -2.6269  1.6327
12960TIP3    H260372   2.761   3.867  13.015 -0.5015 -1.5767 -1.3274
12961TIP3   OH260373   2.840   4.059  15.516 -0.2452 -0.3325 -0.3490
12961TIP3    H160374   2.772   4.124  15.500 -0.0433  0.5143  1.8945
12961TIP3    H260375   2.871   4.035  15.428 -3.2402 -0.6244 -1.4662
12962TIP3   OH260376   2.158   4.114  12.373  0.0985 -0.0669  0.4826
12962TIP3    H160377   2.109   4.192  12.347 -0.5304 -0.1746  1.3170
12962TIP3    H260378   2.155   4.057  12.296 -0.4297  0.2529  0.2590
12963TIP3   OH260379   0.282   1.535   2.281  0.1307 -0.1664  0.1022
12963TIP3    H160380   0.217   1.525   2.211  1.1471 -0.0936 -0.8772
12963TIP3    H260381   0.311   1.626   2.273  0.5838 -0.2899  0.3175
12964TIP3   OH260382   4.337   1.776   2.813  0.0875  0.0898  0.2211
12964TIP3    H160383   4.406   1.709   2.811 -0.4287 -0.4345 -0.6292
12964TIP3    H260384   4.380   1.855   2.782  0.6441  0.1091  1.0009
12965TIP3   OH260385   5.655   2.819  13.720  0.0187 -0.2648  0.4477
12965TIP3    H160386   5.584   2.825  13.655  1.5381  2.2923 -1.1477
12965TIP3    H260387   5.727   2.779  13.672  1.7687  3.3180 -0.2069
12966TIP3   OH260388   1.171   1.333   3.203 -0.2642 -0.3346 -0.6162
12966TIP3    H160389   1.260   1.301   3.220 -0.2268 -0.2844 -0.7199
12966TIP3    H260390   1.154   1.310   3.112 -0.3278 -0.2735 -0.6199
12967TIP3   OH260391   4.914   5.142   2.900 -0.7798 -0.4859  0.0609
12967TIP3    H160392   4.878   5.100   2.822 -3.2600  0.2852  0.7094
12967TIP3    H260393   4.990   5.191   2.868  0.3894 -2.9640 -1.2011
12968TIP3   OH260394   3.002   4.252   0.352  0.3913  0.5478  0.2959
12968TIP3    H160395   3.017   4.280   0.442 -0.0129 -0.0361  0.5488
12968TIP3    H260396   2.924   4.197   0.356 -0.8404  2.1157 -0.7268
12969TIP3   OH260397   4.210   0.125  11.284 -0.0332  0.4020  0.0350
12969TIP3    H160398   4.190   0.183  11.358  0.9029  1.7311 -0.7039
12969TIP3    H260399   4.212   0.184  11.208  1.9465 -0.4111 -0.6082
12970TIP3   OH260400   4.486   4.023   6.563  0.3951  0.5596  0.1238
12970TIP3    H160401   4.446   3.937   6.555 -2.7833  1.7488  1.8175
12970TIP3    H260402   4.431   4.081   6.511  0.6661  2.0652  1.4229
12971TIP3   OH260403   6.702   1.665   6.313 -0.3476 -0.5277  0.3088
12971TIP3    H160404   6.699   1.605   6.387 -0.1025 -1.2777 -0.2830
12971TIP3    H260405   6.615   1.706   6.312  0.7104  2.2546  3.2030
12972TIP3   OH260406   0.635   4.188   3.722  0.5544 -0.4360 -0.1220
12972TIP3    H160407   0.556   4.243   3.717  0.0721 -1.0296  0.7384
12972TIP3    H260408   0.614   4.112   3.668  0.4518 -0.6857  0.2640
12973TIP3   OH260409   4.476   1.258  16.567 -0.4824  0.1644 -0.3488
12973TIP3    H160410   4.439   1.334  16.612  2.0089 -0.0451  2.4305
12973TIP3    H260411   4.555   1.291  16.525 -0.3586 -0.5479 -0.6923
12974TIP3   OH260412   2.491   2.714  11.641  0.1010  0.0355  0.5132
12974TIP3    H160413   2.545   2.651  11.594 -1.5159 -0.6641 -0.5186
12974TIP3    H260414   2.496   2.687  11.732 -0.0049 -1.1858  0.1753
12975TIP3   OH260415   4.042   2.134  12.814  0.2530  0.5869 -0.3540
12975TIP3    H160416   4.121   2.182  12.840  0.6684  0.5892 -1.5681
12975TIP3    H260417   4.074   2.064  12.758 -0.5453  0.1140 -0.2223
12976TIP3   OH260418   1.023   0.383  14.793 -0.1271 -0.1221  0.6355
12976TIP3    H160419   1.038   0.475  14.769  0.7972 -0.2640  0.6474
12976TIP3    H260420   0.997   0.341  14.711 -0.5580  0.1430  0.6299
12977TIP3   OH260421   0.592   3.852  12.113 -0.4510 -0.0230 -0.4478
12977TIP3    H160422   0.607   3.946  12.102 -0.1172 -0.1909 -1.4973
12977TIP3    H260423   0.497   3.843  12.121 -0.5047  0.3721 -0.6360
12978TIP3   OH260424   1.022   5.777   5.450  0.2312 -0.3376 -0.1332
12978TIP3    H160425   1.051   5.760   5.540 -0.8717 -0.0615  0.2947
12978TIP3    H260426   0.980   5.863   5.455 -0.1672 -0.4883 -0.8378
12979TIP3   OH260427   5.291   3.686   0.218  0.2555  0.2570 -0.1727
12979TIP3    H160428   5.326   3.597   0.226 -0.0091  0.2936  1.8856
12979TIP3    H260429   5.262   3.692   0.127  0.9199 -1.5144 -0.5470
12980TIP3   OH260430   4.882   6.351  17.117 -0.2934  0.0074 -0.8748
12980TIP3    H160431   4.798   6.371  17.075  0.2197 -2.3049 -3.2987
12980TIP3    H260432   4.868   6.266  17.158  0.7405 -0.1714 -0.8872
12981TIP3   OH260433   2.229   2.115  11.463  0.4039  0.4078  0.2677
12981TIP3    H160434   2.141   2.134  11.431 -0.1130 -2.8815 -0.6529
12981TIP3    H260435   2.231   2.020  11.473  3.5292  0.4623  1.3519
12982TIP3   OH260436   4.533   2.148   5.333 -0.3876 -0.4093 -0.1571
12982TIP3    H160437   4.526   2.065   5.381 -2.2059 -1.1349 -1.5367
12982TIP3    H260438   4.443   2.170   5.310  0.1788  1.3322 -0.8712
12983TIP3   OH260439   4.095   2.007   0.010 -0.3914  0.0246  0.0295
12983TIP3    H160440   4.122   1.945   0.078 -0.6761 -1.0081 -0.7696
12983TIP3    H260441   4.177   2.049  -0.018  0.2003 -1.6733 -1.0091
12984TIP3   OH260442   5.063   5.080   5.736 -0.1005 -0.6016  0.4298
12984TIP3    H160443   5.135   5.071   5.674  0.5016  1.2721  0.8091
12984TIP3    H260444   5.094   5.143   5.800 -1.4469 -1.0572  1.5765
12985TIP3   OH260445   1.213   2.363  12.920  0.4350  0.3329 -0.3521
12985TIP3    H160446   1.228   2.298  12.852  0.1754 -0.0767 -0.0229
12985TIP3    H260447   1.269   2.437  12.895 -0.2556  0.5141 -1.4485
12986TIP3   OH260448   0.934   3.326   1.502 -0.5236 -0.0405  0.3673
12986TIP3    H160449   0.849   3.369   1.485 -0.5868 -0.1961  0.2911
12986TIP3    H260450   0.975   3.320   1.415 -0.4841 -0.0717  0.3883
12987TIP3   OH260451   3.796   4.134  15.000 -0.0095  0.1128 -0.4143
12987TIP3    H160452   3.857   4.125  15.073  1.3776  1.0012 -1.4170
12987TIP3    H260453   3.715   4.164  15.041 -0.0385 -1.7434  1.0276
12988TIP3   OH260454   6.417   0.717   1.284  0.3745 -0.1352  0.5215
12988TIP3    H160455   6.393   0.634   1.244  0.5986 -0.2901  0.7091
12988TIP3    H260456   6.466   0.693   1.363 -0.8491  0.1505  1.4018
12989TIP3   OH260457   2.595   1.853  16.324 -0.0492  0.0793  0.1243
12989TIP3    H160458   2.642   1.848  16.240  1.0420 -1.2484  0.7816
12989TIP3    H260459   2.657   1.895  16.383 -0.8578  1.1071  0.2648
12990TIP3   OH260460   4.778   3.455  13.554 -0.0055 -0.1498 -0.1852
12990TIP3    H160461   4.784   3.550  13.560 -1.5760 -0.1216  1.9360
12990TIP3    H260462   4.796   3.424  13.643  1.1300 -1.9076 -0.9755
12991TIP3   OH260463   4.031   3.263   6.740 -0.2098  1.1732  0.1202
12991TIP3    H160464   4.061   3.188   6.790  2.8875  1.8225 -0.5265
12991TIP3    H260465   3.982   3.226   6.666 -1.8990  0.0649  1.7270
12992TIP3   OH260466   4.800   1.191   4.956 -0.4260  0.4408 -0.0670
12992TIP3    H160467   4.789   1.183   4.861 -1.3961 -1.4504  0.1587
12992TIP3    H260468   4.720   1.235   4.986 -1.2166 -1.0580  0.0972
12993TIP3   OH260469   4.548   0.364   2.384 -0.1263 -0.3692  0.4479
12993TIP3    H160470   4.519   0.320   2.463 -1.2642 -1.9694 -0.7800
12993TIP3    H260471   4.642   0.376   2.395 -0.0537 -1.7428  1.4778
12994TIP3   OH260472   5.727   2.316  16.289  0.3274 -0.3413  0.2465
12994TIP3    H160473   5.654   2.336  16.347  0.6963 -0.7820  0.8747
12994TIP3    H260474   5.687   2.285  16.208 -0.1794 -0.2234  0.4516
12995TIP3   OH260475   3.102   2.431   5.495 -0.2518 -0.5333 -0.5453
12995TIP3    H160476   3.053   2.354   5.522  2.6891 -2.0641  0.8923
12995TIP3    H260477   3.057   2.504   5.538 -1.7617 -1.6893 -0.0624
12996TIP3   OH260478   1.327   2.079  12.142  0.3785 -0.0529 -0.4920
12996TIP3    H160479   1.261   2.012  12.122 -0.4540  0.4170  0.6020
12996TIP3    H260480   1.362   2.104  12.056 -1.6921  0.5329 -1.2193
12997TIP3   OH260481   2.865   1.339   3.173  0.4405 -0.0954 -0.0523
12997TIP3    H160482   2.890   1.259   3.126  3.1445  2.0866 -2.6443
12997TIP3    H260483   2.792   1.374   3.122  1.0028  0.4182 -0.5157
12998TIP3   OH260484   1.936   3.430   2.828  0.1700  0.6238 -0.1522
12998TIP3    H160485   1.893   3.371   2.889  1.0430  0.4013  0.2740
12998TIP3    H260486   1.866   3.466   2.774 -0.3978 -0.6361 -0.2766
12999TIP3   OH260487   1.403   5.108   1.529  0.5626 -0.2659  0.5932
12999TIP3    H160488   1.483   5.055   1.528  0.7385 -0.0075  0.7219
12999TIP3    H260489   1.413   5.168   1.455  0.4424 -0.2944  0.5528
13000TIP3   OH260490   4.030   2.245   6.228  0.0620  0.0163  0.2104
13000TIP3    H160491   4.000   2.179   6.291  0.5602  0.6414  1.1228
13000TIP3    H260492   4.123   2.226   6.217  0.7048  1.7917  2.0694
13001TIP3   OH260493   4.345   2.994  11.624  0.2123  0.4092  0.3322
13001TIP3    H160494   4.416   2.968  11.565  0.1547  1.0120 -0.0155
13001TIP3    H260495   4.290   3.053  11.571 -3.5760 -3.9719 -1.2967
13002TIP3   OH260496   2.273   4.864  11.966 -0.2351  0.4175 -0.3062
13002TIP3    H160497   2.367   4.862  11.950  0.0368 -0.5095  1.2219
13002TIP3    H260498   2.241   4.938  11.915  1.3030  0.6849 -0.9200
13003TIP3   OH260499   5.292   1.457   2.267  0.0702  0.5094 -0.0630
13003TIP3    H160500   5.250   1.533   2.307 -0.2637  1.4752 -2.1130
13003TIP3    H260501   5.249   1.449   2.182  1.6257 -0.6481 -0.7781
13004TIP3   OH260502   3.914   2.736   3.466  0.9352 -0.1671 -0.3377
13004TIP3    H160503   3.954   2.722   3.551  1.4307  0.8935 -0.3823
13004TIP3    H260504   3.986   2.725   3.403  1.2830  1.9996 -0.4019
13005TIP3   OH260505   0.392   4.224  14.954 -0.1793 -0.0757 -0.5142
13005TIP3    H160506   0.316   4.240  15.010 -1.0075 -1.2642 -1.2649
13005TIP3    H260507   0.429   4.142  14.986 -0.7469 -0.8499 -1.7624
13006TIP3   OH260508   2.415   3.091   1.464  0.1434  0.2983 -0.7860
13006TIP3    H160509   2.322   3.068   1.458 -0.2942  1.5271  0.5488
13006TIP3    H260510   2.418   3.158   1.533  2.3823 -1.6756  1.1948
13007TIP3   OH260511   5.943   4.859  11.863 -0.3331 -0.2966 -0.0987
13007TIP3    H160512   5.951   4.781  11.809 -0.2182 -0.3352 -0.0265
13007TIP3    H260513   5.854   4.891  11.847 -0.0714  0.0861 -0.8422
13008TIP3   OH260514   0.375   3.111  17.236 -1.0981 -0.0557  0.1980
13008TIP3    H160515   0.418   3.158  17.164 -0.8353  1.0280  1.0263
13008TIP3    H260516   0.328   3.180  17.284 -0.9742 -0.6871  1.2595
13009TIP3   OH260517   6.050   4.914  16.488 -0.4846  0.3142  0.1903
13009TIP3    H160518   6.078   4.850  16.423  0.6223 -0.6501  1.5486
13009TIP3    H260519   5.999   4.978  16.439  0.7267 -0.0962 -1.6914
13010TIP3   OH260520   0.621   2.405   5.538 -0.6203 -0.0631 -0.1339
13010TIP3    H160521   0.592   2.437   5.453 -0.1687  0.1939 -0.1948
13010TIP3    H260522   0.541   2.395   5.589 -0.9718 -0.9716 -0.8417
13011TIP3   OH260523   3.672   3.423   5.440 -0.0683  0.0969 -0.1968
13011TIP3    H160524   3.744   3.395   5.384 -0.4146 -0.7932 -0.2083
13011TIP3    H260525   3.663   3.517   5.422  0.5904  0.0617 -0.7507
13012TIP3   OH260526   4.149   1.281  12.086 -0.3357  0.0404 -0.2401
13012TIP3    H160527   4.132   1.187  12.084  0.6311 -0.1583  0.2881
13012TIP3    H260528   4.071   1.319  12.126 -0.2247 -0.6795  0.7043
13013TIP3   OH260529   4.516   3.475  13.213 -0.0087  0.1746 -0.0994
13013TIP3    H160530   4.541   3.455  13.123  0.5319  1.3097 -0.2302
13013TIP3    H260531   4.576   3.545  13.239  0.6274 -0.9060  1.5448
13014TIP3   OH260532   0.689   4.094  16.928 -0.1889  0.8013  0.1133
13014TIP3    H160533   0.711   4.049  16.846 -0.6266  1.6876 -0.4958
13014TIP3    H260534   0.757   4.160  16.938 -0.2934  0.8767  0.3256
13015TIP3   OH260535   6.431   5.973  12.865  0.6748  0.4326  1.0106
13015TIP3    H160536   6.476   6.036  12.808  1.4581 -0.4134  0.6683
13015TIP3    H260537   6.486   5.967  12.943  1.8436 -1.4826  0.0980
13016TIP3   OH260538   0.633   3.198   2.620  0.5482  0.0635 -0.3178
13016TIP3    H160539   0.580   3.276   2.637 -1.6563 -1.7482  1.7173
13016TIP3    H260540   0.697   3.196   2.691 -0.7143 -0.9789  0.8441
13017TIP3   OH260541   6.098   2.342   1.018  0.2949  0.0086  0.4040
13017TIP3    H160542   6.032   2.385   0.962  1.7319  0.3156 -1.1387
13017TIP3    H260543   6.071   2.250   1.020 -0.6072  0.2616  0.4366
13018TIP3   OH260544   4.828   2.402  12.132 -0.0216  0.0262 -0.5242
13018TIP3    H160545   4.859   2.480  12.178  0.2302 -0.3966  0.0273
13018TIP3    H260546   4.797   2.435  12.048 -1.8011  1.0092  0.4781
13019TIP3   OH260547   2.139   5.702  17.244 -0.5721  0.0961 -0.5922
13019TIP3    H160548   2.182   5.618  17.226 -1.0069 -0.0123 -1.1520
13019TIP3    H260549   2.183   5.765  17.187  1.0280  0.6522  1.1611
13020TIP3   OH260550   2.525   5.997  13.632 -0.5826 -0.3054 -0.0643
13020TIP3    H160551   2.600   5.942  13.654  0.3609  0.5888 -0.9045
13020TIP3    H260552   2.522   5.997  13.536 -1.3566  0.0657 -0.0521
13021TIP3   OH260553   1.704   6.636  16.915  0.3930  0.0423  0.3130
13021TIP3    H160554   1.790   6.596  16.903  0.8267  0.9116  0.4496
13021TIP3    H260555   1.689   6.687  16.836 -0.7825 -1.4568 -0.4906
13022TIP3   OH260556   6.307   3.339  11.222  0.1593 -0.0576  0.5218
13022TIP3    H160557   6.385   3.363  11.172  0.7252  1.2516  1.9731
13022TIP3    H260558   6.234   3.377  11.172  0.4323 -1.0492 -0.6897
13023TIP3   OH260559   0.559   2.836   2.286  0.2083 -0.1563 -0.1789
13023TIP3    H160560   0.481   2.814   2.235  1.2622  0.4214 -2.1655
13023TIP3    H260561   0.532   2.910   2.340 -0.7108 -0.1366 -0.6423
13024TIP3   OH260562   6.315   2.611  12.177 -0.2999  0.4490  0.1446
13024TIP3    H160563   6.263   2.550  12.229  0.0188 -0.1800 -0.2675
13024TIP3    H260564   6.283   2.601  12.088  1.2768 -0.7961 -0.3254
13025TIP3   OH260565   5.438   6.565   4.181 -0.2463  0.1232  0.2583
13025TIP3    H160566   5.498   6.550   4.254  1.0760  0.0355 -0.7990
13025TIP3    H260567   5.351   6.559   4.220  0.4089 -0.3643  1.7367
13026TIP3   OH260568   1.964   3.374  13.931 -0.0164  0.2577 -0.1432
13026TIP3    H160569   1.909   3.304  13.895  1.5537 -0.1953 -1.7845
13026TIP3    H260570   1.981   3.432  13.857 -0.7461  2.0763  1.0487
13027TIP3   OH260571   3.090   3.245  11.895 -0.0746 -0.7038 -0.1196
13027TIP3    H160572   3.169   3.192  11.881  0.3137 -0.0289 -0.5185
13027TIP3    H260573   3.102   3.321  11.838  0.4178  0.9327  2.0686
13028TIP3   OH260574   1.139   1.212  13.644 -0.0066  0.3301 -0.2405
13028TIP3    H160575   1.125   1.118  13.633 -0.1448  0.2647  0.4713
13028TIP3    H260576   1.052   1.250  13.639  0.0393  0.4099 -0.4324
13029TIP3   OH260577   0.547   1.946  12.949  0.3120  0.1456  0.5041
13029TIP3    H160578   0.462   1.902  12.955  0.9776 -1.2236  0.1267
13029TIP3    H260579   0.535   2.026  13.001 -1.1626 -0.0790  0.5664
13030TIP3   OH260580   2.951   3.606  15.026  0.2641 -0.1831 -0.0790
13030TIP3    H160581   3.002   3.640  15.100 -1.4257 -0.3034  1.1908
13030TIP3    H260582   2.928   3.684  14.976  0.8528 -0.0282 -0.1169
13031TIP3   OH260583   4.821   4.396  13.808  0.3232 -0.3472  0.1605
13031TIP3    H160584   4.749   4.459  13.816  0.6361 -0.1377  1.6361
13031TIP3    H260585   4.778   4.310  13.811 -0.0186 -0.2189 -0.8506
13032TIP3   OH260586   3.390   4.114  13.230 -0.0115 -0.3894  0.3000
13032TIP3    H160587   3.432   4.194  13.199  0.0012 -0.9372 -1.1292
13032TIP3    H260588   3.463   4.061  13.263  0.2338 -0.6468 -0.6353
13033TIP3   OH260589   4.982   1.118  14.118 -0.2020  0.0792 -0.4776
13033TIP3    H160590   4.925   1.073  14.180 -0.3843 -1.6024 -1.7988
13033TIP3    H260591   4.950   1.208  14.118 -0.5289  0.0155  1.4444
13034TIP3   OH260592   4.938   3.064   1.458  0.3440 -0.4793  0.1770
13034TIP3    H160593   4.872   3.100   1.399  0.7525  1.7266  0.9563
13034TIP3    H260594   4.946   2.972   1.433 -0.2375  0.1235 -2.4865
13035TIP3   OH260595   3.644   3.592   0.017 -0.3947  0.3506 -0.1259
13035TIP3    H160596   3.666   3.614   0.107 -0.4773 -0.2399  0.0429
13035TIP3    H260597   3.549   3.591   0.015 -0.4180 -1.3836  0.2383
13036TIP3   OH260598   2.524   2.974   3.613 -0.6169 -0.1651  0.1794
13036TIP3    H160599   2.549   2.894   3.567 -1.2963 -0.6393  0.6131
13036TIP3    H260600   2.526   3.042   3.546  1.0747 -0.3040  0.0287
13037TIP3   OH260601   1.996   6.266   1.938 -0.1757  0.3419 -0.1780
13037TIP3    H160602   2.016   6.328   1.868 -0.8858 -0.8294 -1.4725
13037TIP3    H260603   1.982   6.320   2.015  1.2623  1.6280 -0.7826
13038TIP3   OH260604   5.407   3.026  12.711 -0.4486  0.7739 -0.1370
13038TIP3    H160605   5.482   2.966  12.712 -0.9455  0.1524  0.4416
13038TIP3    H260606   5.390   3.046  12.803 -1.7139 -0.0108 -0.1807
13039TIP3   OH260607   6.428   2.639  16.255  0.4807 -0.0414  0.1570
13039TIP3    H160608   6.498   2.596  16.304  1.1628  0.1706 -0.6135
13039TIP3    H260609   6.471   2.673  16.177 -0.6252 -0.5544 -0.7011
13040TIP3   OH260610   3.593   5.433   6.256 -0.6627  0.1263 -0.4315
13040TIP3    H160611   3.572   5.359   6.313 -4.0450  0.7845 -0.5996
13040TIP3    H260612   3.629   5.499   6.316 -2.2681  0.0707  0.6781
13041TIP3   OH260613   2.840   0.231   4.949  0.4404  0.0421 -0.0873
13041TIP3    H160614   2.860   0.152   4.899  1.3063 -0.6881  1.3517
13041TIP3    H260615   2.852   0.206   5.040 -0.3412  1.5478  0.4756
13042TIP3   OH260616   3.854   0.449   2.830  0.6855  0.0912 -0.3705
13042TIP3    H160617   3.861   0.436   2.925  1.8359  0.4878 -0.3912
13042TIP3    H260618   3.835   0.542   2.820 -0.4677 -0.1410 -0.5075
13043TIP3   OH260619   2.282   4.281  16.094  0.3629  0.4892  0.0816
13043TIP3    H160620   2.269   4.373  16.068  2.6496  1.2899  1.4426
13043TIP3    H260621   2.349   4.248  16.034 -0.9341 -0.5626 -0.8470
13044TIP3   OH260622   2.562   6.004  16.083 -0.1914  0.1495  0.0481
13044TIP3    H160623   2.506   6.000  16.006 -0.8370 -0.4449  0.5250
13044TIP3    H260624   2.640   5.955  16.058 -0.1704  0.4074 -0.4014
13045TIP3   OH260625   5.862   4.940  14.648 -0.5477 -0.2154  0.1154
13045TIP3    H160626   5.864   4.916  14.555  0.2200 -1.4944  0.4443
13045TIP3    H260627   5.804   5.016  14.651 -0.4224 -0.0147 -1.4398
13046TIP3   OH260628   5.388   0.306   1.844 -0.3188  0.0789  0.2798
13046TIP3    H160629   5.429   0.279   1.762  2.2999  0.9701  1.1825
13046TIP3    H260630   5.427   0.249   1.910 -0.4861  1.0150  1.2145
13047TIP3   OH260631   2.325   3.996  14.406  0.0896  0.1745  0.1907
13047TIP3    H160632   2.393   3.932  14.385 -0.5524 -0.9576  1.4010
13047TIP3    H260633   2.261   3.987  14.335 -0.9512 -1.9739  1.3193
13048TIP3   OH260634   4.653   4.927   5.841  0.2638  0.0303 -0.7790
13048TIP3    H160635   4.689   4.852   5.793 -2.0376 -0.2420 -2.2224
13048TIP3    H260636   4.682   5.003   5.792  0.0745 -0.1015 -1.1010
13049TIP3   OH260637   2.293   5.943  16.189 -0.3581  0.4320 -0.0571
13049TIP3    H160638   2.365   5.924  16.130 -1.7665 -0.3359 -1.6291
13049TIP3    H260639   2.263   5.857  16.218 -2.2609  0.5295 -1.5330
13050TIP3   OH260640   3.007   2.052  12.300 -0.9506  0.5225 -0.1992
13050TIP3    H160641   2.999   2.127  12.240  0.7249  0.8837 -0.0133
13050TIP3    H260642   3.086   2.007  12.271 -0.3890  0.4086  1.4235
13051TIP3   OH260643   0.311   6.030   2.814 -0.6115  0.0340 -0.5772
13051TIP3    H160644   0.399   6.061   2.792 -0.7831  0.5405 -0.5468
13051TIP3    H260645   0.303   6.044   2.908 -0.1171 -1.5462 -0.2569
13052TIP3   OH260646   4.703   4.294  11.908  0.0571 -0.4720  0.0679
13052TIP3    H160647   4.655   4.224  11.863  1.3142 -0.3770 -1.5079
13052TIP3    H260648   4.788   4.255  11.929  0.0363 -0.0260  1.0422
13053TIP3   OH260649   5.307   4.516  14.071 -0.0028  0.2534 -0.3636
13053TIP3    H160650   5.220   4.554  14.081  0.0685  0.9085 -1.9006
13053TIP3    H260651   5.292   4.432  14.028  0.1411  0.5016 -0.9011
13054TIP3   OH260652   4.304   0.277  12.904 -0.2640 -0.0265 -0.6926
13054TIP3    H160653   4.331   0.233  12.824  0.6985  2.0975 -1.6066
13054TIP3    H260654   4.280   0.365  12.876  0.4695  0.8967  1.3798
13055TIP3   OH260655   0.113   4.415  12.934 -0.3033 -0.0226 -0.2753
13055TIP3    H160656   0.042   4.478  12.949  1.0634  1.9032 -1.3679
13055TIP3    H260657   0.156   4.447  12.855 -0.4250 -3.2351 -1.8097
13056TIP3   OH260658   1.925   0.730   5.956  0.1076  0.5272 -0.4507
13056TIP3    H160659   1.898   0.640   5.934  0.0456  0.0875  1.2776
13056TIP3    H260660   2.007   0.719   6.003 -0.8745  1.1536  1.5492
13057TIP3   OH260661   1.895   0.628   5.629  0.0300  0.1175 -0.4178
13057TIP3    H160662   1.925   0.601   5.715  1.7991  0.9809 -0.7233
13057TIP3    H260663   1.949   0.704   5.607 -1.4197  0.8572 -1.6546
13058TIP3   OH260664   5.691   5.033  10.641  0.2416 -0.1787 -0.3208
13058TIP3    H160665   5.645   5.087  10.576 -1.7555 -0.9318  0.4028
13058TIP3    H260666   5.655   4.945  10.629  0.6470 -0.5567  1.0809
13059TIP3   OH260667   6.048   2.502  13.961  0.3433  0.6773 -0.2866
13059TIP3    H160668   6.025   2.435  14.026  0.2583  1.7883  0.8793
13059TIP3    H260669   6.010   2.470  13.879  2.5910 -2.0391 -0.4257
13060TIP3   OH260670   1.412   5.712  15.438  0.3208  0.1559  0.2626
13060TIP3    H160671   1.423   5.642  15.374  0.6961  1.3372 -1.0021
13060TIP3    H260672   1.467   5.685  15.512  0.5999 -0.7990 -0.2792
13061TIP3   OH260673   5.454   6.811   1.105  0.1496 -0.3429  0.2937
13061TIP3    H160674   5.400   6.771   1.172  1.4779 -0.8202  1.1324
13061TIP3    H260675   5.499   6.883   1.151 -0.2726  0.4819 -0.5489
13062TIP3   OH260676   3.774   3.474  16.808 -0.0035 -0.9117  0.1176
13062TIP3    H160677   3.765   3.455  16.901 -0.7000 -0.4165  0.1651
13062TIP3    H260678   3.812   3.562  16.805 -1.6618 -0.1627 -0.0277
13063TIP3   OH260679   5.019   0.367  17.192 -0.2488  0.5908 -0.1201
13063TIP3    H160680   5.108   0.339  17.213 -0.0519  1.4266  0.1928
13063TIP3    H260681   5.028   0.458  17.164 -0.9653  0.5851 -0.4005
13064TIP3   OH260682   0.586   2.524  15.718  0.3710 -0.0650  0.1769
13064TIP3    H160683   0.511   2.496  15.666  0.9292 -0.6194 -0.3497
13064TIP3    H260684   0.613   2.445  15.765  0.7653  0.0799  0.1936
13065TIP3   OH260685   5.313   1.336  15.618 -0.2034 -0.9210  0.1973
13065TIP3    H160686   5.303   1.313  15.525 -1.1583  0.4619 -0.0689
13065TIP3    H260687   5.248   1.282  15.663  0.4900 -1.8443  0.1208
13066TIP3   OH260688   0.195   4.983  11.745 -0.0407  0.3709  0.3762
13066TIP3    H160689   0.133   4.948  11.681  0.1308  0.8212 -0.0405
13066TIP3    H260690   0.277   4.937  11.726  0.0525  0.6235  0.1635
13067TIP3   OH260691   2.524   2.262   4.892  0.4817  0.4261 -0.1020
13067TIP3    H160692   2.504   2.342   4.844  0.6103 -0.4045 -1.5790
13067TIP3    H260693   2.440   2.218   4.902  0.5889  0.1478 -0.4060
13068TIP3   OH260694   0.978   3.176  15.686  0.2210 -0.1430 -0.1106
13068TIP3    H160695   0.963   3.082  15.686  0.7056 -0.2305  0.6339
13068TIP3    H260696   1.035   3.191  15.762  1.4983  0.5378 -1.1643
13069TIP3   OH260697   2.669   5.255  14.529  0.6751 -0.1665 -0.2537
13069TIP3    H160698   2.574   5.242  14.518  0.2173  1.3761  1.5075
13069TIP3    H260699   2.690   5.329  14.472  0.6578  0.0586  0.0351
13070TIP3   OH260700   6.463   4.433  12.376  0.6101  0.2223  0.1157
13070TIP3    H160701   6.450   4.357  12.432 -1.3644 -0.7019 -1.4717
13070TIP3    H260702   6.558   4.437  12.363  0.8285 -1.4455  0.9242
13071TIP3   OH260703   2.600   6.417   5.165  0.3262 -0.0093  0.3134
13071TIP3    H160704   2.575   6.390   5.253 -1.1838 -1.1896 -0.4350
13071TIP3    H260705   2.673   6.360   5.142  0.9507  0.5340  0.9095
13072TIP3   OH260706   5.008   2.344  10.762 -0.4506  0.0162 -0.2358
13072TIP3    H160707   4.924   2.378  10.791 -0.2201  0.7908 -0.4473
13072TIP3    H260708   5.068   2.418  10.770  0.0370 -0.3021 -0.8295
13073TIP3   OH260709   3.512   5.336  11.971 -0.4671 -0.1424  0.0743
13073TIP3    H160710   3.480   5.327  11.882 -2.9501  0.5287  0.8359
13073TIP3    H260711   3.445   5.386  12.017  0.7732 -0.3734  2.3170
13074TIP3   OH260712   4.361   6.162   1.415  0.1534  0.0600  0.2341
13074TIP3    H160713   4.302   6.114   1.357  0.9898 -1.5048  0.6302
13074TIP3    H260714   4.321   6.152   1.502 -0.5119  1.4749  0.1251
13075TIP3   OH260715   2.741   0.782  13.868 -0.5373 -0.0741 -0.0715
13075TIP3    H160716   2.752   0.808  13.777  0.1483 -1.9713 -0.5644
13075TIP3    H260717   2.648   0.794  13.886 -0.8103 -0.3654 -1.2406
13076TIP3   OH260718   1.626   1.822  13.748  0.6848  0.0873  0.4717
13076TIP3    H160719   1.567   1.746  13.747  0.5824  0.0971  2.0685
13076TIP3    H260720   1.581   1.888  13.696  0.1600 -0.5170  0.1327
13077TIP3   OH260721   0.689   5.523  15.333  0.1224  0.0771 -0.2362
13077TIP3    H160722   0.726   5.574  15.261  2.7738 -0.5651  0.5735
13077TIP3    H260723   0.725   5.563  15.412 -3.0701  1.0567  0.8955
13078TIP3   OH260724   1.658   1.375  16.186 -0.0354  0.2765 -0.3581
13078TIP3    H160725   1.657   1.408  16.276 -0.8072  1.8542 -0.9162
13078TIP3    H260726   1.697   1.445  16.134 -2.7465  0.8907 -1.7491
13079TIP3   OH260727   2.544   5.087  12.111  0.1503  0.2485 -0.1263
13079TIP3    H160728   2.534   5.053  12.200  2.7162 -0.6552 -0.1066
13079TIP3    H260729   2.565   5.010  12.058 -2.2056  0.6266 -1.7566
13080TIP3   OH260730   3.217   3.416  11.035 -0.0531  0.7050  0.3990
13080TIP3    H160731   3.259   3.446  10.955  2.7500 -0.0988  1.4609
13080TIP3    H260732   3.195   3.324  11.017  2.8132 -0.2601  1.2113
13081TIP3   OH260733   4.210   4.179  11.424  0.0475  0.4230  0.2836
13081TIP3    H160734   4.161   4.226  11.357  0.0472 -0.3112 -0.2485
13081TIP3    H260735   4.147   4.167  11.495  0.1190  1.4199  0.5318
13082TIP3   OH260736   3.386   6.551   2.499 -0.3122  0.0173 -0.1220
13082TIP3    H160737   3.299   6.530   2.465  0.5355 -0.0233 -2.4696
13082TIP3    H260738   3.371   6.625   2.558 -1.9987 -0.4179  0.0610
13083TIP3   OH260739   5.044   3.635  14.898 -0.4589 -0.3420 -0.4537
13083TIP3    H160740   5.056   3.719  14.853 -0.2727  0.2062  0.6048
13083TIP3    H260741   5.021   3.658  14.988 -0.1764 -1.4293 -0.0833
13084TIP3   OH260742   6.286   5.328  13.545  0.3418  0.1582 -0.0015
13084TIP3    H160743   6.367   5.308  13.591  0.1953 -1.4875 -0.4138
13084TIP3    H260744   6.274   5.422  13.558  1.5580  0.1690  1.2678
13085TIP3   OH260745   1.706   5.293  15.953  0.0757 -0.1989 -0.1357
13085TIP3    H160746   1.644   5.245  16.008 -1.3245  1.3783 -0.2345
13085TIP3    H260747   1.687   5.263  15.864 -0.1301 -0.1786 -0.1008
13086TIP3   OH260748   5.347   1.672  13.564  0.0748 -0.1571  0.4100
13086TIP3    H160749   5.419   1.729  13.592  0.6226  0.5827 -2.1621
13086TIP3    H260750   5.271   1.730  13.561  0.9892  1.2440 -4.0033
13087TIP3   OH260751   4.830   0.571   3.183  0.3533  0.0569  0.0002
13087TIP3    H160752   4.773   0.509   3.229  0.2206 -0.6987 -1.1259
13087TIP3    H260753   4.786   0.656   3.194 -0.8470 -0.4608 -0.5836
13088TIP3   OH260754   4.223   2.789   5.651  0.3191  0.1539 -0.0589
13088TIP3    H160755   4.290   2.735   5.610  1.8090  1.9367 -0.1167
13088TIP3    H260756   4.227   2.765   5.744  0.8688  0.0411 -0.1061
13089TIP3   OH260757   4.539   3.303  13.495 -0.4914 -0.1370  0.0888
13089TIP3    H160758   4.617   3.359  13.486 -0.6802  0.0735 -0.2508
13089TIP3    H260759   4.481   3.332  13.425 -0.4214 -1.0416 -0.3503
13090TIP3   OH260760   3.579   4.463  16.309  0.1665  0.5332  0.2778
13090TIP3    H160761   3.557   4.371  16.292  0.2226  0.6824 -0.6427
13090TIP3    H260762   3.552   4.509  16.229  1.3272  1.1206  0.2078
13091TIP3   OH260763   3.662   0.313   3.395  0.0315 -0.3525  0.2918
13091TIP3    H160764   3.604   0.387   3.415 -0.1005 -0.6927  1.1941
13091TIP3    H260765   3.662   0.309   3.299 -1.6074 -0.4628  0.2569
13092TIP3   OH260766   3.341   2.023   4.985  0.7766 -0.2911 -0.4922
13092TIP3    H160767   3.340   1.943   5.036  3.2454  0.2573  0.5474
13092TIP3    H260768   3.382   2.088   5.042  0.7439  1.1802 -2.0520
13093TIP3   OH260769   5.175   4.119   1.529  0.3730  0.3281  0.0295
13093TIP3    H160770   5.220   4.166   1.459 -0.5415  1.1825 -0.0035
13093TIP3    H260771   5.099   4.080   1.485 -0.4024  1.1643  0.5968
13094TIP3   OH260772   2.529   3.702  16.594  0.0188 -0.0155  0.0735
13094TIP3    H160773   2.589   3.713  16.520  0.4644 -2.1472  0.0343
13094TIP3    H260774   2.570   3.750  16.665  1.7046 -1.1928 -0.0274
13095TIP3   OH260775   5.856   4.866   2.478 -0.1919 -0.0030 -1.1126
13095TIP3    H160776   5.762   4.882   2.474 -0.1993  0.4410  0.4317
13095TIP3    H260777   5.864   4.773   2.498 -0.3619  0.2955  0.4675
13096TIP3   OH260778   3.818   1.587  13.919 -0.0082  0.2977 -0.0089
13096TIP3    H160779   3.889   1.645  13.891  0.8386 -0.5894  0.2249
13096TIP3    H260780   3.851   1.499  13.899 -1.5958 -0.0858 -1.1434
13097TIP3   OH260781   1.398   1.984  13.708  0.3920  0.5777  0.4328
13097TIP3    H160782   1.401   2.070  13.666  1.0466  0.2706 -0.1766
13097TIP3    H260783   1.419   2.001  13.800 -0.2891  1.1685  0.4828
13098TIP3   OH260784   4.471   1.259   4.723 -0.2678 -0.3655  0.0122
13098TIP3    H160785   4.438   1.346   4.698 -1.5284 -0.7413  0.3330
13098TIP3    H260786   4.488   1.267   4.817  0.0506 -0.3420 -0.0450
13099TIP3   OH260787   1.523   5.289   2.558 -0.7661  0.1129 -0.2804
13099TIP3    H160788   1.496   5.378   2.581 -1.5116  0.1164 -1.1021
13099TIP3    H260789   1.512   5.239   2.638 -3.1377  0.1516 -0.5074
13100TIP3   OH260790   2.545   2.875   5.417  0.3768  0.2122  0.1885
13100TIP3    H160791   2.491   2.865   5.495  1.4126  0.5468  0.9689
13100TIP3    H260792   2.484   2.903   5.349 -0.6133 -0.4810  0.7642
13101TIP3   OH260793   4.087   4.715  16.912 -0.0303  0.0563 -0.8151
13101TIP3    H160794   4.005   4.725  16.863  0.5803  1.9973 -1.5333
13101TIP3    H260795   4.149   4.771  16.866  2.4594 -3.2736 -1.8381
13102TIP3   OH260796   4.195   1.181   3.518  0.1557  0.1389  0.1710
13102TIP3    H160797   4.134   1.130   3.572 -1.1362  0.3319 -1.0611
13102TIP3    H260798   4.197   1.267   3.560 -1.2147  0.4367 -0.2944
13103TIP3   OH260799   4.205   1.627   1.727  0.4161 -0.6140 -0.2102
13103TIP3    H160800   4.257   1.613   1.806 -0.9148 -1.3935  0.5673
13103TIP3    H260801   4.171   1.716   1.737  1.1533 -0.2914 -0.4751
13104TIP3   OH260802   5.715   0.427   1.686 -0.7789  0.3950  0.3777
13104TIP3    H160803   5.751   0.445   1.599 -2.6760  0.6581 -0.4065
13104TIP3    H260804   5.621   0.415   1.671 -1.0162 -0.4458  2.2800
13105TIP3   OH260805   2.519   2.273   2.629  1.6895  0.3767  0.2261
13105TIP3    H160806   2.488   2.245   2.543  0.7328 -0.3922  0.7932
13105TIP3    H260807   2.456   2.340   2.656  1.4313 -0.0555  0.7137
13106TIP3   OH260808   0.118   1.522  13.397 -0.1640  0.3746 -0.2237
13106TIP3    H160809   0.139   1.518  13.490  0.7757  0.2564 -0.4311
13106TIP3    H260810   0.050   1.589  13.390  0.5039  1.1247  0.4166
13107TIP3   OH260811   3.807   3.317  16.299 -0.4547  0.3979  0.3246
13107TIP3    H160812   3.778   3.271  16.378  0.9143 -0.9459  0.0940
13107TIP3    H260813   3.881   3.265  16.267 -0.0460  1.7433 -1.0231
13108TIP3   OH260814   2.116   6.327   3.484 -0.3512 -0.1532  0.4250
13108TIP3    H160815   2.098   6.279   3.564  1.3875 -0.5185  0.6401
13108TIP3    H260816   2.102   6.419   3.507  0.2812 -0.2448  1.1930
13109TIP3   OH260817   4.696   3.102   1.321  0.5503  0.8790  0.3384
13109TIP3    H160818   4.669   3.017   1.356  1.6677  0.6956  0.7650
13109TIP3    H260819   4.643   3.112   1.242 -0.3587  0.2735  0.8441
13110TIP3   OH260820   2.543   3.476  12.681  0.5898  0.0511 -0.1185
13110TIP3    H160821   2.625   3.428  12.670  0.3818 -0.4412  0.3995
13110TIP3    H260822   2.514   3.494  12.591  0.2981 -1.4712 -0.3637
13111TIP3   OH260823   4.475   1.472  13.047  1.0476  0.3677 -0.5561
13111TIP3    H160824   4.462   1.400  12.986  1.2527  1.2232 -1.6384
13111TIP3    H260825   4.463   1.551  12.994  1.7217  1.1364  0.4033
13112TIP3   OH260826   3.681   4.940   0.574 -0.0163  0.7981 -0.2299
13112TIP3    H160827   3.760   4.886   0.575 -0.7054 -0.4056  2.9252
13112TIP3    H260828   3.691   4.996   0.498  3.1853 -0.2712 -0.7615
13113TIP3   OH260829   6.069   6.444  15.485  0.0285 -0.4086 -0.2738
13113TIP3    H160830   6.018   6.522  15.506  0.0117 -0.8592  1.5901
13113TIP3    H260831   6.026   6.407  15.408 -2.6547 -0.8753  1.3286
13114TIP3   OH260832   1.822   6.131  12.222  0.3939 -0.3974  0.2730
13114TIP3    H160833   1.909   6.133  12.263  0.2727  1.1670  0.5167
13114TIP3    H260834   1.840   6.124  12.128  0.7850 -0.1918  0.3296
13115TIP3   OH260835   6.139   2.027   3.765  0.2007 -0.2072 -0.2622
13115TIP3    H160836   6.089   1.950   3.793  0.1567  0.2718  1.0507
13115TIP3    H260837   6.078   2.101   3.776  0.7174  0.1971 -0.0679
13116TIP3   OH260838   4.064   4.817   4.186  0.0265 -0.0668 -0.2865
13116TIP3    H160839   3.995   4.804   4.121  0.4060 -2.1365 -0.3557
13116TIP3    H260840   4.144   4.825   4.135  0.1833 -0.5906 -0.1319
13117TIP3   OH260841   0.951   3.482  12.492  0.1664  0.4320 -0.3018
13117TIP3    H160842   0.964   3.472  12.398  0.3692  0.6189 -0.2948
13117TIP3    H260843   0.919   3.572  12.503 -2.0844 -0.2818 -0.4135
13118TIP3   OH260844   0.701   3.130   3.894  0.3729 -0.3150  0.0648
13118TIP3    H160845   0.759   3.178   3.953 -0.1881 -0.3704  0.6755
13118TIP3    H260846   0.684   3.047   3.940 -0.9456  0.0878  0.3504
13119TIP3   OH260847   0.098   3.102  13.227  0.2713 -0.0446 -0.3596
13119TIP3    H160848   0.133   3.101  13.316  0.6100 -0.2460 -0.4937
13119TIP3    H260849   0.154   3.163  13.179 -0.1218  0.3278 -0.3545
13120TIP3   OH260850   6.523   1.997  15.009 -0.4630 -0.2097  0.3626
13120TIP3    H160851   6.549   1.975  14.920 -2.4741 -2.5458  0.2181
13120TIP3    H260852   6.604   1.992  15.060  0.5017 -0.1576 -1.1094
13121TIP3   OH260853   5.533   4.417  16.379 -0.5900 -0.2131  0.1400
13121TIP3    H160854   5.491   4.383  16.458 -1.3890  0.9049  0.2161
13121TIP3    H260855   5.566   4.503  16.404 -0.0969 -0.2016 -0.5113
13122TIP3   OH260856   1.985   1.434   2.439 -0.7315  0.0364 -0.2651
13122TIP3    H160857   1.997   1.340   2.431 -2.9485 -0.3194 -0.2298
13122TIP3    H260858   1.934   1.458   2.361  1.3902  1.5792 -1.2688
13123TIP3   OH260859   5.211   5.794  15.252  0.3875  0.7515  0.7708
13123TIP3    H160860   5.208   5.877  15.299 -0.2218  1.2979 -0.1869
13123TIP3    H260861   5.276   5.741  15.299  0.7598  1.7545  1.4066
13124TIP3   OH260862   0.832   3.126  14.313 -0.0689  0.4694  0.4665
13124TIP3    H160863   0.925   3.121  14.293 -0.2936 -1.3565 -0.2936
13124TIP3    H260864   0.798   3.040  14.290 -1.8110  0.8481  1.4572
13125TIP3   OH260865   3.448   4.437  11.257  0.0648  0.3936  0.1398
13125TIP3    H160866   3.494   4.358  11.284 -0.9571 -1.5739 -3.2495
13125TIP3    H260867   3.518   4.499  11.235  0.9249 -0.2085  1.0775
13126TIP3   OH260868   3.532   6.359  13.046 -0.6447  0.5998  0.3335
13126TIP3    H160869   3.557   6.321  12.962 -1.0921 -0.4188  0.6501
13126TIP3    H260870   3.614   6.372  13.093 -0.3014  2.0731 -0.6117
13127TIP3   OH260871   5.922   5.691   0.388  0.0845  0.1780  0.1207
13127TIP3    H160872   5.958   5.603   0.371 -0.3218  0.2874 -1.4525
13127TIP3    H260873   5.840   5.693   0.338  0.8348  1.9711 -1.1020
13128TIP3   OH260874   6.411   4.787  12.021 -0.7685  0.4579 -0.1980
13128TIP3    H160875   6.335   4.729  12.018  0.2878 -0.9967 -0.0323
13128TIP3    H260876   6.454   4.775  11.937  1.0491 -1.3282  0.8788
13129TIP3   OH260877   4.241   5.483  15.335 -0.5226 -0.2953  0.4658
13129TIP3    H160878   4.186   5.475  15.412 -1.1038 -1.6728 -0.0520
13129TIP3    H260879   4.229   5.400  15.288  1.7179 -0.5190  0.1512
13130TIP3   OH260880   4.170   2.839   2.967  0.4694 -0.0417  0.0318
13130TIP3    H160881   4.251   2.818   3.014  0.5833 -0.8985 -0.5199
13130TIP3    H260882   4.176   2.933   2.950  2.1032 -0.3353 -1.3556
13131TIP3   OH260883   1.144   1.663  11.116 -0.1364 -0.4244 -0.1541
13131TIP3    H160884   1.132   1.568  11.109 -0.7237 -0.3076 -0.7616
13131TIP3    H260885   1.089   1.699  11.047  2.0075  0.2574 -1.6073
13132TIP3   OH260886   3.104   3.942  13.983 -0.3563 -0.3055  0.4518
13132TIP3    H160887   3.199   3.931  13.990 -0.2471  1.1895  2.3677
13132TIP3    H260888   3.093   4.018  13.926 -0.4399 -0.7280 -0.1044
13133TIP3   OH260889   3.611   0.608  14.772 -0.1093  0.0815  0.4891
13133TIP3    H160890   3.527   0.572  14.746  0.6140 -1.8863  0.7218
13133TIP3    H260891   3.643   0.654  14.694 -0.9911  0.1182  0.1365
13134TIP3   OH260892   0.934   2.868  17.026 -0.1414  0.0910  0.2204
13134TIP3    H160893   0.919   2.808  16.953  0.7895  0.3197 -0.1621
13134TIP3    H260894   0.902   2.820  17.103 -3.5923  0.8394 -0.5839
13135TIP3   OH260895   4.366   0.377  14.763 -0.1327  0.4608 -0.4465
13135TIP3    H160896   4.433   0.395  14.829 -0.7533 -0.4888  0.4743
13135TIP3    H260897   4.337   0.288  14.782 -0.4978  0.2527 -1.8707
13136TIP3   OH260898   5.775   1.901  12.192 -0.3231  0.2655  0.1904
13136TIP3    H160899   5.757   1.933  12.281 -0.2894  0.0184  0.2850
13136TIP3    H260900   5.689   1.900  12.149 -0.9606 -2.9916  1.2981
13137TIP3   OH260901   3.739   5.717   4.878 -0.0903 -0.0792  0.3418
13137TIP3    H160902   3.673   5.782   4.902 -1.3824 -0.5021 -1.7237
13137TIP3    H260903   3.700   5.671   4.803  1.8655 -1.4968  0.1230
13138TIP3   OH260904   1.321   5.856   5.947 -0.2014  0.0410 -0.1893
13138TIP3    H160905   1.321   5.932   6.006 -2.7519  1.0584 -1.3548
13138TIP3    H260906   1.263   5.793   5.990  1.0810 -0.8601  0.2643
13139TIP3   OH260907   3.788   2.193  13.361  0.0220 -0.0272  0.3579
13139TIP3    H160908   3.755   2.281  13.381  2.8625  1.0396  0.7733
13139TIP3    H260909   3.810   2.156  13.446 -1.9096 -1.5602  0.2661
13140TIP3   OH260910   2.458   0.563   0.346  0.0376 -0.0785  0.7589
13140TIP3    H160911   2.521   0.491   0.357  1.1266  0.9014  1.0541
13140TIP3    H260912   2.490   0.632   0.403 -0.3930  1.0535 -0.3363
13141TIP3   OH260913   6.639   3.057  14.708  0.2418  0.1913  0.3596
13141TIP3    H160914   6.709   3.055  14.773  1.9178  1.1708 -1.3279
13141TIP3    H260915   6.570   3.001  14.745  1.1321  0.6607  2.9035
13142TIP3   OH260916   2.476   3.331   3.788 -0.3070 -0.0771 -0.2216
13142TIP3    H160917   2.444   3.309   3.875  0.0719  1.6788  0.3990
13142TIP3    H260918   2.463   3.251   3.737 -1.3563 -0.8586  1.1992
13143TIP3   OH260919   1.567   3.158  11.112 -0.3001  0.3013 -0.1952
13143TIP3    H160920   1.625   3.082  11.109 -0.1567  0.3694  0.5799
13143TIP3    H260921   1.525   3.160  11.026  0.2059 -0.2505 -0.4607
13144TIP3   OH260922   1.840   6.487  16.377 -0.3783 -0.1176 -0.0436
13144TIP3    H160923   1.896   6.421  16.336  0.8465  0.1071  1.1909
13144TIP3    H260924   1.855   6.566  16.326  1.2714  0.2049  0.8614
13145TIP3   OH260925   0.088   2.224   5.254 -0.3677  0.1442  1.0649
13145TIP3    H160926   0.102   2.238   5.348 -1.9609  1.6836  1.1343
13145TIP3    H260927   0.114   2.306   5.213 -0.7103 -0.1243  0.2937
13146TIP3   OH260928   0.360   2.393  11.660  0.0658 -0.2542 -0.1183
13146TIP3    H160929   0.295   2.329  11.690  0.3144  0.0168  1.0584
13146TIP3    H260930   0.383   2.364  11.572 -1.0027 -0.8619 -0.2173
13147TIP3   OH260931   1.481   2.122   2.289 -0.7500  0.7326 -0.7066
13147TIP3    H160932   1.529   2.044   2.261 -0.7967  0.6735 -0.6221
13147TIP3    H260933   1.396   2.089   2.317 -0.1735  0.6080  0.9668
13148TIP3   OH260934   4.327   6.254  12.227  0.2166  0.1530 -0.5092
13148TIP3    H160935   4.258   6.228  12.289 -0.2145  1.4851 -0.3964
13148TIP3    H260936   4.302   6.213  12.144 -0.4901  0.2697 -0.3596
13149TIP3   OH260937   0.609   5.375  13.327 -0.0523  0.3769 -0.1111
13149TIP3    H160938   0.694   5.408  13.300  0.5938 -0.5548  0.7384
13149TIP3    H260939   0.546   5.433  13.284  1.0227  2.5497  1.0791
13150TIP3   OH260940   0.451   5.879   0.540 -0.0232  0.1215 -0.2315
13150TIP3    H160941   0.359   5.856   0.532 -0.1973  0.6478  0.1866
13150TIP3    H260942   0.497   5.818   0.482 -0.6587  0.0242 -0.6326
13151TIP3   OH260943   0.328   1.021  12.475 -0.1293  0.0330 -0.0919
13151TIP3    H160944   0.257   1.028  12.411 -1.0051 -0.0150  0.8537
13151TIP3    H260945   0.326   1.104  12.522  0.2487 -0.0833  0.1326
13152TIP3   OH260946   4.358   0.966  12.665  0.0145  0.2144 -0.2579
13152TIP3    H160947   4.385   1.008  12.583 -0.7920  0.8266 -0.2153
13152TIP3    H260948   4.370   0.872  12.649  0.5676  0.3731 -0.8136
13153TIP3   OH260949   1.493   4.719   4.453 -0.0433  0.0157 -0.5930
13153TIP3    H160950   1.504   4.734   4.359  1.3483  0.3584 -0.3972
13153TIP3    H260951   1.486   4.806   4.491  0.6692 -0.0690 -0.2508
13154TIP3   OH260952   5.075   0.334  13.854 -0.2437  0.2478 -0.0108
13154TIP3    H160953   5.148   0.342  13.915 -0.2364 -1.0006  0.1588
13154TIP3    H260954   5.112   0.360  13.769 -0.1515  1.5916  0.4103
13155TIP3   OH260955   1.821   4.167   4.817 -0.0121  0.6855 -0.4959
13155TIP3    H160956   1.893   4.136   4.872 -0.5770 -0.8992 -0.5906
13155TIP3    H260957   1.859   4.239   4.767  1.1596  0.6742  0.3196
13156TIP3   OH260958   5.900   4.087  11.616 -0.1698  0.6753  0.6360
13156TIP3    H160959   5.922   4.026  11.546 -1.4786 -0.4978  1.1882
13156TIP3    H260960   5.806   4.104  11.604  0.1816  2.6308  0.4689
13157TIP3   OH260961   6.009   3.119   2.735  0.6226 -0.7539  0.2384
13157TIP3    H160962   5.927   3.109   2.784  0.2352  2.4736  0.4966
13157TIP3    H260963   6.074   3.074   2.787 -0.5180 -0.9651  1.5358
13158TIP3   OH260964   1.299   2.031   3.924  0.0850  0.3571 -0.0269
13158TIP3    H160965   1.352   2.052   4.001 -1.1032 -1.5353  1.4135
13158TIP3    H260966   1.362   2.019   3.854  1.0754  4.6257 -0.1187
13159TIP3   OH260967   3.993   5.671   0.843 -0.3765 -0.3803 -0.0131
13159TIP3    H160968   3.968   5.735   0.910  0.0918 -0.8632  0.6424
13159TIP3    H260969   3.943   5.696   0.766 -0.0654  0.8939  0.1732
13160TIP3   OH260970   0.834   3.178  10.747 -0.4119 -0.5752 -0.5484
13160TIP3    H160971   0.746   3.207  10.770 -0.5303 -0.6671 -0.8856
13160TIP3    H260972   0.857   3.229  10.669  0.0765 -0.1027 -0.1109
13161TIP3   OH260973   1.168   3.120  16.324 -0.0925 -0.4416 -0.2608
13161TIP3    H160974   1.124   3.035  16.331  0.6878 -1.0012 -1.8413
13161TIP3    H260975   1.164   3.155  16.413 -2.4610 -1.0843 -0.0416
13162TIP3   OH260976   1.213   1.672   2.360  0.3902  0.0579  0.1703
13162TIP3    H160977   1.208   1.681   2.265  0.2128  1.0733  0.2634
13162TIP3    H260978   1.186   1.581   2.377  0.8780 -0.2810 -0.7722
13163TIP3   OH260979   0.313   5.928  11.930 -0.1064 -0.1484 -0.1868
13163TIP3    H160980   0.253   6.000  11.947  0.6979  0.2091  1.2809
13163TIP3    H260981   0.334   5.893  12.016  2.6327  0.4299 -0.5408
13164TIP3   OH260982   5.242   4.286   1.302 -0.5806  0.0745 -0.2024
13164TIP3    H160983   5.212   4.317   1.217  0.1616  0.9011 -0.1798
13164TIP3    H260984   5.224   4.359   1.362  0.7168  0.2734 -0.0393
13165TIP3   OH260985   0.195   5.537   5.198 -0.0522  0.1625 -0.2144
13165TIP3    H160986   0.223   5.520   5.288 -0.0245  2.3261  0.2311
13165TIP3    H260987   0.101   5.520   5.198 -0.1163  0.4992  0.3235
13166TIP3   OH260988   3.951   6.205   1.211 -0.5272 -0.5033  0.0136
13166TIP3    H160989   3.869   6.159   1.230 -0.6052 -0.2786  0.2259
13166TIP3    H260990   3.926   6.273   1.149 -0.2938 -1.1551 -0.8144
13167TIP3   OH260991   0.093   0.112   1.608 -0.0229 -0.0541  0.2619
13167TIP3    H160992   0.099   0.205   1.587  0.4854 -0.1147  0.1140
13167TIP3    H260993   0.182   0.079   1.597 -0.2041 -0.5670  0.2771
13168TIP3   OH260994   2.307   5.223  16.889  0.2123  0.0349 -0.0145
13168TIP3    H160995   2.215   5.210  16.912  0.4909 -0.1081  1.0871
13168TIP3    H260996   2.354   5.158  16.942  1.0493  0.9964  0.4578
13169TIP3   OH260997   5.660   5.694  11.242  0.2083 -0.6275  0.5198
13169TIP3    H160998   5.668   5.723  11.333  0.2107 -0.8357  0.5868
13169TIP3    H260999   5.627   5.770  11.196 -0.4502 -0.7254  0.8173
13170TIP3   OH261000   1.496   3.992  10.892  0.4968  0.2957 -0.5133
13170TIP3    H161001   1.440   3.957  10.823 -0.6848  1.4547 -0.1843
13170TIP3    H261002   1.538   4.068  10.852  0.1388  0.7165 -0.1059
13171TIP3   OH261003   3.240   3.581  13.918  0.0678 -0.2263  0.4751
13171TIP3    H161004   3.301   3.634  13.867  2.0652 -0.6228  2.2875
13171TIP3    H261005   3.184   3.538  13.853  1.3226  0.6336 -1.2342
13172TIP3   OH261006   4.378   0.654  17.052  0.1741 -0.5758 -0.1635
13172TIP3    H161007   4.390   0.723  17.117 -1.6991  0.1579 -0.5642
13172TIP3    H261008   4.401   0.573  17.099  0.6551  0.1218  0.8317
13173TIP3   OH261009   0.725   5.107   5.623  0.4039 -0.0622 -0.3255
13173TIP3    H161010   0.744   5.060   5.705 -1.9239  1.9505  1.5057
13173TIP3    H261011   0.633   5.090   5.607  0.1964  1.6392 -1.1022
13174TIP3   OH261012   5.027   5.221  13.734  0.1655 -0.0137  0.2069
13174TIP3    H161013   4.948   5.262  13.770  0.2381  0.2670  0.0548
13174TIP3    H261014   4.994   5.153  13.675  0.0234  0.5207 -0.3414
13175TIP3   OH261015   1.240   2.572  13.892  0.0656  0.0853 -0.7302
13175TIP3    H161016   1.259   2.661  13.863 -1.4012  1.1272  1.2369
13175TIP3    H261017   1.145   2.570  13.905  0.1077 -1.6637 -0.3795
13176TIP3   OH261018   2.197   3.622   1.151 -0.2689 -0.5660  0.7895
13176TIP3    H161019   2.145   3.673   1.089 -0.6290 -1.0434  0.6913
13176TIP3    H261020   2.271   3.590   1.099 -0.1286 -0.2796  0.8118
13177TIP3   OH261021   2.878   4.856   4.703 -0.6877 -0.2457  0.2027
13177TIP3    H161022   2.953   4.798   4.717 -0.6290 -0.5913 -1.3477
13177TIP3    H261023   2.854   4.886   4.791  0.9132 -0.5611  0.7814
13178TIP3   OH261024   2.418   4.488  11.979  0.0952 -0.7443 -0.1477
13178TIP3    H161025   2.390   4.523  11.894  0.4815  3.0378  1.0978
13178TIP3    H261026   2.339   4.491  12.033  0.4120 -0.7310  0.3217
13179TIP3   OH261027   3.734   6.656   1.488  0.1867 -0.2927  0.0897
13179TIP3    H161028   3.719   6.748   1.465 -0.6238 -0.1126  1.2970
13179TIP3    H261029   3.794   6.624   1.420  2.0545  1.6442  0.7335
13180TIP3   OH261030   2.677   2.580  11.205  0.4337  0.2260 -0.6424
13180TIP3    H161031   2.651   2.653  11.149 -1.0138 -0.2854 -0.6678
13180TIP3    H261032   2.635   2.503  11.167  1.5666 -0.5726 -0.3555
13181TIP3   OH261033   1.682   4.050  10.456  0.2059 -0.4554 -0.2639
13181TIP3    H161034   1.610   4.003  10.499 -0.1182 -0.5099 -0.8512
13181TIP3    H261035   1.687   4.134  10.501 -1.7605  0.5131 -1.6698
13182TIP3   OH261036   1.525   6.356   3.791 -0.5081 -0.0362 -0.5361
13182TIP3    H161037   1.535   6.451   3.798 -0.1176 -0.0192 -1.2291
13182TIP3    H261038   1.611   6.322   3.818 -1.0628 -0.2636  1.0185
13183TIP3   OH261039   3.543   4.056  11.973 -0.2411 -0.3282  0.1660
13183TIP3    H161040   3.598   4.005  11.913  0.1033  0.4119 -0.1765
13183TIP3    H261041   3.453   4.031  11.951 -0.2190  0.9865 -1.7278
13184TIP3   OH261042   2.224   5.124   0.031 -0.4575  0.6441  1.0164
13184TIP3    H161043   2.265   5.062   0.091 -1.3577 -0.5339  0.4299
13184TIP3    H261044   2.285   5.129  -0.043 -0.4343  0.3792  1.0163
13185TIP3   OH261045   4.487   5.827   1.207 -0.3532 -0.7179  0.1374
13185TIP3    H161046   4.474   5.808   1.300 -0.5672  0.9101  0.4780
13185TIP3    H261047   4.418   5.890   1.186  0.9964  0.5860 -0.5561
13186TIP3   OH261048   3.036   4.276   0.925 -0.0665  0.5657 -0.2349
13186TIP3    H161049   3.109   4.221   0.894 -0.1781  0.7152 -0.7703
13186TIP3    H261050   3.073   4.364   0.932  0.0249  0.4856  0.3038
13187TIP3   OH261051   6.510   5.164   2.939  0.0498  0.2481 -0.0967
13187TIP3    H161052   6.439   5.112   2.976 -0.5349  0.4286 -0.9448
13187TIP3    H261053   6.582   5.101   2.928  0.3006  0.2176  1.4379
13188TIP3   OH261054   2.238   0.500   3.241 -0.5726  0.2290 -0.1351
13188TIP3    H161055   2.157   0.515   3.290 -0.5926  0.3734 -0.2133
13188TIP3    H261056   2.227   0.552   3.161 -1.2085 -1.2000 -1.0193
13189TIP3   OH261057   5.992   1.746   3.338 -0.2763  1.0118  0.4971
13189TIP3    H161058   5.977   1.789   3.423 -0.5885  0.2212  0.8514
13189TIP3    H261059   5.982   1.816   3.274 -3.3714  1.0170  0.8460
13190TIP3   OH261060   5.452   1.070   1.541 -0.3098 -0.1012 -0.4258
13190TIP3    H161061   5.462   1.098   1.632  2.1517 -0.0492 -0.6231
13190TIP3    H261062   5.482   0.979   1.540 -0.6208 -0.2026 -1.1173
13191TIP3   OH261063   3.683   0.545   0.597 -0.8384 -0.7323  0.5233
13191TIP3    H161064   3.664   0.593   0.517  2.0531 -1.7743 -0.9353
13191TIP3    H261065   3.618   0.475   0.599 -1.0610 -0.5971 -0.8522
13192TIP3   OH261066   2.485   3.362   2.334 -0.4415  0.6084 -0.1366
13192TIP3    H161067   2.528   3.447   2.322  1.0922  0.1340  1.5236
13192TIP3    H261068   2.537   3.301   2.282  0.1611  0.2407  0.8768
13193TIP3   OH261069   2.943   4.373   1.236  0.2813  0.0093  0.0690
13193TIP3    H161070   2.984   4.308   1.179  2.0105 -0.1465  1.3944
13193TIP3    H261071   2.998   4.450   1.227  0.3103  0.1249  1.1732
13194TIP3   OH261072   6.717   5.371  12.685  0.1242  0.0041 -0.1470
13194TIP3    H161073   6.681   5.357  12.598 -0.1005 -0.0949 -0.0379
13194TIP3    H261074   6.641   5.382  12.741  0.1725 -2.1812  0.4448
13195TIP3   OH261075   4.596   3.029   0.722 -0.4807  0.2209 -0.5012
13195TIP3    H161076   4.652   2.954   0.742 -1.2091 -0.1963  0.0367
13195TIP3    H261077   4.638   3.103   0.765 -0.4063 -0.1102  0.0021
13196TIP3   OH261078   6.261   5.985   4.064 -0.5971 -0.3043  0.4888
13196TIP3    H161079   6.183   5.932   4.048 -0.2573 -0.6618 -0.0121
13196TIP3    H261080   6.326   5.923   4.098 -0.0629 -0.3037 -0.4967
13197TIP3   OH261081   2.445   4.690   5.751 -0.9348 -0.4538 -0.7915
13197TIP3    H161082   2.457   4.604   5.792 -0.4629 -0.8069 -1.6524
13197TIP3    H261083   2.375   4.677   5.688  0.4552 -0.7373 -2.3447
13198TIP3   OH261084   3.613   5.202   1.392  0.5376 -0.1111  0.7761
13198TIP3    H161085   3.580   5.159   1.470  2.9690  0.9119  2.4866
13198TIP3    H261086   3.682   5.261   1.423 -0.6446  2.9161 -1.7466
13199TIP3   OH261087   2.746   4.661   1.827  0.0021 -0.4122 -0.0477
13199TIP3    H161088   2.757   4.755   1.839 -1.7635  0.0427 -1.5251
13199TIP3    H261089   2.818   4.635   1.770 -1.3617  0.7532 -2.4302
13200TIP3   OH261090   4.096   1.424   4.062  0.1667 -0.2321  0.8322
13200TIP3    H161091   4.039   1.481   4.113  1.5157  1.6571  0.3324
13200TIP3    H261092   4.161   1.483   4.024 -0.2743 -1.6347 -2.4149
13201TIP3   OH261093   3.897   6.262   0.288  0.2980  0.0931 -0.1925
13201TIP3    H161094   3.886   6.229   0.198  0.0519  1.0126 -0.5163
13201TIP3    H261095   3.943   6.345   0.277  0.5132  0.0761  0.5614
13202TIP3   OH261096   4.615   1.447   5.212  0.5677  0.2169 -0.1996
13202TIP3    H161097   4.584   1.367   5.255  3.7503 -1.1450 -0.1344
13202TIP3    H261098   4.551   1.463   5.143 -0.4541 -2.1222  0.0870
13203TIP3   OH261099   5.290   3.661   5.293  0.1206  0.1682  0.1424
13203TIP3    H161100   5.331   3.652   5.207  1.3568  2.4834  0.4077
13203TIP3    H261101   5.206   3.704   5.275 -1.1765 -2.3055 -0.1501
13204TIP3   OH261102   0.482   0.183  15.339 -0.0594 -0.1112 -0.5068
13204TIP3    H161103   0.465   0.264  15.387  0.3213 -1.3011  1.7679
13204TIP3    H261104   0.578   0.175  15.339 -0.1389 -1.5151  1.0764
13205TIP3   OH261105   3.609   3.683   2.638  0.6488 -0.4343  0.1515
13205TIP3    H161106   3.704   3.691   2.642  0.7809 -1.7205 -0.1390
13205TIP3    H261107   3.579   3.707   2.726  1.2221  0.0023  0.2365
13206TIP3   OH261108   1.437   2.729  14.674  0.8772  0.1945 -0.1763
13206TIP3    H161109   1.430   2.747  14.580  1.4816 -0.5769 -0.3764
13206TIP3    H261110   1.402   2.807  14.716  0.0228  0.3036 -1.0518
13207TIP3   OH261111   2.898   6.196   3.144 -0.0375 -0.0808  0.1678
13207TIP3    H161112   2.931   6.107   3.129 -0.5659 -0.1069 -0.9759
13207TIP3    H261113   2.804   6.184   3.161 -0.5422  0.3696 -1.9882
13208TIP3   OH261114   4.766   3.953   6.580 -0.1796 -0.8685  0.0607
13208TIP3    H161115   4.671   3.964   6.592 -0.1420  0.8827 -1.0003
13208TIP3    H261116   4.773   3.881   6.518 -0.8085 -0.9878  0.1143
13209TIP3   OH261117   4.896   3.319  15.009  0.0114 -0.5340 -0.4171
13209TIP3    H161118   4.827   3.362  14.958  1.2239  0.2466 -1.4620
13209TIP3    H261119   4.891   3.227  14.982 -0.0694 -0.3243 -1.1440
13210TIP3   OH261120   1.802   1.280   1.182  0.0664 -0.4584 -0.2628
13210TIP3    H161121   1.739   1.321   1.242 -0.2394 -2.0929  0.6103
13210TIP3    H261122   1.771   1.303   1.095 -1.3266 -0.5958  0.1698
13211TIP3   OH261123   0.823   5.719   6.162 -0.6534  0.0881  1.1608
13211TIP3    H161124   0.863   5.763   6.088 -1.9384 -0.3393  0.1722
13211TIP3    H261125   0.870   5.635   6.168 -0.5155  0.1446  0.8756
13212TIP3   OH261126   4.324   0.304   4.371 -0.2753 -0.5427  1.2756
13212TIP3    H161127   4.319   0.236   4.304 -0.4519  1.0453 -0.4002
13212TIP3    H261128   4.284   0.264   4.449 -2.1799 -1.6986 -0.2159
13213TIP3   OH261129   5.972   5.714  12.539 -0.3181 -0.0054 -0.0223
13213TIP3    H161130   5.989   5.668  12.621  0.5469  1.5203  0.6972
13213TIP3    H261131   6.054   5.759  12.520 -0.9053  0.6415 -1.0893
13214TIP3   OH261132   3.277   3.711   6.312  0.1807 -0.0874  0.7007
13214TIP3    H161133   3.207   3.663   6.355  0.6952 -0.0480  1.5928
13214TIP3    H261134   3.346   3.719   6.378  0.4100  1.2197  0.3436
13215TIP3   OH261135   3.734   2.646  13.754  0.3918 -0.2884  0.0985
13215TIP3    H161136   3.662   2.705  13.729 -0.3710 -1.1250  0.2421
13215TIP3    H261137   3.696   2.591  13.823  1.5285 -0.0209  0.9568
13216TIP3   OH261138   4.985   4.110  16.196  0.7357  0.0559 -0.2390
13216TIP3    H161139   5.007   4.170  16.125  0.6968  0.3799  0.0194
13216TIP3    H261140   4.891   4.121  16.209  0.4428 -1.1247 -1.1595
13217TIP3   OH261141   2.207   3.691  15.008 -0.0387  0.4412  0.9376
13217TIP3    H161142   2.120   3.715  14.977  0.6201  1.0449 -0.5020
13217TIP3    H261143   2.268   3.733  14.947  1.2413 -1.4102  0.8459
13218TIP3   OH261144   0.329   2.333   4.532  0.2698  0.1145  0.0134
13218TIP3    H161145   0.235   2.320   4.520  0.2077  1.5707 -1.4386
13218TIP3    H261146   0.343   2.319   4.626 -1.1761 -1.2625  0.0636
13219TIP3   OH261147   5.646   4.999  16.783  0.0871  0.1898  0.0971
13219TIP3    H161148   5.569   4.978  16.731  0.7429 -0.5230 -0.6070
13219TIP3    H261149   5.619   5.074  16.837 -0.1373  2.1003 -2.4696
13220TIP3   OH261150   3.440   4.834  17.213 -0.4469  0.1810 -0.2739
13220TIP3    H161151   3.421   4.806  17.124 -0.8772  1.5747 -0.6470
13220TIP3    H261152   3.362   4.810  17.263 -0.5254  0.0882 -0.4429
13221TIP3   OH261153   5.402   6.423   0.538  0.4445 -0.0465  0.6139
13221TIP3    H161154   5.314   6.443   0.570 -0.4877 -3.3321  0.4549
13221TIP3    H261155   5.413   6.478   0.461 -0.7649  1.6065  1.5552
13222TIP3   OH261156   0.819   5.501  13.212 -0.3506 -0.2073 -0.0532
13222TIP3    H161157   0.750   5.501  13.146 -0.9331  0.5636  0.5399
13222TIP3    H261158   0.887   5.559  13.175  0.0156 -1.0074 -0.6582
13223TIP3   OH261159   0.498   4.958  16.672 -0.3835 -0.4468 -0.4437
13223TIP3    H161160   0.536   5.045  16.680  2.6925 -1.6361 -0.7601
13223TIP3    H261161   0.415   4.963  16.719  0.9713  1.9182  1.9295
13224TIP3   OH261162   4.923   4.272   2.264  0.2605 -0.4374 -0.4043
13224TIP3    H161163   4.879   4.307   2.342  1.6393 -0.2187  0.3231
13224TIP3    H261164   4.922   4.177   2.277 -1.0624 -0.5162 -1.0091
13225TIP3   OH261165   0.030   4.129   5.898 -0.0456  0.3034 -0.4207
13225TIP3    H161166   0.019   4.074   5.976  2.2500 -2.3791 -1.8193
13225TIP3    H261167   0.108   4.181   5.917  0.9889 -0.9268 -1.1505
13226TIP3   OH261168   5.795   3.928   4.433 -0.2017  0.4600  0.0046
13226TIP3    H161169   5.742   3.863   4.386 -1.1929  1.0772  0.2513
13226TIP3    H261170   5.761   3.927   4.522 -0.9876  2.0709 -0.2323
13227TIP3   OH261171   0.529   3.856   3.900  0.2383  0.0114  0.0926
13227TIP3    H161172   0.519   3.896   3.814  0.6490 -0.0408  0.0166
13227TIP3    H261173   0.610   3.893   3.935 -0.1597  0.3784  0.6526
13228TIP3   OH261174   4.994   1.732   0.361 -0.0426 -1.0884  0.2339
13228TIP3    H161175   4.951   1.709   0.443 -1.0418  0.1496  0.0942
13228TIP3    H261176   5.062   1.665   0.350  1.6061 -0.0714  3.1385
13229TIP3   OH261177   2.458   4.754  16.127 -0.0689 -0.0726  0.2778
13229TIP3    H161178   2.460   4.841  16.167  2.1819 -0.5542  1.3969
13229TIP3    H261179   2.368   4.743  16.097 -0.6575  2.2302  1.0126
13230TIP3   OH261180   4.468   5.320   3.301 -0.3829  0.2409 -0.0651
13230TIP3    H161181   4.388   5.268   3.312  0.0759 -0.8788 -1.6298
13230TIP3    H261182   4.529   5.261   3.256  2.0967  0.3443  2.8023
13231TIP3   OH261183   2.755   2.833   1.258  0.3779  0.0268  0.0233
13231TIP3    H161184   2.704   2.752   1.261  0.4100 -0.1420 -2.0976
13231TIP3    H261185   2.691   2.900   1.233  0.6259  0.3890  0.3537
13232TIP3   OH261186   6.140   2.319   5.343 -0.1288  0.3470 -0.4885
13232TIP3    H161187   6.122   2.245   5.286  0.9048  1.0278 -1.7553
13232TIP3    H261188   6.200   2.284   5.409 -3.0975 -1.0391  1.6924
13233TIP3   OH261189   0.593   1.168  14.660  0.7048 -0.2102  0.1024
13233TIP3    H161190   0.594   1.096  14.596  0.5292 -1.5440  1.5453
13233TIP3    H261191   0.549   1.131  14.737 -0.1102  1.7056  0.6162
13234TIP3   OH261192   4.284   4.444   3.344  0.5126  0.0378  0.4464
13234TIP3    H161193   4.339   4.443   3.266 -1.5907  0.5970 -1.1212
13234TIP3    H261194   4.324   4.509   3.402  1.5003  0.4049 -0.6287
13235TIP3   OH261195   6.436   0.094   5.656  0.2354  0.5394  0.0454
13235TIP3    H161196   6.432   0.039   5.735  1.3965  0.4468  0.0502
13235TIP3    H261197   6.385   0.046   5.591  1.3050 -0.6251  0.0173
13236TIP3   OH261198   6.006   5.664   1.216 -0.2903  0.0077  0.6048
13236TIP3    H161199   6.027   5.756   1.200 -0.2799 -0.5444 -3.4426
13236TIP3    H261200   6.091   5.623   1.230  0.0296  0.1281 -0.8799
13237TIP3   OH261201   3.977   5.025   1.525  0.4993  0.2949  0.8100
13237TIP3    H161202   4.062   4.990   1.549  0.0935 -0.6045  0.9891
13237TIP3    H261203   3.927   5.025   1.607 -0.5527 -1.7859  0.2511
13238TIP3   OH261204   0.860   4.947  14.824 -0.6078 -0.4475  0.0228
13238TIP3    H161205   0.800   5.022  14.819 -1.4714 -1.0766  0.5821
13238TIP3    H261206   0.889   4.933  14.734 -1.2225 -0.0570 -0.2431
13239TIP3   OH261207   1.111   2.371   5.038 -0.0741  0.2726 -0.7027
13239TIP3    H161208   1.094   2.422   5.117 -0.5005 -1.4258  0.3399
13239TIP3    H261209   1.167   2.299   5.067 -2.9947 -2.3772 -1.1107
13240TIP3   OH261210   5.177   6.379  15.641 -0.1478 -0.4888 -0.4947
13240TIP3    H161211   5.117   6.349  15.572  0.0309 -0.8910 -0.4768
13240TIP3    H261212   5.140   6.462  15.670 -2.8556 -2.3938  2.1255
13241TIP3   OH261213   4.804   4.408   1.608  0.5475  0.1757  0.3149
13241TIP3    H161214   4.708   4.404   1.606  0.3247  0.8492  3.6387
13241TIP3    H261215   4.824   4.500   1.591  0.7420 -0.1765 -1.5523
13242TIP3   OH261216   3.228   3.981   6.332  0.0249  0.2764  0.3811
13242TIP3    H161217   3.231   3.885   6.328  0.3722  0.2234  1.5383
13242TIP3    H261218   3.158   4.000   6.394  0.6432  0.7430  0.9533
13243TIP3   OH261219   3.962   4.845   0.513 -0.2349 -0.4573 -0.1573
13243TIP3    H161220   4.034   4.784   0.531  1.4274  1.2623 -0.6899
13243TIP3    H261221   3.939   4.828   0.421  0.3333 -0.1844 -0.3527
13244TIP3   OH261222   3.393   1.268  12.895 -0.0014 -0.1011  0.4308
13244TIP3    H161223   3.322   1.212  12.928  0.8313 -0.7319  1.1871
13244TIP3    H261224   3.406   1.238  12.805  0.4550 -1.1799  0.8325
13245TIP3   OH261225   0.135   2.845   4.695 -0.6850  0.1786  0.1256
13245TIP3    H161226   0.103   2.935   4.698 -0.9207  0.1967 -1.9764
13245TIP3    H261227   0.091   2.802   4.768  0.3664  2.0170  1.9648
13246TIP3   OH261228   4.232   6.630  12.042  0.3694 -0.2446 -0.2850
13246TIP3    H161229   4.320   6.626  12.005  0.0949 -1.1443 -0.8785
13246TIP3    H261230   4.224   6.719  12.076  0.6665  0.6405 -2.3675
13247TIP3   OH261231   6.026   0.608  16.323  0.0875  0.6043 -0.2379
13247TIP3    H161232   6.016   0.564  16.239  1.1861  1.3823 -0.7996
13247TIP3    H261233   6.116   0.588  16.350 -1.1034 -2.1785  2.2810
13248TIP3   OH261234   0.735   2.577   4.610  0.3176  0.2108  0.2349
13248TIP3    H161235   0.655   2.598   4.657  0.3918  1.1625 -0.0397
13248TIP3    H261236   0.795   2.545   4.677 -0.3392 -0.6818  0.4133
13249TIP3   OH261237   6.602   4.083  11.791 -0.5653  0.1988 -0.5221
13249TIP3    H161238   6.532   4.039  11.839 -0.7356 -2.4413 -2.9450
13249TIP3    H261239   6.560   4.115  11.711  0.8451 -1.1181 -1.8553
13250TIP3   OH261240   5.638   1.771  12.913 -0.0332  0.2515 -0.3468
13250TIP3    H161241   5.605   1.791  13.000  1.5641 -0.0037  0.3568
13250TIP3    H261242   5.671   1.681  12.921 -0.4381 -0.0006 -1.3931
13251TIP3   OH261243   3.438   4.781  12.708  0.1862  0.0761 -0.0016
13251TIP3    H161244   3.410   4.767  12.798  1.2077 -1.5363  0.1109
13251TIP3    H261245   3.532   4.763  12.709  0.9808  3.4348 -0.7147
13252TIP3   OH261246   4.299   3.303   5.485 -0.0430 -0.1571 -0.5364
13252TIP3    H161247   4.253   3.243   5.427  0.5849  0.7265 -2.0069
13252TIP3    H261248   4.381   3.323   5.439  0.4471  0.6244  0.6317
13253TIP3   OH261249   0.048   2.220   1.344 -0.9232  0.3272 -0.4103
13253TIP3    H161250  -0.038   2.220   1.301 -1.7771 -3.0130  0.9703
13253TIP3    H261251   0.076   2.128   1.341  2.1894  1.1597  0.0649
13254TIP3   OH261252   5.762   0.002   4.762  0.1096 -0.2454 -0.3565
13254TIP3    H161253   5.802   0.077   4.717 -0.0375 -1.1884 -2.1465
13254TIP3    H261254   5.721   0.040   4.840  0.9647  1.3597 -0.6389
13255TIP3   OH261255   1.368   6.035  13.712  0.1869  0.1034 -0.4037
13255TIP3    H161256   1.341   5.956  13.665 -0.1633 -0.2419  0.3582
13255TIP3    H261257   1.315   6.035  13.792 -0.0694  1.3031 -0.5601
13256TIP3   OH261258   2.847   3.968  15.134 -0.6361 -0.4175 -0.8361
13256TIP3    H161259   2.807   4.054  15.124 -2.9940 -1.1777  0.9983
13256TIP3    H261260   2.776   3.912  15.166  1.4022 -2.4835  0.4197
13257TIP3   OH261261   6.260   2.651  10.426 -0.0803  0.0587  0.4417
13257TIP3    H161262   6.227   2.568  10.461  0.2964 -0.6492 -0.8019
13257TIP3    H261263   6.329   2.625  10.365 -2.9638  0.8169 -3.5907
13258TIP3   OH261264   6.027   3.581  11.933  0.4000  0.6775 -0.9887
13258TIP3    H161265   6.087   3.513  11.965  1.5094  1.0916 -2.1444
13258TIP3    H261266   6.033   3.651  11.998  0.4750  0.3403 -0.6286
13259TIP3   OH261267   3.989   2.933  11.530  0.1945 -0.3306 -0.1971
13259TIP3    H161268   4.070   2.983  11.538  0.9119 -1.7411  2.5960
13259TIP3    H261269   3.920   2.999  11.531  1.2062  0.7557  0.6438
13260TIP3   OH261270   0.885   6.040   5.422 -0.2095 -0.5665 -0.0854
13260TIP3    H161271   0.878   6.135   5.422 -0.9587 -0.6176 -0.2945
13260TIP3    H261272   0.895   6.016   5.330  3.4811 -0.4821  0.1500
13261TIP3   OH261273   6.584   3.248  14.155 -0.2166  0.0230 -0.0294
13261TIP3    H161274   6.514   3.298  14.199  0.2742 -0.3035  1.1668
13261TIP3    H261275   6.569   3.262  14.062 -0.8774  1.3270  0.2567
13262TIP3   OH261276   5.180   2.948  14.462 -0.2770  0.3088 -0.0650
13262TIP3    H161277   5.193   2.954  14.557  1.3158 -1.3800 -0.1249
13262TIP3    H261278   5.194   3.037  14.430  0.8343  0.5846  1.1214
13263TIP3   OH261279   3.339   4.506  10.756  0.1352  0.3140 -0.6233
13263TIP3    H161280   3.259   4.453  10.756 -0.2494  0.8772 -0.1148
13263TIP3    H261281   3.325   4.569  10.826  0.0554  1.8596 -1.9733
13264TIP3   OH261282   6.141   1.482   3.086 -0.3253  0.5753  0.0039
13264TIP3    H161283   6.139   1.405   3.142  0.7617  1.2112  0.9562
13264TIP3    H261284   6.222   1.528   3.110 -1.0976  2.1808 -0.3201
13265TIP3   OH261285   0.647   0.215  17.149  0.1190  0.0320  0.1098
13265TIP3    H161286   0.609   0.158  17.082  0.2053 -0.2241  0.2779
13265TIP3    H261287   0.739   0.225  17.124  0.1799 -0.1627  0.2595
13266TIP3   OH261288   1.512   5.148   2.084 -0.8604  0.4630  0.1122
13266TIP3    H161289   1.603   5.122   2.100 -1.4057 -1.8600 -0.2288
13266TIP3    H261290   1.474   5.157   2.172 -0.7987 -0.5077  0.2437
13267TIP3   OH261291   1.901   6.286  11.050  0.1314  0.4476  0.0250
13267TIP3    H161292   1.966   6.353  11.029 -1.1928  1.9153  0.4197
13267TIP3    H261293   1.843   6.328  11.115  0.5454 -1.8425  2.0264
13268TIP3   OH261294   0.881   4.239   5.332 -0.6354 -1.1113 -0.0998
13268TIP3    H161295   0.901   4.186   5.255  1.3327 -0.7296  0.0791
13268TIP3    H261296   0.963   4.240   5.382 -0.6689  1.7986  0.0674
13269TIP3   OH261297   1.425   1.520  14.895 -0.0221 -0.2481  0.6085
13269TIP3    H161298   1.450   1.512  14.803 -0.8702  2.1835  0.0962
13269TIP3    H261299   1.330   1.508  14.896  0.0082 -0.4729  1.1876
13270TIP3   OH261300   3.680   5.050  11.824 -0.0368 -0.7079 -0.6384
13270TIP3    H161301   3.713   5.030  11.911  3.9191  0.9341 -1.5636
13270TIP3    H261302   3.613   4.983  11.808 -1.0201 -1.0172  3.6004
13271TIP3   OH261303   5.322   0.880   6.687 -0.3878 -0.2281 -0.2188
13271TIP3    H161304   5.260   0.856   6.756 -0.6723  0.4661 -0.2233
13271TIP3    H261305   5.355   0.797   6.654 -1.5889 -0.6251 -0.4573
13272TIP3   OH261306   5.490   2.692   4.553  0.7146 -0.5395 -0.6016
13272TIP3    H161307   5.476   2.776   4.509  1.2172 -0.7076 -1.0870
13272TIP3    H261308   5.533   2.637   4.488  1.5598 -0.7642  0.1156
13273TIP3   OH261309   6.279   0.088  13.189 -0.0851 -1.0830  0.5780
13273TIP3    H161310   6.371   0.110  13.181 -0.0902 -1.3504 -0.2564
13273TIP3    H261311   6.277   0.013  13.249  0.3007 -1.4907  0.0873
13274TIP3   OH261312   0.636   1.698  16.360 -0.0825 -0.2671  0.3593
13274TIP3    H161313   0.695   1.693  16.436  0.0718 -0.4403  0.2291
13274TIP3    H261314   0.674   1.637  16.296  0.0668  0.2534 -0.0492
13275TIP3   OH261315   5.710   0.538  17.075  0.2462  0.3099 -0.0491
13275TIP3    H161316   5.681   0.519  16.986  0.5234  1.1112 -0.3173
13275TIP3    H261317   5.709   0.633  17.081 -0.0700  0.2507  0.9125
13276TIP3   OH261318   3.722   5.118  14.531 -0.4743  0.0836 -0.3684
13276TIP3    H161319   3.650   5.161  14.578 -0.5860  0.1247 -0.5782
13276TIP3    H261320   3.796   5.124  14.592 -0.3904  0.9032 -0.5328
13277TIP3   OH261321   2.572   2.649   1.154  0.0029  0.5310 -0.2192
13277TIP3    H161322   2.601   2.592   1.082  0.3438  3.0045 -2.1958
13277TIP3    H261323   2.478   2.661   1.138  0.1429  1.3436 -0.4740
13278TIP3   OH261324   6.275   0.020   3.609  0.3426  0.2687  0.3990
13278TIP3    H161325   6.218  -0.011   3.680 -1.5768 -0.7510 -1.4728
13278TIP3    H261326   6.346  -0.043   3.605 -0.3493 -0.5224  0.4532
13279TIP3   OH261327   5.173   5.418   5.299 -0.3293  0.0104  0.1879
13279TIP3    H161328   5.136   5.435   5.213  1.3965  1.5473 -0.3096
13279TIP3    H261329   5.261   5.385   5.282 -1.0961 -2.9673  1.3445
13280TIP3   OH261330   0.522   2.696   1.345  0.0644  0.4330 -0.2509
13280TIP3    H161331   0.526   2.637   1.420  0.6885  0.9667  0.1385
13280TIP3    H261332   0.430   2.692   1.317 -0.5553  1.3434  1.4557
13281TIP3   OH261333   1.987   4.712  15.831 -0.0086 -0.0131 -0.9067
13281TIP3    H161334   1.961   4.792  15.786 -1.6734 -0.3639 -0.6462
13281TIP3    H261335   1.947   4.641  15.780 -0.3816 -0.5322  0.0815
13282TIP3   OH261336   4.311   4.340   0.228 -0.4532  0.0605  0.8252
13282TIP3    H161337   4.231   4.364   0.275 -1.5471  0.0747 -0.9297
13282TIP3    H261338   4.330   4.251   0.257 -2.7677 -1.0494 -0.7260
13283TIP3   OH261339   6.743   4.818   0.705  0.4968  0.0368  0.2862
13283TIP3    H161340   6.770   4.883   0.641  0.6479  0.4017  0.7122
13283TIP3    H261341   6.825   4.780   0.737  0.5256  0.9475  1.3762
13284TIP3   OH261342   5.648   2.602   3.801 -0.3162 -0.2562 -0.0449
13284TIP3    H161343   5.713   2.668   3.778  0.2612 -1.3053 -1.6659
13284TIP3    H261344   5.628   2.559   3.717 -2.8009 -0.2483  0.4682
13285TIP3   OH261345   4.664   6.116  12.235  0.3798 -0.1260 -0.1161
13285TIP3    H161346   4.635   6.091  12.322  0.0392  1.4528  0.2404
13285TIP3    H261347   4.610   6.064  12.175  0.4465 -1.0294  0.5899
13286TIP3   OH261348   4.848   3.917   1.183 -0.0582 -0.1442  0.7642
13286TIP3    H161349   4.863   4.005   1.150 -0.8209 -0.7320 -1.2549
13286TIP3    H261350   4.931   3.871   1.166  0.1405 -0.0026  1.3010
13287TIP3   OH261351   6.728   5.997  13.584  0.2180  0.1025 -0.3782
13287TIP3    H161352   6.756   6.060  13.517  0.0452  0.0063 -0.5387
13287TIP3    H261353   6.636   6.016  13.598 -0.1193 -0.8551 -1.2340
13288TIP3   OH261354   5.662   1.005   0.544 -0.6591  0.1332  0.5619
13288TIP3    H161355   5.751   0.971   0.532 -1.4444 -1.2871 -2.0195
13288TIP3    H261356   5.658   1.082   0.489 -0.6155  1.1561  1.9283
13289TIP3   OH261357   4.327   0.516   2.513 -0.1567  0.4579 -0.1250
13289TIP3    H161358   4.236   0.487   2.521  0.0137 -0.0004  0.1858
13289TIP3    H261359   4.365   0.457   2.448 -0.2837  1.1488 -0.8326
13290TIP3   OH261360   4.739   4.056   0.820  0.0240  0.1470  0.0010
13290TIP3    H161361   4.733   4.150   0.836  0.5392  0.0476  0.8706
13290TIP3    H261362   4.648   4.026   0.820 -0.2273  0.8142 -1.4880
13291TIP3   OH261363   5.186   6.822  11.631  0.5270  0.1570  0.2297
13291TIP3    H161364   5.146   6.906  11.608 -1.4932 -0.3342  1.6259
13291TIP3    H261365   5.231   6.794  11.551  1.0309  2.4028 -0.3513
13292TIP3   OH261366   0.452   0.778  12.064 -0.0555 -0.0470 -0.5637
13292TIP3    H161367   0.384   0.843  12.049 -0.5698 -0.8092 -1.6510
13292TIP3    H261368   0.532   0.821  12.033  0.1666  1.1789  1.5168
13293TIP3   OH261369   2.330   2.738  11.319 -0.9100 -0.2826  0.2593
13293TIP3    H161370   2.266   2.668  11.332 -1.9018  0.2644 -1.3922
13293TIP3    H261371   2.348   2.770  11.407 -1.1157 -2.0079  0.9645
13294TIP3   OH261372   1.384   3.968  15.370 -0.4027  0.3284 -0.3427
13294TIP3    H161373   1.305   4.018  15.389 -0.6534 -0.1074 -0.2235
13294TIP3    H261374   1.378   3.890  15.425 -0.9192 -0.7256 -1.7986
13295TIP3   OH261375   1.849   6.208   5.651  0.7917  0.2323  0.4725
13295TIP3    H161376   1.867   6.198   5.745 -2.0702  0.5577  1.1474
13295TIP3    H261377   1.793   6.286   5.646 -0.3494 -0.6487 -1.3184
13296TIP3   OH261378   5.902   5.016  11.564 -0.6056  0.2644 -0.2293
13296TIP3    H161379   5.978   5.003  11.507 -1.2700 -0.8418 -0.9185
13296TIP3    H261380   5.848   5.080  11.517 -1.0326 -0.4573 -0.7488
13297TIP3   OH261381   5.343   1.205   3.216 -0.3765 -0.1586 -0.0603
13297TIP3    H161382   5.419   1.256   3.188  0.1043 -0.3202  0.9060
13297TIP3    H261383   5.313   1.161   3.136 -0.8794  1.6936 -0.9613
13298TIP3   OH261384   1.284   4.366  16.242  0.2892  0.3594  0.2326
13298TIP3    H161385   1.211   4.329  16.193 -0.1570  0.0629  1.1027
13298TIP3    H261386   1.300   4.451  16.200  0.6537 -0.3554 -1.1192
13299TIP3   OH261387   4.812   5.744  11.331 -0.8060  0.0666  0.0217
13299TIP3    H161388   4.758   5.667  11.314 -0.7431  0.4295 -2.0119
13299TIP3    H261389   4.902   5.714  11.316 -0.8349  0.6924 -1.5827
13300TIP3   OH261390   2.702   0.126   2.410  0.2891 -0.0159  0.0203
13300TIP3    H161391   2.661   0.084   2.485  1.8182 -1.0343  0.3242
13300TIP3    H261392   2.742   0.054   2.361  1.1457  0.8539 -0.6065
13301TIP3   OH261393   1.841   4.508  11.968  0.4204 -0.1855  0.0248
13301TIP3    H161394   1.859   4.414  11.976  0.7642 -0.1592 -0.3735
13301TIP3    H261395   1.787   4.515  11.889  0.1552 -0.0780  0.2153
13302TIP3   OH261396   1.941   4.451   1.239 -0.2673 -0.0619  0.1121
13302TIP3    H161397   1.936   4.503   1.159  0.5191  0.8366  0.6204
13302TIP3    H261398   1.869   4.483   1.293  0.2010  0.5010  0.4146
13303TIP3   OH261399   0.781   6.693   1.466  0.3597 -0.5163 -0.2963
13303TIP3    H161400   0.704   6.750   1.466  0.1652 -0.7741 -0.7674
13303TIP3    H261401   0.748   6.609   1.435  0.6198 -0.9301  0.5158
13304TIP3   OH261402   0.218   0.893  11.952 -0.0764 -0.4669 -0.1128
13304TIP3    H161403   0.266   0.965  11.909  0.3483  0.5086  1.8903
13304TIP3    H261404   0.214   0.825  11.885  0.3316  1.0522 -1.7808
13305TIP3   OH261405   0.883   0.364  13.673  0.3741 -0.4457 -0.0863
13305TIP3    H161406   0.873   0.288  13.615  1.6132 -1.6857  1.2475
13305TIP3    H261407   0.881   0.440  13.614 -0.4195 -1.5254 -1.5089
13306TIP3   OH261408   0.504   1.273   0.289  0.2305 -0.6899 -0.3811
13306TIP3    H161409   0.546   1.302   0.208 -2.3757  1.2153 -1.1760
13306TIP3    H261410   0.548   1.322   0.358 -1.9255  3.0263 -1.3993
13307TIP3   OH261411   6.793   3.793  14.192  0.0722  0.2192  0.4801
13307TIP3    H161412   6.830   3.730  14.129 -1.0568 -1.0561  1.0445
13307TIP3    H261413   6.862   3.858  14.203  0.6499 -0.0058 -1.3819
13308TIP3   OH261414   4.335   4.806  10.513  0.0054 -0.3762 -0.3066
13308TIP3    H161415   4.352   4.764  10.429  1.0795 -0.8779  0.1388
13308TIP3    H261416   4.422   4.825  10.549 -0.3157 -2.3484  1.7618
13309TIP3   OH261417   3.076   5.529   5.249 -0.2588  0.4131  0.1698
13309TIP3    H161418   2.988   5.519   5.286 -0.1630 -0.4438  0.1881
13309TIP3    H261419   3.133   5.540   5.326 -0.0477 -1.4589  0.3384
13310TIP3   OH261420   2.362   2.106   4.641  0.2820 -0.8250  0.3123
13310TIP3    H161421   2.305   2.107   4.564 -0.1742 -1.6612  0.6329
13310TIP3    H261422   2.303   2.108   4.715  0.6886 -0.9472  0.6427
13311TIP3   OH261423   2.907   2.069   2.565 -0.5662  0.5540 -0.5344
13311TIP3    H161424   2.905   2.161   2.588  0.4071  0.6285 -0.7158
13311TIP3    H261425   2.905   2.069   2.469 -1.8455  0.3320 -0.5315
13312TIP3   OH261426   4.683   5.811   4.105  0.7405 -0.1925 -1.1202
13312TIP3    H161427   4.689   5.774   4.194  1.3983  1.7950 -0.2863
13312TIP3    H261428   4.766   5.785   4.064  0.8047 -0.4084 -0.8649
13313TIP3   OH261429   2.901   5.894  13.218  0.4631  0.2357  0.1044
13313TIP3    H161430   2.931   5.977  13.179  1.5773  0.1300  0.6973
13313TIP3    H261431   2.854   5.920  13.297  0.2729  0.3312 -0.0395
13314TIP3   OH261432   5.656   6.179   0.076 -0.1321 -0.1058  0.2012
13314TIP3    H161433   5.658   6.274   0.069 -1.7081  0.1708  2.3336
13314TIP3    H261434   5.737   6.156   0.120  0.2876  0.2318 -0.3861
13315TIP3   OH261435   4.917   1.516  12.089 -0.1907  0.5192  0.1936
13315TIP3    H161436   4.989   1.503  12.150  0.0840 -0.6365 -0.3454
13315TIP3    H261437   4.929   1.605  12.055  0.0939  0.8838  1.2232
13316TIP3   OH261438   4.134   6.181   2.481 -0.1951 -0.4747 -0.4247
13316TIP3    H161439   4.114   6.251   2.543  1.4737 -0.4105  0.1100
13316TIP3    H261440   4.117   6.218   2.395  0.0085  0.3606 -0.1112
13317TIP3   OH261441   3.567   1.470  10.793 -0.5606  0.2640 -0.5499
13317TIP3    H161442   3.589   1.563  10.803 -2.3604  0.6342  0.4690
13317TIP3    H261443   3.603   1.446  10.708  0.6541  1.6708 -0.4756
13318TIP3   OH261444   6.450   1.554  12.357  0.7962 -0.2464 -0.1123
13318TIP3    H161445   6.478   1.563  12.266  1.4331 -0.0064  0.1007
13318TIP3    H261446   6.531   1.531  12.405  0.5942  0.2759  0.4889
13319TIP3   OH261447   1.199   0.541   5.489  0.4467  0.2702  0.0774
13319TIP3    H161448   1.122   0.570   5.538  0.6373  0.4130  0.2996
13319TIP3    H261449   1.240   0.477   5.547  0.7802  0.5832  0.1886
13320TIP3   OH261450   3.240   1.591   3.190 -0.0780 -0.3591  0.6779
13320TIP3    H161451   3.254   1.525   3.122  0.8786  0.5480 -0.0344
13320TIP3    H261452   3.145   1.603   3.193 -0.1365 -0.3405 -0.5772
13321TIP3   OH261453   5.407   1.394  16.115 -0.1754  0.3681 -0.7679
13321TIP3    H161454   5.345   1.357  16.051 -0.2431  0.8794 -1.0018
13321TIP3    H261455   5.351   1.435  16.181 -0.1067 -0.2055 -0.3474
13322TIP3   OH261456   0.187   5.444   1.747  0.1985 -0.1260  0.2044
13322TIP3    H161457   0.111   5.403   1.705  1.2851 -1.4948 -0.4856
13322TIP3    H261458   0.155   5.531   1.774 -1.0858  0.0510 -1.7058
13323TIP3   OH261459   0.030   0.718  13.613  0.1306  0.0395  0.4107
13323TIP3    H161460   0.025   0.786  13.545  2.0006  0.6392  0.8081
13323TIP3    H261461  -0.011   0.642  13.573 -0.1888  0.8158 -0.8193
13324TIP3   OH261462   5.382   6.076   0.755 -0.1342 -0.4868  0.1193
13324TIP3    H161463   5.304   6.116   0.717 -0.2813 -0.0500  0.8629
13324TIP3    H261464   5.452   6.094   0.692 -0.4035  0.0997 -0.0137
13325TIP3   OH261465   2.883   3.200   0.917 -0.4231 -0.0435  0.4042
13325TIP3    H161466   2.800   3.153   0.916 -0.4863  0.0669 -0.5992
13325TIP3    H261467   2.927   3.169   0.996 -1.6349  0.3121  1.2473
13326TIP3   OH261468   6.373   5.526   4.097 -0.3032 -0.7283 -0.0750
13326TIP3    H161469   6.310   5.460   4.126 -0.6351 -0.5782 -0.4512
13326TIP3    H261470   6.458   5.488   4.118 -0.4422  0.6784  4.2227
13327TIP3   OH261471   2.123   4.670  12.449 -0.2285  0.6900 -0.0735
13327TIP3    H161472   2.097   4.671  12.357 -1.2700  1.3717  0.2060
13327TIP3    H261473   2.202   4.616  12.452 -1.0806 -0.6735 -1.1217
13328TIP3   OH261474   4.150   5.072   5.009 -0.3007  0.3221  0.5235
13328TIP3    H161475   4.120   4.982   5.006  1.0542 -0.1374  0.2240
13328TIP3    H261476   4.107   5.114   4.935  3.0456 -1.4293 -2.7404
13329TIP3   OH261477   3.907   5.956  16.294  0.3481  0.5481  0.3281
13329TIP3    H161478   3.891   5.909  16.376  1.5375  0.3693  0.4732
13329TIP3    H261479   4.002   5.955  16.284  0.2000  0.0519 -1.3449
13330TIP3   OH261480   2.104   3.492   3.090 -0.5527 -0.5973  0.0482
13330TIP3    H161481   2.109   3.429   3.018  1.8157 -0.9493  0.4536
13330TIP3    H261482   2.049   3.449   3.156  0.5825 -2.0432  0.0934
13331TIP3   OH261483   0.703   3.368  12.141 -0.1296  0.1087  0.3186
13331TIP3    H161484   0.707   3.445  12.085  0.0823 -1.0218 -1.3016
13331TIP3    H261485   0.699   3.403  12.230  1.8211  1.9639 -0.2440
13332TIP3   OH261486   6.685   4.185   1.375  0.4605 -0.5516  0.3037
13332TIP3    H161487   6.723   4.195   1.288 -0.6919  1.8649 -0.0088
13332TIP3    H261488   6.668   4.092   1.384  3.2912 -1.2907 -0.8483
13333TIP3   OH261489   1.939   0.848   1.545  0.3211 -0.2245  0.5515
13333TIP3    H161490   1.941   0.755   1.521 -0.5146 -0.0872 -0.1070
13333TIP3    H261491   1.859   0.881   1.504  1.9776  1.4085 -1.6006
13334TIP3   OH261492   4.592   1.485   0.845 -0.0983  0.0945 -0.1093
13334TIP3    H161493   4.545   1.409   0.878 -0.5608 -0.0083 -0.9625
13334TIP3    H261494   4.524   1.550   0.828 -0.1057 -0.3900 -2.2586
13335TIP3   OH261495   6.272   1.264   1.534 -0.1497  0.6686 -0.3112
13335TIP3    H161496   6.281   1.237   1.442  2.6403  0.8907 -0.1875
13335TIP3    H261497   6.304   1.189   1.584 -1.2455  0.7144  0.5016
13336TIP3   OH261498   5.487   0.365   0.597 -0.3201  0.0243  0.1978
13336TIP3    H161499   5.491   0.442   0.541 -1.1847 -0.2890 -0.3203
13336TIP3    H261500   5.405   0.376   0.646 -0.9344 -0.9917 -0.5536
13337TIP3   OH261501   0.675   4.637  15.110  0.3638 -0.1120  0.2256
13337TIP3    H161502   0.585   4.633  15.078  0.5149 -0.0243 -0.2228
13337TIP3    H261503   0.683   4.561  15.168 -0.7905  1.3281  2.3952
13338TIP3   OH261504   4.832   4.750  15.497  0.1758 -0.7209  0.7204
13338TIP3    H161505   4.856   4.828  15.447  0.1584 -1.4206 -0.4213
13338TIP3    H261506   4.889   4.752  15.574 -0.4832  0.8963  1.2059
13339TIP3   OH261507   3.948   1.358  16.637  0.0685  0.0108  0.2827
13339TIP3    H161508   3.980   1.268  16.630  0.7019  0.2674 -0.2055
13339TIP3    H261509   3.987   1.403  16.562 -0.8664  0.5129  0.0844
13340TIP3   OH261510   5.157   3.224   1.032 -0.3496 -0.2322  0.3894
13340TIP3    H161511   5.241   3.244   1.074  0.5382 -1.7184 -0.5787
13340TIP3    H261512   5.102   3.300   1.052  2.7185  3.3318 -3.0504
13341TIP3   OH261513   2.266   4.099  16.446 -0.1418 -0.2555  0.7997
13341TIP3    H161514   2.203   4.044  16.492  0.5697 -0.8157  1.1400
13341TIP3    H261515   2.237   4.189  16.462 -0.5225 -0.4893  1.4289
13342TIP3   OH261516   4.561   6.269   0.038  0.0940  0.7805 -0.0303
13342TIP3    H161517   4.623   6.230  -0.023  2.5982  2.6827  1.0877
13342TIP3    H261518   4.515   6.195   0.077  1.0309 -0.6740 -1.5569
13343TIP3   OH261519   4.643   1.799  11.142 -0.6301  0.5102 -0.4237
13343TIP3    H161520   4.648   1.763  11.054 -0.9584 -1.1003  0.1751
13343TIP3    H261521   4.633   1.893  11.129  0.8050  0.4928 -2.0612
13344TIP3   OH261522   0.283   5.392  14.022 -0.7251  0.1745  0.3461
13344TIP3    H161523   0.254   5.483  14.020 -1.5282 -0.0619  1.0733
13344TIP3    H261524   0.334   5.385  14.103  2.2410  0.8118 -1.2927
13345TIP3   OH261525   1.150   0.717  15.148 -0.3246 -0.0982  0.3862
13345TIP3    H161526   1.160   0.626  15.177  0.7324  0.4302  1.7923
13345TIP3    H261527   1.096   0.758  15.216  0.1520  0.5960  0.3514
13346TIP3   OH261528   2.489   1.487  16.110 -0.4439  0.0293 -0.7794
13346TIP3    H161529   2.573   1.519  16.145  0.3253 -2.2082 -0.4191
13346TIP3    H261530   2.499   1.494  16.015 -0.6965  1.6887 -0.7190
13347TIP3   OH261531   6.707   2.596   1.948  0.3795  0.0101 -0.2741
13347TIP3    H161532   6.786   2.582   1.896  0.3645 -0.9254 -0.0743
13347TIP3    H261533   6.736   2.587   2.039  0.1911  0.4626 -0.1677
13348TIP3   OH261534   1.783   3.050   0.378 -0.4172  0.1349 -0.3356
13348TIP3    H161535   1.824   3.103   0.310  0.0041  1.1168  0.6431
13348TIP3    H261536   1.698   3.092   0.392 -0.5559 -0.1428 -0.3531
13349TIP3   OH261537   1.650   6.571   0.266 -0.0214  0.1583 -0.0084
13349TIP3    H161538   1.559   6.560   0.293 -1.4301  3.2951 -2.7412
13349TIP3    H261539   1.673   6.489   0.223 -2.1559 -0.1239 -0.6835
13350TIP3   OH261540   2.350   2.444   2.371 -0.6180  0.7093 -0.0098
13350TIP3    H161541   2.323   2.352   2.380 -1.5934  0.9829  0.0603
13350TIP3    H261542   2.431   2.441   2.322 -0.1100 -0.2585  0.8452
13351TIP3   OH261543   2.001   0.506   3.047 -0.5287 -0.5794  0.4664
13351TIP3    H161544   1.962   0.420   3.060 -0.6670 -0.7473 -0.8717
13351TIP3    H261545   2.016   0.511   2.952  1.0950  0.1674  0.7281
13352TIP3   OH261546   2.284   0.536   1.185 -0.0500 -0.2830  0.2428
13352TIP3    H161547   2.318   0.576   1.105 -1.7775 -0.6080 -0.7084
13352TIP3    H261548   2.294   0.442   1.171  0.6222 -0.3119  0.8818
13353TIP3   OH261549   1.149   1.889  15.837 -0.2689  0.0898 -0.5090
13353TIP3    H161550   1.104   1.942  15.771  0.5574  1.2904 -0.1453
13353TIP3    H261551   1.242   1.911  15.827 -0.1179  0.2077  0.9567
13354TIP3   OH261552   1.492   5.799  10.730 -0.1493 -0.1601 -0.4953
13354TIP3    H161553   1.464   5.888  10.707 -0.3159 -0.1390 -0.2239
13354TIP3    H261554   1.587   5.800  10.722 -0.1405  0.0831 -0.3629
13355TIP3   OH261555   2.156   3.049  13.497 -0.2108  0.5584  0.3076
13355TIP3    H161556   2.233   3.019  13.545  0.6111  1.5551 -0.3514
13355TIP3    H261557   2.180   3.136  13.465 -2.0989  1.5069  1.2540
13356TIP3   OH261558   0.468   4.571   6.490  0.3840  0.3845 -0.3296
13356TIP3    H161559   0.519   4.497   6.525  0.9489  1.5436  1.4618
13356TIP3    H261560   0.503   4.586   6.403  1.2464 -0.5440 -0.1581
13357TIP3   OH261561   3.071   4.007   1.191 -0.3354  0.2251  0.3951
13357TIP3    H161562   3.167   4.012   1.192 -0.3441  2.3370 -1.3352
13357TIP3    H261563   3.044   4.052   1.271  0.0961 -0.4035  0.9055
13358TIP3   OH261564   6.472   3.221   1.592  0.0437 -0.0356 -0.5339
13358TIP3    H161565   6.502   3.279   1.662  1.0696  0.5076 -1.4001
13358TIP3    H261566   6.486   3.133   1.627  1.4227  0.2147 -0.3859
13359TIP3   OH261567   4.944   0.200  15.176  0.1405 -0.2513 -0.1722
13359TIP3    H161568   4.923   0.109  15.154 -1.7987  0.3632 -1.0971
13359TIP3    H261569   5.000   0.230  15.104 -1.4974  0.0625 -1.3732
13360TIP3   OH261570   2.933   0.443  12.984 -0.5791 -0.2592  0.3164
13360TIP3    H161571   3.005   0.395  13.024  0.7440 -0.0879 -1.6977
13360TIP3    H261572   2.861   0.381  12.983  0.4920 -1.5516 -0.4085
13361TIP3   OH261573   3.351   5.313  11.020  1.1720  0.2073  0.6175
13361TIP3    H161574   3.437   5.322  11.061  1.2055  0.7535  0.4448
13361TIP3    H261575   3.342   5.220  11.003  0.7277 -0.1781  2.7685
13362TIP3   OH261576   5.713   3.278   4.353  0.0754 -0.3404  0.1081
13362TIP3    H161577   5.755   3.315   4.275  1.4244  0.9018  1.3561
13362TIP3    H261578   5.785   3.236   4.400 -0.0185  1.6796  2.2325
13363TIP3   OH261579   6.455   3.000  17.216  0.2844  0.1456 -0.4307
13363TIP3    H161580   6.485   3.062  17.150 -1.4050  0.5516 -0.8789
13363TIP3    H261581   6.458   3.049  17.298  1.3316 -0.0003 -0.3755
13364TIP3   OH261582   2.212   6.128   4.166 -0.0368 -0.1557 -0.2246
13364TIP3    H161583   2.208   6.224   4.164 -1.7912 -0.1738 -2.2950
13364TIP3    H261584   2.207   6.105   4.258  0.0752  1.7472  0.2899
13365TIP3   OH261585   1.795   1.451  13.052  0.3163  0.7158 -0.8119
13365TIP3    H161586   1.811   1.363  13.017  1.4446  0.5784 -0.0088
13365TIP3    H261587   1.882   1.487  13.066  0.0065  0.4418  2.5721
13366TIP3   OH261588   4.937   3.226  10.669  0.0446 -0.0406  0.5343
13366TIP3    H161589   4.940   3.187  10.756  2.2696 -1.0123  0.0903
13366TIP3    H261590   4.900   3.313  10.683  2.6194  0.8188  2.9167
13367TIP3   OH261591   2.166   0.297   2.832  0.2281 -0.5432  0.3536
13367TIP3    H161592   2.100   0.278   2.899  0.7806  0.2188  1.1290
13367TIP3    H261593   2.238   0.337   2.880 -0.2921  2.1807 -0.9803
13368TIP3   OH261594   0.287   6.088   3.093 -0.5223 -0.3866  0.3297
13368TIP3    H161595   0.253   6.160   3.146 -2.0197  1.4158 -2.8402
13368TIP3    H261596   0.350   6.045   3.150 -0.9525  2.2376  3.0445
13369TIP3   OH261597   4.686   1.233  13.718 -0.3201 -0.0418  0.8492
13369TIP3    H161598   4.740   1.298  13.763 -0.7059  0.6776  0.3039
13369TIP3    H261599   4.690   1.259  13.625  1.0496 -1.9184  0.3241
13370TIP3   OH261600   0.474   6.212   1.568  0.2936 -0.5225  0.4330
13370TIP3    H161601   0.525   6.208   1.649  0.6800 -0.9238  0.1749
13370TIP3    H261602   0.385   6.192   1.595 -0.0535  1.6662  1.1376
13371TIP3   OH261603   5.006   4.549  12.102  0.3441  0.0752  0.1154
13371TIP3    H161604   5.012   4.455  12.089 -1.1164 -0.0911  0.4143
13371TIP3    H261605   5.077   4.586  12.050 -1.1358 -0.9732 -2.8465
13372TIP3   OH261606   0.366   6.807  12.072  0.4726 -0.4970 -0.2741
13372TIP3    H161607   0.354   6.720  12.035 -0.6159  0.4622 -2.3370
13372TIP3    H261608   0.277   6.837  12.092  0.8729 -0.0486  0.9018
13373TIP3   OH261609   2.720   2.547  11.746  0.0606  0.2187  0.1539
13373TIP3    H161610   2.816   2.553  11.738  0.0228  1.1236  0.3136
13373TIP3    H261611   2.691   2.514  11.660  0.5829 -0.9710  0.4149
13374TIP3   OH261612   6.172   4.755   4.835 -0.0918  0.2961  0.0676
13374TIP3    H161613   6.206   4.787   4.919  1.1398  1.1288 -0.7145
13374TIP3    H261614   6.219   4.806   4.769 -0.9992 -0.3795 -1.1438
13375TIP3   OH261615   0.653   1.175  11.266  0.4713 -0.1695  0.3272
13375TIP3    H161616   0.685   1.086  11.251  0.8154  0.2898 -2.0424
13375TIP3    H261617   0.683   1.225  11.190 -2.3369  1.2494 -0.0120
13376TIP3   OH261618   1.992   3.363  16.368 -0.5716  0.3756  0.3709
13376TIP3    H161619   1.956   3.313  16.442 -1.3753  0.4896  0.0698
13376TIP3    H261620   1.924   3.427  16.348 -1.1408 -0.7785 -1.5977
13377TIP3   OH261621   5.892   0.562   3.057 -0.0899  0.4951  0.0402
13377TIP3    H161622   5.892   0.557   3.153  0.4609  0.8424  0.0637
13377TIP3    H261623   5.890   0.471   3.028 -1.6785  0.4012  0.3669
13378TIP3   OH261624   6.598   0.111   2.519 -0.0913 -0.4901 -0.4464
13378TIP3    H161625   6.597   0.175   2.448  0.8395  1.3154  1.0665
13378TIP3    H261626   6.518   0.060   2.508 -1.7083  1.9749 -0.8397
13379TIP3   OH261627   4.619   3.190  11.650 -0.0924 -0.2879  0.0457
13379TIP3    H161628   4.710   3.211  11.672 -0.0279  0.1992 -0.6415
13379TIP3    H261629   4.589   3.265  11.598 -1.6531  0.7084  2.2252
13380TIP3   OH261630   6.535   6.807  15.549  0.2385 -0.1137  0.1360
13380TIP3    H161631   6.529   6.776  15.459  1.7162  1.4789 -0.5603
13380TIP3    H261632   6.561   6.730  15.599 -0.9131 -1.0926 -0.7190
13381TIP3   OH261633   5.409   3.782  13.591  0.2333  0.0473  0.7579
13381TIP3    H161634   5.394   3.842  13.664 -0.9117 -0.5898  1.0715
13381TIP3    H261635   5.389   3.833  13.513  2.0623  0.9229  0.8100
13382TIP3   OH261636   2.127   1.661   3.230 -0.0033 -0.3421  0.1125
13382TIP3    H161637   2.074   1.692   3.157  2.2606 -0.0403 -1.5333
13382TIP3    H261638   2.068   1.663   3.306 -1.6128  2.2948 -1.0631
13383TIP3   OH261639   4.283   6.237  15.765  0.0249  0.0495 -0.6343
13383TIP3    H161640   4.221   6.193  15.707  0.9510 -1.3984 -0.5743
13383TIP3    H261641   4.274   6.192  15.849  0.4858  0.4581 -0.3602
13384TIP3   OH261642   4.594   4.525  13.022  0.0609  0.0643  0.1641
13384TIP3    H161643   4.519   4.477  12.987 -2.2398  2.2745  1.7266
13384TIP3    H261644   4.615   4.480  13.105  1.5796 -1.4818 -0.9795
13385TIP3   OH261645   2.999   6.040   0.830  0.7868  1.0136 -0.2955
13385TIP3    H161646   2.939   6.089   0.885 -0.3934 -0.4060 -0.2596
13385TIP3    H261647   3.086   6.069   0.857  0.3445 -0.3717  3.1062
13386TIP3   OH261648   3.735   4.078   2.484  0.4198 -0.6979  0.2424
13386TIP3    H161649   3.825   4.045   2.485  0.3542 -1.0311 -1.4103
13386TIP3    H261650   3.683   4.006   2.449  0.0600  0.5767 -2.1227
13387TIP3   OH261651   1.263   5.839   1.511  0.0128 -0.2360 -0.2248
13387TIP3    H161652   1.231   5.768   1.567 -1.9480  1.8655  1.4915
13387TIP3    H261653   1.357   5.843   1.528  0.0434 -1.9444  0.1461
13388TIP3   OH261654   3.917   3.300  15.674 -0.3806 -0.5780 -0.3152
13388TIP3    H161655   3.964   3.336  15.750 -1.3584  1.0467 -0.4212
13388TIP3    H261656   3.987   3.267  15.617  0.4702 -0.4528  0.6189
13389TIP3   OH261657   3.179   4.237  14.085  0.1089 -0.2776 -0.5382
13389TIP3    H161658   3.163   4.242  14.179 -0.1135  1.5029 -0.6351
13389TIP3    H261659   3.231   4.158  14.073  2.3793  0.8010  1.4196
13390TIP3   OH261660   6.100   4.950   1.926  0.3992 -0.4117 -0.0656
13390TIP3    H161661   6.065   4.864   1.949  0.0579 -0.4806 -0.8070
13390TIP3    H261662   6.023   5.004   1.911  0.6039 -0.3475 -0.9400
13391TIP3   OH261663   0.367   6.791  15.156 -0.1821  0.6036 -0.2828
13391TIP3    H161664   0.444   6.824  15.203 -1.7459  1.1348  2.0589
13391TIP3    H261665   0.300   6.857  15.170 -1.8247 -1.0268 -0.0940
13392TIP3   OH261666   1.708   2.737  15.543  0.1987 -0.2930 -0.4740
13392TIP3    H161667   1.620   2.768  15.520 -0.4750 -0.6950  1.3846
13392TIP3    H261668   1.721   2.659  15.489 -1.8124 -1.9059  1.1806
13393TIP3   OH261669   0.178   0.431  15.390 -0.2927 -0.3266  0.0236
13393TIP3    H161670   0.108   0.489  15.361  0.8176  1.1222  0.0589
13393TIP3    H261671   0.200   0.379  15.313 -1.6883 -1.1386  0.1444
13394TIP3   OH261672   1.102   5.897   0.953  0.3610 -0.5740  0.1541
13394TIP3    H161673   1.193   5.872   0.934  0.8595 -0.4001  2.1208
13394TIP3    H261674   1.109   5.960   1.024 -1.1660  1.7032 -1.5692
13395TIP3   OH261675   3.985   0.127  14.810 -0.1990  0.0053  0.8705
13395TIP3    H161676   4.030   0.150  14.728 -0.8109  1.3471  0.8884
13395TIP3    H261677   3.936   0.048  14.789 -0.1295  0.1782  0.0200
13396TIP3   OH261678   4.767   3.489   2.669  0.3660 -0.0047  0.3390
13396TIP3    H161679   4.807   3.420   2.617  0.0306  0.5771 -0.7242
13396TIP3    H261680   4.705   3.443   2.726  1.7377 -0.7917  1.2335
13397TIP3   OH261681   1.686   0.060  11.272 -0.7828  0.4759 -0.3691
13397TIP3    H161682   1.608   0.008  11.291  1.2345 -2.5562  0.3397
13397TIP3    H261683   1.733   0.008  11.207  0.0179  2.9492 -1.8842
13398TIP3   OH261684   3.513   5.783  10.687  0.2636 -0.0522 -0.6678
13398TIP3    H161685   3.433   5.738  10.660 -0.0838  0.5658 -0.6924
13398TIP3    H261686   3.540   5.833  10.610  0.8956 -0.5472 -0.7840
13399TIP3   OH261687   1.505   3.460  14.714 -0.0535 -0.6050  0.5551
13399TIP3    H161688   1.432   3.488  14.770 -0.5382  1.5352 -1.0566
13399TIP3    H261689   1.508   3.524  14.643  2.3401 -1.6183 -0.3685
13400TIP3   OH261690   4.141   2.852  15.015 -0.2382 -0.6313 -0.2444
13400TIP3    H161691   4.062   2.833  14.964 -0.5423 -1.4265  0.4867
13400TIP3    H261692   4.125   2.808  15.099  1.1448 -1.1226 -0.2164
13401TIP3   OH261693   3.502   1.490  16.154 -0.1679  0.0065 -0.4154
13401TIP3    H161694   3.587   1.535  16.156 -0.1971  0.1557 -1.5365
13401TIP3    H261695   3.438   1.561  16.150 -0.6090  0.0434  3.4242
13402TIP3   OH261696   2.794   0.494  11.187  0.2950 -0.2970  0.5805
13402TIP3    H161697   2.803   0.404  11.154 -1.4181  0.2637 -1.6444
13402TIP3    H261698   2.884   0.528  11.190  0.8097 -1.5409 -0.1303
13403TIP3   OH261699   4.019   5.633  13.122  0.1061  0.5709 -0.6610
13403TIP3    H161700   3.944   5.577  13.100 -0.7717  1.7527 -0.7358
13403TIP3    H261701   4.080   5.622  13.048 -1.4564  2.1163 -2.2777
13404TIP3   OH261702   1.402   2.766  10.697  0.2989  0.8391 -1.3861
13404TIP3    H161703   1.453   2.827  10.643  1.2338  0.0511 -1.4157
13404TIP3    H261704   1.392   2.688  10.642  1.8811 -0.2573 -0.1826
13405TIP3   OH261705   1.334   5.649  14.995  0.0653 -0.9175  0.5085
13405TIP3    H161706   1.398   5.578  14.999  0.0059 -0.9217  3.0837
13405TIP3    H261707   1.384   5.727  15.021  0.1026  0.0423 -2.1483
13406TIP3   OH261708   6.292   5.362   0.678 -0.5901  0.1772 -0.2027
13406TIP3    H161709   6.348   5.431   0.641  0.2615 -0.9515 -1.0912
13406TIP3    H261710   6.213   5.363   0.624 -0.7064  0.6338 -0.0305
13407TIP3   OH261711   0.136   5.456  11.681  0.3972  0.4491  0.0401
13407TIP3    H161712   0.108   5.548  11.677 -1.2025 -0.0304 -0.6040
13407TIP3    H261713   0.055   5.406  11.677  1.1778 -1.0051  1.3546
13408TIP3   OH261714   3.394   2.394   5.370  0.0939 -0.0132 -0.1766
13408TIP3    H161715   3.378   2.306   5.404 -0.5696  0.8021  1.7373
13408TIP3    H261716   3.314   2.442   5.390 -0.2652  0.6358 -2.7519
13409TIP3   OH261717   0.987   5.070  12.671 -0.4455 -0.0975 -0.4005
13409TIP3    H161718   0.927   5.096  12.601  1.1778  0.1873 -1.7300
13409TIP3    H261719   1.022   4.985  12.643  0.4306  0.1481 -0.0786
13410TIP3   OH261720   6.746   6.315  12.099  0.3586 -0.1964  0.5209
13410TIP3    H161721   6.653   6.316  12.123 -0.0347 -0.6761 -0.8640
13410TIP3    H261722   6.777   6.230  12.129 -0.3710 -1.2050 -1.3824
13411TIP3   OH261723   2.268   0.829  14.622 -0.2712 -0.3736  0.2763
13411TIP3    H161724   2.212   0.888  14.571  0.5111  0.6451  0.5571
13411TIP3    H261725   2.349   0.879  14.636 -0.9835  0.0535  3.8192
13412TIP3   OH261726   1.189   5.618  16.950 -0.3675  0.8264  0.0144
13412TIP3    H161727   1.135   5.555  16.998 -0.0290 -0.6683 -1.4596
13412TIP3    H261728   1.278   5.584  16.958 -0.2680  0.6763 -1.3804
13413TIP3   OH261729   3.009   4.368   0.672 -0.7449 -0.3443 -0.2262
13413TIP3    H161730   2.968   4.453   0.691 -0.7461 -0.1107 -1.2088
13413TIP3    H261731   3.000   4.318   0.754  0.9414  1.2475  0.9966
13414TIP3   OH261732   1.556   0.900   2.119 -0.4255  0.2482  0.2919
13414TIP3    H161733   1.463   0.902   2.140  0.1653  1.8660  3.5589
13414TIP3    H261734   1.586   0.990   2.132  1.5062 -0.0577 -1.4095
13415TIP3   OH261735   6.276   1.464  13.278 -0.0652 -0.3794  0.3336
13415TIP3    H161736   6.324   1.384  13.298 -0.1810 -0.0228  2.2249
13415TIP3    H261737   6.184   1.437  13.275 -0.0124 -0.5073 -0.1203
13416TIP3   OH261738   5.094   0.590   5.156  0.3836  0.2338  0.6289
13416TIP3    H161739   5.047   0.589   5.240 -0.6085  0.1360  0.0962
13416TIP3    H261740   5.133   0.677   5.151 -0.1283  0.4868  0.8997
13417TIP3   OH261741   0.197   5.807   5.111 -0.1893  0.4084 -0.2376
13417TIP3    H161742   0.206   5.716   5.137 -0.2640  0.8168  1.3604
13417TIP3    H261743   0.272   5.851   5.152 -1.6406  1.5000  1.4488
13418TIP3   OH261744   2.436   5.884  15.511 -0.2390 -0.0950  0.1715
13418TIP3    H161745   2.376   5.893  15.586  1.4812 -0.3414  1.6341
13418TIP3    H261746   2.523   5.900  15.548  0.7615 -1.2542 -1.5834
13419TIP3   OH261747   4.967   5.241  16.419 -0.5354  0.5493 -0.7540
13419TIP3    H161748   4.909   5.306  16.379 -1.0721  0.4661 -0.1303
13419TIP3    H261749   5.023   5.293  16.476  0.0702  0.6388 -1.4141
13420TIP3   OH261750   0.596   1.491  15.442 -0.2052 -0.6703 -0.4660
13420TIP3    H161751   0.669   1.549  15.421 -1.1885  0.6990 -0.2123
13420TIP3    H261752   0.611   1.466  15.534  1.4459 -2.7236 -1.2103
13421TIP3   OH261753   3.103   0.623   5.092  0.0216  0.4997  0.5017
13421TIP3    H161754   3.078   0.714   5.082 -0.3754  0.3516  0.1418
13421TIP3    H261755   3.191   0.627   5.130 -0.1271  1.0233  0.8076
13422TIP3   OH261756   3.756   4.561  12.717  0.2065  0.2276 -0.4074
13422TIP3    H161757   3.820   4.623  12.752 -0.7475 -0.3446  2.6857
13422TIP3    H261758   3.805   4.481  12.703  0.2869 -0.2001  1.9112
13423TIP3   OH261759   2.329   2.245   3.697  0.1651  0.5048  0.0528
13423TIP3    H161760   2.276   2.267   3.774  0.3057  1.6378 -0.1631
13423TIP3    H261761   2.418   2.239   3.731 -0.0058 -0.8296  0.3082
13424TIP3   OH261762   3.772   1.077  13.422 -0.5460 -0.9428 -0.2682
13424TIP3    H161763   3.758   1.139  13.350 -0.3286  0.6230  0.9766
13424TIP3    H261764   3.805   0.998  13.379  1.2432  0.4987 -1.7799
13425TIP3   OH261765   0.497   0.396  13.727  0.5114 -0.5910 -0.4511
13425TIP3    H161766   0.486   0.317  13.780  1.1046 -0.4740 -0.1364
13425TIP3    H261767   0.472   0.369  13.638  1.2287 -1.2941 -0.4574
13426TIP3   OH261768   6.381   2.554  13.823 -0.0521  0.2881 -0.4181
13426TIP3    H161769   6.312   2.615  13.795 -1.2529 -1.4108 -1.2868
13426TIP3    H261770   6.394   2.496  13.749  1.0717 -0.5321  0.3916
13427TIP3   OH261771   0.974   4.045  13.467 -0.2989  0.4979  0.0032
13427TIP3    H161772   0.986   3.958  13.505  0.6138  0.8350  0.5244
13427TIP3    H261773   0.935   4.097  13.537  1.5555  1.1678  0.6105
13428TIP3   OH261774   5.527   3.227  14.880 -0.1457  0.9792 -0.0841
13428TIP3    H161775   5.573   3.250  14.800  0.8528 -0.6569 -0.0075
13428TIP3    H261776   5.596   3.216  14.945 -0.7519 -0.0764  0.4004
13429TIP3   OH261777   5.935   4.852   4.393  0.3695 -0.0935  0.0495
13429TIP3    H161778   5.882   4.783   4.434  1.3324 -0.8833 -0.0088
13429TIP3    H261779   6.024   4.834   4.421  0.7068  0.8601 -0.3592
13430TIP3   OH261780   4.855   2.473  12.524  0.4880 -0.2121  0.1761
13430TIP3    H161781   4.815   2.396  12.565  0.4779 -0.3928 -0.1663
13430TIP3    H261782   4.847   2.542  12.589  0.3634 -0.4635  0.4305
13431TIP3   OH261783   2.417   5.559   0.622 -0.6930 -0.1105  0.7435
13431TIP3    H161784   2.328   5.571   0.654 -0.6509  0.2745  0.7218
13431TIP3    H261785   2.472   5.576   0.699 -0.6143  0.2665  0.6048
13432TIP3   OH261786   3.506   1.979  11.665  0.1779 -0.3292 -0.3702
13432TIP3    H161787   3.415   2.000  11.643 -0.7548  0.1188  3.1946
13432TIP3    H261788   3.504   1.885  11.687  1.4860 -1.2694 -3.7253
13433TIP3   OH261789   6.458   4.981  14.580 -0.1918  0.1576 -0.0190
13433TIP3    H161790   6.497   5.043  14.642 -0.1645  0.2626 -0.1408
13433TIP3    H261791   6.407   4.921  14.635 -0.5683  0.5482  0.0634
13434TIP3   OH261792   6.052   3.396  14.106 -0.1782  0.0768  0.0395
13434TIP3    H161793   6.065   3.329  14.173  1.1042  0.3964  0.1439
13434TIP3    H261794   5.972   3.370  14.060  1.2028 -2.5613 -1.0953
13435TIP3   OH261795   4.026   1.728  15.298 -0.3658  0.1892  0.1248
13435TIP3    H161796   4.080   1.731  15.219  0.7380 -0.4007  0.8301
13435TIP3    H261797   3.960   1.661  15.279 -0.0917  0.0338 -0.2970
13436TIP3   OH261798   0.352   1.075  16.447 -0.3728 -0.3642  0.0403
13436TIP3    H161799   0.390   1.080  16.359 -0.9145 -0.4018 -0.1986
13436TIP3    H261800   0.333   1.166  16.469  1.1392 -0.1766  0.7430
13437TIP3   OH261801   2.607   2.411   3.834 -0.4963  0.0674 -0.0117
13437TIP3    H161802   2.541   2.416   3.904  1.5748 -0.9909  2.1439
13437TIP3    H261803   2.617   2.318   3.818  1.3008  0.1373  0.5600
13438TIP3   OH261804   1.635   1.632   2.601 -0.5153 -0.2878 -0.2590
13438TIP3    H161805   1.656   1.546   2.564  1.3497 -0.4815  1.0709
13438TIP3    H261806   1.563   1.616   2.661  0.0689 -1.0206  0.2628
13439TIP3   OH261807   1.989   1.829   5.693  0.1726 -0.0421  0.2049
13439TIP3    H161808   2.077   1.867   5.695  0.3156 -0.3845  0.7041
13439TIP3    H261809   2.005   1.734   5.691 -0.1864 -0.1316  1.1860
13440TIP3   OH261810   5.379   5.996   3.919 -0.0872 -0.2886 -0.1145
13440TIP3    H161811   5.462   5.975   3.961  0.9518  3.0361 -0.2540
13440TIP3    H261812   5.332   6.050   3.983 -0.6057  0.7466 -1.3123
13441TIP3   OH261813   3.155   0.266  14.990  0.5479  0.0634 -0.0160
13441TIP3    H161814   3.134   0.188  15.041 -0.0226 -0.0660 -0.4381
13441TIP3    H261815   3.146   0.339  15.052  1.7806 -0.2552  0.5664
13442TIP3   OH261816   3.675   0.990  10.888  0.0094  0.2439  0.3621
13442TIP3    H161817   3.711   1.011  10.802  1.6781 -0.3447  0.8753
13442TIP3    H261818   3.619   0.914  10.873 -1.3145  1.3512 -0.5068
13443TIP3   OH261819   1.419   1.398   2.669 -0.1472 -0.4286  0.0219
13443TIP3    H161820   1.467   1.366   2.593  0.4693 -0.1381  0.2762
13443TIP3    H261821   1.463   1.356   2.744 -0.4234 -0.3222  0.2447
13444TIP3   OH261822   2.240   2.652  10.726 -0.0855  0.1093 -0.0455
13444TIP3    H161823   2.199   2.728  10.767 -1.5047 -0.0115 -1.1716
13444TIP3    H261824   2.170   2.611  10.675 -0.0623 -3.3148  2.2883
13445TIP3   OH261825   2.506   0.312  14.985  0.4747 -0.2622 -0.2430
13445TIP3    H161826   2.524   0.361  15.066 -0.4140  1.1455 -0.8703
13445TIP3    H261827   2.465   0.376  14.927  1.2769 -1.1986 -1.8969
13446TIP3   OH261828   4.731   1.693   1.684 -0.0351 -0.1295 -0.5648
13446TIP3    H161829   4.719   1.724   1.774 -0.3181  0.0243 -0.6545
13446TIP3    H261830   4.781   1.612   1.693 -3.1646 -2.1749  0.0510
13447TIP3   OH261831   0.953   2.416   3.526  0.3603  0.0414  0.1689
13447TIP3    H161832   0.892   2.375   3.589 -0.4973  0.3636 -0.4386
13447TIP3    H261833   1.038   2.412   3.570 -0.1138 -0.3053  1.0939
13448TIP3   OH261834   6.104   1.102   3.050  0.2981 -0.9144 -0.3341
13448TIP3    H161835   6.102   1.007   3.036 -1.0513 -0.6982 -1.8777
13448TIP3    H261836   6.025   1.134   3.008  0.1794  0.8110  1.0960
13449TIP3   OH261837   4.546   3.296   5.297  0.0316 -0.0373  0.2290
13449TIP3    H161838   4.505   3.382   5.291 -1.1605 -0.6014  0.0137
13449TIP3    H261839   4.635   3.314   5.327 -0.6593  1.1523  1.6606
13450TIP3   OH261840   4.733   3.916  15.382  0.2590 -0.1949  0.1860
13450TIP3    H161841   4.758   3.976  15.452 -2.4206 -0.3373  1.3780
13450TIP3    H261842   4.704   3.837  15.427 -1.8081 -0.1803 -1.0036
13451TIP3   OH261843   5.025   1.211   0.022 -0.5103 -0.6511  0.0727
13451TIP3    H161844   5.099   1.151   0.012  0.9545  1.2200 -0.7453
13451TIP3    H261845   4.971   1.194  -0.055  2.5509  2.5032 -3.1349
13452TIP3   OH261846   6.316   3.487   1.606 -0.2185 -0.4292  0.4257
13452TIP3    H161847   6.362   3.530   1.534 -1.2648 -0.7288 -0.4425
13452TIP3    H261848   6.359   3.402   1.616 -0.6473 -0.7682 -0.4824
13453TIP3   OH261849   1.882   6.489   5.589 -0.1555  0.5718  0.3826
13453TIP3    H161850   1.966   6.462   5.551 -0.1777 -0.1908  0.8672
13453TIP3    H261851   1.900   6.497   5.683 -0.9475 -0.9312  0.6907
13454TIP3   OH261852   3.930   2.086  16.375 -0.0622 -0.1831  0.3114
13454TIP3    H161853   3.982   2.164  16.393  2.5310 -1.0909 -2.3018
13454TIP3    H261854   3.843   2.118  16.352  0.9264  1.9532 -0.6411
13455TIP3   OH261855   1.620   4.597  13.667 -0.3353  0.1814  0.0631
13455TIP3    H161856   1.592   4.508  13.689  0.3058  0.5578  2.6923
13455TIP3    H261857   1.543   4.651  13.684 -0.6275  0.1903 -1.2266
13456TIP3   OH261858   2.082   6.705   1.912  0.4592 -0.1365  0.2769
13456TIP3    H161859   2.164   6.739   1.949 -0.1851 -0.1299  1.7668
13456TIP3    H261860   2.037   6.782   1.879 -0.3870  0.3761  2.4250
13457TIP3   OH261861   4.523   4.097   1.771 -0.2919 -0.7012  0.0125
13457TIP3    H161862   4.485   4.181   1.748 -0.0783 -0.2598  1.1710
13457TIP3    H261863   4.604   4.092   1.720 -0.0653  0.0282  0.2858
13458TIP3   OH261864   3.530   1.519  13.196  0.0492 -0.1440  0.2419
13458TIP3    H161865   3.438   1.533  13.215  0.0587  1.4894 -0.7718
13458TIP3    H261866   3.534   1.501  13.102  0.9961  3.0393 -0.4405
13459TIP3   OH261867   3.903   5.547  10.653 -0.1134  0.3146 -0.1596
13459TIP3    H161868   3.835   5.553  10.586 -0.2751  1.8845  0.0998
13459TIP3    H261869   3.920   5.454  10.661 -0.9096  0.0101 -1.5599
13460TIP3   OH261870   0.472   3.571   2.398 -0.4645  0.0673 -0.8183
13460TIP3    H161871   0.432   3.488   2.371 -0.9256 -0.0164  0.0689
13460TIP3    H261872   0.522   3.600   2.322  0.2024 -1.3279 -0.9384
13461TIP3   OH261873   0.803   3.646   4.692  0.1573  0.1910 -1.1066
13461TIP3    H161874   0.709   3.647   4.675 -0.0105  0.8628 -0.2300
13461TIP3    H261875   0.813   3.589   4.768  0.4343  0.2550 -1.0921
13462TIP3   OH261876   3.741   6.173  16.200 -0.5481  0.3800  0.5043
13462TIP3    H161877   3.781   6.254  16.231 -0.7405  0.8479 -0.4199
13462TIP3    H261878   3.795   6.103  16.236 -1.4769  0.8116  2.9283
13463TIP3   OH261879   4.129   1.832   3.636  0.2386  0.0638  0.4769
13463TIP3    H161880   4.203   1.877   3.677 -0.1144  2.4331 -1.2788
13463TIP3    H261881   4.126   1.867   3.547 -1.6068 -1.7015 -0.2285
13464TIP3   OH261882   1.700   0.328  11.338 -0.0373  0.3375 -0.0184
13464TIP3    H161883   1.794   0.322  11.355 -0.2862  1.2192  1.9220
13464TIP3    H261884   1.673   0.238  11.322  0.7927 -0.2367  1.5566
13465TIP3   OH261885   6.269   6.709   1.205 -0.5461 -0.1177 -0.1882
13465TIP3    H161886   6.281   6.787   1.259 -1.7804 -1.0323  1.4966
13465TIP3    H261887   6.194   6.730   1.149 -0.5492  0.0999 -0.1042
13466TIP3   OH261888   6.320   4.108   3.232 -0.1501 -0.1358  0.0335
13466TIP3    H161889   6.313   4.195   3.272 -2.9496 -1.0090  1.7318
13466TIP3    H261890   6.305   4.123   3.139 -1.7063  1.1459  0.4456
13467TIP3   OH261891   4.138   4.807  15.054 -0.1133  0.0632  0.0307
13467TIP3    H161892   4.186   4.729  15.026 -2.0498 -1.6405  1.1366
13467TIP3    H261893   4.071   4.820  14.988 -0.0829  0.5404  0.0869
13468TIP3   OH261894   0.676   6.485   5.635 -0.0504 -0.1632 -0.7653
13468TIP3    H161895   0.639   6.433   5.564  1.6412 -0.9368 -1.1261
13468TIP3    H261896   0.617   6.560   5.644 -2.5429 -2.0471 -0.2918
13469TIP3   OH261897   2.645   2.116  15.039  0.0177  0.6775  0.2381
13469TIP3    H161898   2.611   2.031  15.010 -0.4183  1.1769 -0.7706
13469TIP3    H261899   2.647   2.169  14.960 -0.9618  2.0146  1.0683
13470TIP3   OH261900   5.931   1.490   6.221 -0.5901  0.0188  0.9264
13470TIP3    H161901   5.957   1.530   6.303 -0.7004  0.9627  0.5146
13470TIP3    H261902   5.891   1.561   6.171 -2.4775 -1.0030  0.8842
13471TIP3   OH261903   2.597   5.425  12.179  0.2438 -0.5705 -0.1796
13471TIP3    H161904   2.519   5.392  12.223 -0.4774  1.0048 -0.2163
13471TIP3    H261905   2.634   5.489  12.240  0.6831 -0.2471 -0.7716
13472TIP3   OH261906   2.476   4.143  16.709 -0.1497 -0.3207  0.3999
13472TIP3    H161907   2.548   4.186  16.756  0.1031 -1.2208  0.8572
13472TIP3    H261908   2.427   4.215  16.670  1.0604  0.3007 -0.0122
13473TIP3   OH261909   4.160   4.323  16.446 -0.3655  0.3060  0.1056
13473TIP3    H161910   4.136   4.413  16.425 -0.0418  0.3202 -0.2322
13473TIP3    H261911   4.251   4.316  16.417  0.4073  0.5769  2.3004
13474TIP3   OH261912   0.061   1.344   1.452 -0.8190  0.6792 -0.2703
13474TIP3    H161913   0.110   1.262   1.454  0.1932  1.2725  0.9449
13474TIP3    H261914   0.083   1.387   1.535 -0.3386  2.7254 -1.3966
13475TIP3   OH261915   3.870   3.163  12.065 -0.0492  0.7737 -0.1070
13475TIP3    H161916   3.949   3.194  12.111  1.3891 -1.9124 -0.5607
13475TIP3    H261917   3.808   3.142  12.134  0.8732 -0.1337  0.4671
13476TIP3   OH261918   2.702   4.928   4.356  0.4015 -0.0450  0.3760
13476TIP3    H161919   2.757   4.991   4.403  1.5936 -0.6186 -0.2065
13476TIP3    H261920   2.713   4.846   4.404 -0.3029 -0.0725  0.5035
13477TIP3   OH261921   5.965   6.800  11.377  0.4509 -0.4059 -0.0628
13477TIP3    H161922   5.947   6.854  11.454 -0.1286  0.5639 -0.8566
13477TIP3    H261923   5.910   6.838  11.308  0.1313 -1.9439 -0.6801
13478TIP3   OH261924   6.416   4.633  16.697  0.1748  0.0881 -0.2971
13478TIP3    H161925   6.438   4.704  16.758 -0.0553 -0.8160  0.8922
13478TIP3    H261926   6.463   4.557  16.732  1.7001 -0.0506 -2.4278
13479TIP3   OH261927   3.659   3.816   4.488 -0.4823  0.5629  0.1381
13479TIP3    H161928   3.579   3.867   4.503 -0.3882  0.9172 -0.5200
13479TIP3    H261929   3.694   3.850   4.405 -0.4162 -0.5721 -0.3187
13480TIP3   OH261930   2.966   6.524  11.183  0.0309 -0.0436 -0.6056
13480TIP3    H161931   2.964   6.604  11.235  1.1778  0.1683 -0.8673
13480TIP3    H261932   2.923   6.547  11.101 -0.4334  0.0496 -0.3368
13481TIP3   OH261933   3.398   0.055  14.313  0.0417  0.2723 -0.8255
13481TIP3    H161934   3.441  -0.023  14.278  1.6827  0.3538  0.8158
13481TIP3    H261935   3.463   0.125  14.303 -1.4396  1.5172 -2.3672
13482TIP3   OH261936   1.407   6.768   2.113 -0.2794  0.1095 -0.0535
13482TIP3    H161937   1.499   6.785   2.093 -0.4328  1.8570  0.5142
13482TIP3    H261938   1.359   6.817   2.045 -0.8337 -2.1667 -1.3882
13483TIP3   OH261939   6.755   1.332   4.879 -0.0717  0.4343 -0.1972
13483TIP3    H161940   6.784   1.398   4.941 -0.1519  1.5204 -1.2818
13483TIP3    H261941   6.660   1.328   4.890  0.0869 -0.6747  0.9774
13484TIP3   OH261942   5.983   1.109  13.476  0.3968 -0.4559  0.4173
13484TIP3    H161943   6.063   1.085  13.430 -0.4841 -0.7699 -1.0293
13484TIP3    H261944   5.933   1.027  13.482 -2.1581  0.5205 -3.5897
13485TIP3   OH261945   6.177   2.959  15.469  0.0962 -0.8120  0.2131
13485TIP3    H161946   6.257   3.006  15.493  0.8646 -1.0359 -1.7599
13485TIP3    H261947   6.106   3.014  15.503  1.0129  1.0332 -0.7108
13486TIP3   OH261948   0.905   3.215  17.216 -0.5033 -0.0297 -0.1848
13486TIP3    H161949   0.929   3.297  17.259  0.2574 -0.4563  0.2375
13486TIP3    H261950   0.887   3.155  17.289 -1.5630 -0.1086 -0.4884
13487TIP3   OH261951   0.662   3.701   1.385 -0.0688 -0.9154 -0.6409
13487TIP3    H161952   0.651   3.608   1.407 -1.1804 -0.7212 -0.2889
13487TIP3    H261953   0.575   3.728   1.356  0.3609 -0.0911 -1.1890
13488TIP3   OH261954   6.279   1.434  12.558  0.4159  0.4287  0.1901
13488TIP3    H161955   6.327   1.469  12.634  0.2995  2.0507 -0.4416
13488TIP3    H261956   6.337   1.452  12.484  1.1991 -2.4714 -0.0056
13489TIP3   OH261957   5.833   0.877  12.039  0.1394 -0.2188 -0.1250
13489TIP3    H161958   5.739   0.869  12.057 -0.3482  0.7155 -1.9968
13489TIP3    H261959   5.844   0.840  11.952  1.5685 -0.5428  0.1701
13490TIP3   OH261960   6.383   1.586  15.472  0.2425 -0.5463 -0.4455
13490TIP3    H161961   6.298   1.547  15.451  0.2573  0.1107 -1.8715
13490TIP3    H261962   6.379   1.603  15.566 -1.9854  1.1939 -0.7706
13491TIP3   OH261963   0.464   0.168   2.586 -0.0330 -0.2641  0.4368
13491TIP3    H161964   0.442   0.150   2.494  0.1632 -1.0206  0.5358
13491TIP3    H261965   0.557   0.149   2.593 -0.0168 -0.0731  0.7619
13492TIP3   OH261966   6.176   4.158  13.003  0.3527  0.4244 -0.2172
13492TIP3    H161967   6.152   4.231  12.946 -0.2018  1.4109  1.2128
13492TIP3    H261968   6.121   4.085  12.974  0.3916  0.7767 -1.1980
13493TIP3   OH261969   0.200   5.392   2.673  0.1638 -0.1620  0.1898
13493TIP3    H161970   0.128   5.448   2.645  0.2565 -1.0211 -1.9094
13493TIP3    H261971   0.187   5.310   2.626  1.6991 -0.8589  0.9076
13494TIP3   OH261972   5.742   5.171  11.050  0.2919 -0.5088  0.2223
13494TIP3    H161973   5.741   5.085  11.091  1.3699 -0.8116 -0.3623
13494TIP3    H261974   5.822   5.213  11.083  0.4973 -0.2678 -0.5500
13495TIP3   OH261975   1.294   3.346  16.973 -0.0013  0.0056  0.5667
13495TIP3    H161976   1.202   3.366  16.957 -0.5536 -1.4637  1.7400
13495TIP3    H261977   1.328   3.424  17.018 -0.6359  0.5682  0.0873
13496TIP3   OH261978   0.328   6.539  14.672 -0.0848 -0.2168 -0.5400
13496TIP3    H161979   0.329   6.455  14.718 -0.1479  0.4248  0.6834
13496TIP3    H261980   0.356   6.603  14.738  3.0078  0.3760 -2.2317
13497TIP3   OH261981   0.183   6.468  13.626  0.3249 -0.3689 -0.5056
13497TIP3    H161982   0.093   6.436  13.625 -0.0682  0.6963 -1.2938
13497TIP3    H261983   0.182   6.546  13.571  2.0494 -1.1539 -1.7374
13498TIP3   OH261984   4.288   5.796   0.512  0.3341  0.2960 -0.2663
13498TIP3    H161985   4.270   5.791   0.606 -1.5133  0.3059 -0.5782
13498TIP3    H261986   4.301   5.705   0.485  0.7061  0.2783 -0.0282
13499TIP3   OH261987   5.263   4.341   4.153 -0.0285  0.0214 -0.0134
13499TIP3    H161988   5.257   4.327   4.059 -0.3556 -2.3863  0.2902
13499TIP3    H261989   5.319   4.417   4.164 -0.6927  0.8751 -2.1568
13500TIP3   OH261990   4.791   5.438  15.379 -0.7295 -0.1733 -0.3383
13500TIP3    H161991   4.712   5.396  15.345 -1.1629  0.0294  0.4060
13500TIP3    H261992   4.762   5.526  15.403 -0.2167 -0.0151 -0.3045
13501TIP3   OH261993   4.316   3.157  15.599  0.0140  0.1680  0.2990
13501TIP3    H161994   4.357   3.240  15.622 -0.6813  0.6623 -0.1968
13501TIP3    H261995   4.243   3.181  15.542 -0.9094 -0.6832  1.0702
13502TIP3   OH261996   2.968   5.976   0.569 -0.1468 -0.2522 -0.4145
13502TIP3    H161997   2.979   5.988   0.663 -0.4296 -1.9762 -0.1360
13502TIP3    H261998   2.921   5.893   0.560  0.9080 -0.7165 -2.1135
13503TIP3   OH261999   0.442   6.011  11.662 -0.5499  0.0437  0.0876
13503TIP3    H162000   0.367   6.057  11.626 -0.5904 -1.5262 -2.0350
13503TIP3    H262001   0.405   5.958  11.733 -0.8654  1.4999  1.0638
13504TIP3   OH262002   4.141   1.551   0.276  0.1751  0.5103 -0.3246
13504TIP3    H162003   4.168   1.486   0.212 -0.5412 -0.6890  0.5351
13504TIP3    H262004   4.057   1.584   0.244  0.1518  0.4120 -0.3658
13505TIP3   OH262005   2.483   6.452  12.878 -0.0887  0.3561  0.1594
13505TIP3    H162006   2.421   6.397  12.926  0.4788 -0.7174 -0.3159
13505TIP3    H262007   2.444   6.464  12.792 -0.0218  0.3684  0.1308
13506TIP3   OH262008   3.957   4.551  16.346  0.0085 -0.0586 -0.1475
13506TIP3    H162009   3.907   4.523  16.269 -0.6539 -0.9821  0.5915
13506TIP3    H262010   3.895   4.544  16.419  0.7137  0.5040  0.5241
13507TIP3   OH262011   6.668   3.295  11.887 -0.0570  0.0233  0.0253
13507TIP3    H162012   6.660   3.347  11.968  0.3013 -1.3962  1.0030
13507TIP3    H262013   6.744   3.239  11.902 -0.5087 -0.8755 -0.9471
13508TIP3   OH262014   2.011   2.328  16.751 -0.3154 -0.7737  0.3716
13508TIP3    H162015   2.102   2.300  16.745 -0.4664 -1.6785  1.7701
13508TIP3    H262016   1.986   2.348  16.661  0.8848 -1.7530 -0.2069
13509TIP3   OH262017   5.538   1.595  14.022 -0.2356 -0.2751 -0.2832
13509TIP3    H162018   5.495   1.666  14.071  0.8694  0.6245 -0.5647
13509TIP3    H262019   5.574   1.638  13.945 -0.7887 -1.4341 -1.2081
13510TIP3   OH262020   5.405   3.237   5.967  0.2171 -0.4019 -0.5194
13510TIP3    H162021   5.440   3.320   5.937  1.8833 -0.4112  1.2000
13510TIP3    H262022   5.481   3.189   6.000 -1.0585 -1.4507  1.0954
13511TIP3   OH262023   5.782   5.517  12.110  0.2325 -0.3079  0.4393
13511TIP3    H162024   5.868   5.516  12.153  1.2571  1.0922 -1.4181
13511TIP3    H262025   5.734   5.588  12.154  1.3596  1.2825 -0.7501
13512TIP3   OH262026   5.637   4.580   0.943 -0.1403 -0.0106  0.5421
13512TIP3    H162027   5.555   4.549   0.905 -0.1374 -0.5043  0.9187
13512TIP3    H262028   5.678   4.632   0.874  0.6427 -2.2240 -0.7940
13513TIP3   OH262029   6.369   0.811  16.474 -0.0612 -0.1324  0.2715
13513TIP3    H162030   6.449   0.807  16.423 -0.0785 -0.7042  0.2807
13513TIP3    H262031   6.391   0.862  16.551  0.5465 -1.0568  0.7206
13514TIP3   OH262032   0.233   1.370   5.893  0.0110 -0.1113  0.1523
13514TIP3    H162033   0.272   1.408   5.814 -0.6687 -2.0432 -1.2079
13514TIP3    H262034   0.249   1.434   5.961 -1.6317  2.9210 -2.0565
13515TIP3   OH262035   0.663   0.835   5.442  0.9625  0.4252 -0.1300
13515TIP3    H162036   0.664   0.816   5.536 -0.0564 -1.6450 -0.4716
13515TIP3    H262037   0.743   0.885   5.427  1.2187  0.6967  1.8101
13516TIP3   OH262038   6.410   5.160   3.623 -0.2575 -0.2078  0.2243
13516TIP3    H162039   6.353   5.087   3.646  0.8444 -1.7641 -1.6913
13516TIP3    H262040   6.387   5.181   3.533 -0.4382  1.7767  0.6792
13517TIP3   OH262041   1.065   6.136   5.056 -0.0862 -0.3439 -0.2612
13517TIP3    H162042   1.140   6.077   5.062 -0.4139 -0.7208  0.1860
13517TIP3    H262043   0.994   6.089   5.099 -0.0980  0.7727  1.0097
13518TIP3   OH262044   0.486   5.028  14.680 -0.6816 -0.5051  0.0934
13518TIP3    H162045   0.482   5.017  14.775 -2.0399 -1.0572  0.0075
13518TIP3    H262046   0.406   5.077  14.658 -0.3927 -0.3953 -0.7636
13519TIP3   OH262047   5.706   5.273  14.429 -0.2117 -0.3028  0.1406
13519TIP3    H162048   5.734   5.264  14.520  0.2927 -2.8140 -0.1908
13519TIP3    H262049   5.611   5.283  14.434  0.0300  2.2239  1.0005
13520TIP3   OH262050   5.885   3.425  12.277 -0.2151 -0.5450  0.4479
13520TIP3    H162051   5.940   3.347  12.268 -0.5013 -0.5970 -1.0561
13520TIP3    H262052   5.796   3.392  12.282 -0.2653 -0.3552  0.9038
13521TIP3   OH262053   6.237   6.530  12.731 -0.0161 -0.3420  0.0444
13521TIP3    H162054   6.240   6.623  12.750  0.4281  0.0227 -1.6380
13521TIP3    H262055   6.148   6.515  12.700 -0.8254 -0.9870  2.4428
13522TIP3   OH262056   4.141   6.169  11.114  1.2518  0.0875  0.1617
13522TIP3    H162057   4.214   6.194  11.057  2.2044 -0.2245  1.2115
13522TIP3    H262058   4.167   6.085  11.151 -1.2778 -1.9518 -2.2346
13523TIP3   OH262059   2.912   1.048  10.663 -0.0186 -0.5431  0.2769
13523TIP3    H162060   2.889   1.133  10.626  0.1064 -0.5138  0.2662
13523TIP3    H262061   2.873   1.048  10.751  0.8052 -0.0887  0.6525
13524TIP3   OH262062   3.663   2.669   3.759 -0.6762 -0.3172  0.4793
13524TIP3    H162063   3.684   2.593   3.813  1.3425  0.7777  1.3663
13524TIP3    H262064   3.634   2.735   3.822 -1.9901 -0.2008 -0.2304
13525TIP3   OH262065   2.153   6.277  12.864  0.1972  0.3355  0.2981
13525TIP3    H162066   2.077   6.300  12.811 -0.1387 -1.0009  0.1482
13525TIP3    H262067   2.218   6.247  12.800  0.8846  1.4903  0.4214
13526TIP3   OH262068   5.036   0.807   5.926 -0.0677 -0.0987 -0.0156
13526TIP3    H162069   4.957   0.816   5.980  0.3268  1.2160  0.3929
13526TIP3    H262070   5.106   0.792   5.990  0.3624  1.1942 -0.1595
13527TIP3   OH262071   3.272   4.311  10.452  0.0880  0.3739 -0.3536
13527TIP3    H162072   3.238   4.228  10.484  0.7849  1.0741  2.4417
13527TIP3    H262073   3.208   4.376  10.479  0.9126  1.0481  0.0393
13528TIP3   OH262074   2.368   0.301   0.805  0.7938  0.1362  0.3540
13528TIP3    H162075   2.296   0.330   0.750  1.7144 -0.1432 -1.0614
13528TIP3    H262076   2.330   0.291   0.892 -0.3731  2.0140  0.0971
13529TIP3   OH262077   5.256   2.249  15.675 -0.0057 -0.4776 -0.4909
13529TIP3    H162078   5.349   2.260  15.694  0.0648 -0.7504 -0.6698
13529TIP3    H262079   5.212   2.269  15.757  0.1878  0.0124 -0.5031
13530TIP3   OH262080   1.700   0.309  12.837  0.5427  0.3213 -0.0488
13530TIP3    H162081   1.773   0.291  12.778  0.3740  1.1475 -0.5354
13530TIP3    H262082   1.662   0.223  12.855  1.3380 -0.0632 -0.1708
13531TIP3   OH262083   0.135   6.638   0.560  0.0429 -0.2419  0.8061
13531TIP3    H162084   0.200   6.626   0.490 -1.7682  0.9537 -1.2063
13531TIP3    H262085   0.175   6.700   0.620  0.5714  0.9467 -0.7106
13532TIP3   OH262086   1.650   5.956   3.097 -0.1905  0.4748 -0.0638
13532TIP3    H162087   1.614   6.026   3.043 -0.5981  0.0148 -0.3997
13532TIP3    H262088   1.580   5.935   3.159  0.1357  0.7433  0.3978
13533TIP3   OH262089   5.093   2.870   0.343  0.0482 -0.5991 -0.2175
13533TIP3    H162090   5.058   2.889   0.256  0.4801  2.4853  0.1531
13533TIP3    H262091   5.067   2.946   0.396  2.2814 -0.9694  1.5643
13534TIP3   OH262092   2.614   0.293  11.419 -0.0017 -0.4220  0.3627
13534TIP3    H162093   2.694   0.339  11.443 -1.0028  2.5640 -1.3778
13534TIP3    H262094   2.586   0.250  11.499  2.1805  0.2850  1.5886
13535TIP3   OH262095   1.480   5.957  16.699 -0.4467 -0.0069 -0.2235
13535TIP3    H162096   1.519   6.044  16.687 -2.1649  1.3493  2.8650
13535TIP3    H262097   1.519   5.924  16.780 -2.1571 -0.6857  0.3642
13536TIP3   OH262098   0.237   3.615  16.915  0.4073  0.9117 -0.3659
13536TIP3    H162099   0.265   3.538  16.965  0.1285  0.2879 -1.1524
13536TIP3    H262100   0.200   3.579  16.834  0.1715  1.8699 -0.6948
13537TIP3   OH262101   0.813   4.409   6.182  0.0714  0.5404  0.1114
13537TIP3    H162102   0.839   4.316   6.183 -3.4039 -0.5719 -0.6728
13537TIP3    H262103   0.894   4.455   6.160  1.9941 -2.2506  0.7307
13538TIP3   OH262104   2.175   1.411  13.010 -0.3048 -0.4402 -0.1885
13538TIP3    H162105   2.226   1.414  12.929 -0.0795  1.2183 -0.0166
13538TIP3    H262106   2.155   1.502  13.030 -1.7882 -0.9281  0.7441
13539TIP3   OH262107   5.454   3.849  13.259  0.7052  0.2063  0.0058
13539TIP3    H162108   5.430   3.904  13.185  0.9639 -0.0403 -0.2619
13539TIP3    H262109   5.407   3.766  13.244  1.0411  0.0301 -0.0667
13540TIP3   OH262110   0.135   1.685   3.954  0.2618  0.0958 -0.5687
13540TIP3    H162111   0.136   1.663   4.047 -0.5295 -1.6216 -0.9266
13540TIP3    H262112   0.098   1.608   3.912 -1.6473  1.7427 -2.0797
13541TIP3   OH262113   2.447   6.256  13.674  0.1507  0.4374  0.3396
13541TIP3    H162114   2.385   6.245  13.746 -2.7200 -0.3655 -2.0345
13541TIP3    H262115   2.490   6.170  13.665  1.6153  0.9616  1.9201
13542TIP3   OH262116   5.495   2.396  11.890 -0.2832  0.0795 -0.8938
13542TIP3    H162117   5.402   2.412  11.874  0.2131  2.2202 -2.0121
13542TIP3    H262118   5.501   2.302  11.908 -2.5809 -0.1992 -1.3392
13543TIP3   OH262119   5.200   5.733  13.532  0.4533  0.0251 -0.4009
13543TIP3    H162120   5.243   5.689  13.458  0.9419  0.6191 -0.4804
13543TIP3    H262121   5.266   5.795  13.564 -0.1509  0.5555 -0.1618
13544TIP3   OH262122   0.983   2.335  17.070  0.4210  0.0931 -0.3616
13544TIP3    H162123   1.069   2.375  17.081  0.2830  0.1053  0.7996
13544TIP3    H262124   0.979   2.311  16.978  0.9096  1.8209 -0.8617
13545TIP3   OH262125   2.122   6.006   1.297 -0.3633  0.4046  0.2874
13545TIP3    H162126   2.139   6.066   1.370  1.0452  1.1680 -0.6068
13545TIP3    H262127   2.186   6.032   1.231 -0.2314 -1.6179 -0.4216
13546TIP3   OH262128   1.317   5.070   2.825  0.0317 -0.0470  0.4118
13546TIP3    H162129   1.279   5.158   2.825  1.5928  0.6611  1.0807
13546TIP3    H262130   1.243   5.013   2.845 -1.0714  1.0659 -0.3004
13547TIP3   OH262131   2.238   4.267  12.071 -0.2256  0.8473  0.2330
13547TIP3    H162132   2.208   4.176  12.072 -1.3108  1.1948  0.8613
13547TIP3    H262133   2.334   4.261  12.071 -0.2851 -0.2886 -0.1398
13548TIP3   OH262134   4.153   2.753  16.390 -0.0173 -0.4670 -0.2245
13548TIP3    H162135   4.127   2.838  16.426  2.5301 -0.3281  1.5266
13548TIP3    H262136   4.164   2.769  16.297 -0.4353  0.9055 -0.0615
13549TIP3   OH262137   3.820   1.511   3.117  0.2196 -0.1477 -0.0007
13549TIP3    H162138   3.799   1.463   3.037  1.3769 -0.4595 -0.1348
13549TIP3    H262139   3.804   1.450   3.188 -0.8467  0.1413  0.0288
13550TIP3   OH262140   4.625   2.744   5.720 -0.0804 -0.0043 -0.0802
13550TIP3    H162141   4.631   2.838   5.738 -0.4535 -0.1178  0.6677
13550TIP3    H262142   4.548   2.736   5.664  0.0177  0.1479 -0.2382
13551TIP3   OH262143   4.270   1.456  11.044  0.1032  0.2696  0.4335
13551TIP3    H162144   4.288   1.373  11.000 -0.2160  0.0450  0.7190
13551TIP3    H262145   4.191   1.489  11.002  0.4649  0.6400  0.0330
13552TIP3   OH262146   3.932   4.729   5.809  0.7525  0.4947 -0.4955
13552TIP3    H162147   3.967   4.653   5.856  0.9400 -0.9632 -2.8454
13552TIP3    H262148   3.837   4.723   5.819  0.8429  1.4179  1.3855
13553TIP3   OH262149   1.566   5.964  16.009  0.4925 -0.1016  0.1043
13553TIP3    H162150   1.528   5.937  16.092 -0.9932  2.6708  0.4389
13553TIP3    H262151   1.520   5.912  15.943  1.0382 -1.6565  0.9107
13554TIP3   OH262152   4.929   0.110   3.813  0.4077 -0.0608  0.0510
13554TIP3    H162153   4.874   0.170   3.862  0.4869  0.3352 -0.3452
13554TIP3    H262154   4.869   0.065   3.753  0.6157  0.8839 -0.8868
13555TIP3   OH262155   1.230   5.290  15.249 -0.4354  0.0073 -0.3320
13555TIP3    H162156   1.150   5.341  15.246 -1.9570 -2.2850 -2.8777
13555TIP3    H262157   1.241   5.256  15.160  3.3764  0.1715 -0.0804
13556TIP3   OH262158   6.626   4.520   2.627 -0.1441  0.2222  0.6197
13556TIP3    H162159   6.547   4.536   2.679  0.1244 -0.0358  1.1129
13556TIP3    H262160   6.670   4.448   2.672  1.2188  1.4216  1.3159
13557TIP3   OH262161   2.809   0.120   3.829 -0.9155 -0.0996  0.4769
13557TIP3    H162162   2.795   0.168   3.747  1.9639 -0.5491 -0.4061
13557TIP3    H262163   2.740   0.054   3.831 -1.6501  0.5754 -1.0485
13558TIP3   OH262164   1.306   2.988  11.095 -0.0078  0.2362 -0.4226
13558TIP3    H162165   1.274   3.044  11.024 -0.8011 -0.0867 -0.3285
13558TIP3    H262166   1.320   2.903  11.053  2.3057  0.7463 -0.8341
13559TIP3   OH262167   4.362   0.133   5.315  0.2076 -0.5132  0.4817
13559TIP3    H162168   4.328   0.116   5.402 -0.3608 -1.5666  0.0648
13559TIP3    H262169   4.289   0.171   5.267  0.3475 -0.4790  0.2938
13560TIP3   OH262170   5.692   1.939  13.386 -0.0963  0.2681  0.3957
13560TIP3    H162171   5.754   1.867  13.377 -0.3453 -0.0554  1.2340
13560TIP3    H262172   5.662   1.935  13.477 -0.3730  1.2161  0.3612
13561TIP3   OH262173   2.347   5.327  11.255  0.5114 -0.0010 -0.0662
13561TIP3    H162174   2.379   5.352  11.168  0.9175  1.9921  0.5978
13561TIP3    H262175   2.253   5.347  11.253  0.7162  1.0599  0.2585
13562TIP3   OH262176   0.450   2.391   1.097  0.0061 -0.1811  0.2161
13562TIP3    H162177   0.510   2.319   1.114 -1.1858 -1.1161  0.5461
13562TIP3    H262178   0.396   2.361   1.024 -0.2757  0.5127  0.1296
13563TIP3   OH262179   3.317   3.158  15.282 -0.2191  0.6971  0.1725
13563TIP3    H162180   3.273   3.167  15.198  2.7987 -1.1555 -1.7824
13563TIP3    H262181   3.261   3.100  15.333 -0.8274 -0.3209 -1.6050
13564TIP3   OH262182   3.299   5.751   3.406 -0.5332 -0.5708  0.0154
13564TIP3    H162183   3.238   5.738   3.334 -0.8451 -0.6000  0.2849
13564TIP3    H262184   3.344   5.667   3.415 -2.3420 -1.4584  1.5665
13565TIP3   OH262185   4.949   3.575   4.420  0.3020 -0.2502  0.6451
13565TIP3    H162186   4.924   3.522   4.345  0.4198 -0.0320  0.4511
13565TIP3    H262187   4.977   3.511   4.486  1.7367 -0.3906 -0.0515
13566TIP3   OH262188   2.835   4.638  12.425 -0.2175  0.1408 -0.1248
13566TIP3    H162189   2.796   4.551  12.433  0.4727 -0.3816 -1.9793
13566TIP3    H262190   2.786   4.692  12.486 -0.8094 -1.4945  0.9047
13567TIP3   OH262191   5.248   5.817  11.803 -0.1836  0.3181 -0.3572
13567TIP3    H162192   5.157   5.812  11.771 -1.0406  1.7301  1.6471
13567TIP3    H262193   5.263   5.732  11.843 -0.7550  0.1946 -0.3847
13568TIP3   OH262194   4.158   1.121  11.112 -0.3508 -0.5321  0.1644
13568TIP3    H162195   4.063   1.132  11.099 -0.2678 -0.5332 -0.4858
13568TIP3    H262196   4.179   1.184  11.181 -0.6954  0.0644 -0.2533
13569TIP3   OH262197   3.709   0.061  13.804  0.0965  0.4287  0.3021
13569TIP3    H162198   3.743   0.059  13.893 -0.1358 -0.1356  0.3807
13569TIP3    H262199   3.638   0.126  13.806  0.1086  0.4343  0.5210
13570TIP3   OH262200   6.391   4.185  12.520  0.5891 -0.4125  0.0023
13570TIP3    H162201   6.382   4.158  12.611  2.5097  0.3127  0.4623
13570TIP3    H262202   6.457   4.125  12.484 -1.1928 -1.6496 -1.3703
13571TIP3   OH262203   2.961   3.156   4.996 -0.3848  0.6998  0.0862
13571TIP3    H162204   2.898   3.181   4.928  0.1184 -0.2317 -0.7481
13571TIP3    H262205   3.021   3.230   5.002 -0.8393  1.0783  0.0144
13572TIP3   OH262206   2.845   0.832  10.466  0.9909  0.6883 -0.9366
13572TIP3    H162207   2.759   0.832  10.425  0.2123  0.5136  0.6144
13572TIP3    H262208   2.859   0.923  10.492  0.1233  0.3301  1.0008
13573TIP3   OH262209   1.239   1.475   1.304 -0.2130 -0.3470  0.1978
13573TIP3    H162210   1.262   1.528   1.227  0.8871  0.6517  1.1719
13573TIP3    H262211   1.318   1.476   1.357 -0.7900 -1.4688  1.1108
13574TIP3   OH262212   5.636   1.466   1.578 -0.2715 -0.2329 -1.1458
13574TIP3    H162213   5.719   1.491   1.619 -1.7183  0.4210  1.5859
13574TIP3    H262214   5.629   1.371   1.593  0.4813 -0.5204 -2.4502
13575TIP3   OH262215   6.294   3.219  13.304  0.1834  0.1165 -0.3802
13575TIP3    H162216   6.280   3.160  13.231 -2.1789 -0.6344  0.5805
13575TIP3    H262217   6.313   3.161  13.379 -0.1351  0.6886  0.1541
13576TIP3   OH262218   6.209   4.833  15.090 -0.2635 -0.0352  0.3188
13576TIP3    H162219   6.167   4.917  15.107  1.5015  1.0141 -0.2578
13576TIP3    H262220   6.243   4.840  15.001  2.0993 -0.3455  1.1259
13577TIP3   OH262221   6.008   1.810   6.198 -0.3579 -0.1032 -0.1263
13577TIP3    H162222   6.065   1.806   6.274 -0.1372  1.8597 -0.1359
13577TIP3    H262223   6.060   1.775   6.126  1.1978  2.2822 -0.2890
13578TIP3   OH262224   2.927   2.288   2.103 -0.2990  0.0823  0.2119
13578TIP3    H162225   2.896   2.333   2.025 -1.6190  0.8485  1.1300
13578TIP3    H262226   3.013   2.326   2.120 -0.0009 -0.1018 -0.8632
13579TIP3   OH262227   4.134   4.398  14.419 -0.3696  0.0157 -0.4295
13579TIP3    H162228   4.070   4.392  14.348  0.2927  0.7361 -1.1003
13579TIP3    H262229   4.084   4.434  14.493 -1.2784 -1.5658 -0.2326
13580TIP3   OH262230   5.133   1.395  14.709 -0.1846  1.0116  0.1780
13580TIP3    H162231   5.171   1.419  14.794  1.1429 -1.3324  0.3417
13580TIP3    H262232   5.038   1.394  14.724  0.0227  0.8253  1.5848
13581TIP3   OH262233   0.495   5.576  17.199  0.2700 -0.1294  0.5345
13581TIP3    H162234   0.516   5.526  17.120  0.7006 -0.5731  0.9231
13581TIP3    H262235   0.488   5.510  17.268  0.8754  0.3431  1.0619
13582TIP3   OH262236   1.494   6.087   2.019 -0.0593 -0.1712 -0.6490
13582TIP3    H162237   1.556   6.130   2.078 -1.5759  1.8406 -0.4195
13582TIP3    H262238   1.434   6.040   2.077 -1.3660  1.5566 -0.5131
13583TIP3   OH262239   2.064   0.384   3.486 -0.2929  0.4274  0.0543
13583TIP3    H162240   2.064   0.398   3.580 -0.6936  1.0954 -0.0346
13583TIP3    H262241   2.008   0.454   3.451 -1.1541 -0.5417 -0.5757
13584TIP3   OH262242   4.374   2.502   4.808  0.3838  0.1692 -0.0978
13584TIP3    H162243   4.459   2.471   4.841  0.9491  0.1531 -1.4980
13584TIP3    H262244   4.352   2.441   4.738  0.6631  1.8618 -1.7411
13585TIP3   OH262245   2.089   0.772  15.257 -0.4600 -0.3800  0.1135
13585TIP3    H162246   2.087   0.846  15.318  3.4446  0.4602 -0.5193
13585TIP3    H262247   2.060   0.809  15.174 -1.4669 -0.3853  0.4503
13586TIP3   OH262248   0.259   1.606  13.824  0.5580  0.3262 -0.5709
13586TIP3    H162249   0.253   1.644  13.912  0.2562  1.1526 -0.9350
13586TIP3    H262250   0.353   1.595  13.810  0.5853 -0.3380  0.0676
13587TIP3   OH262251   3.313   2.168   2.657  0.4503  0.3241 -0.1358
13587TIP3    H162252   3.386   2.229   2.667 -0.2784  1.1437  0.2506
13587TIP3    H262253   3.295   2.138   2.746 -0.0216  0.5192 -0.1665
13588TIP3   OH262254   2.092   3.279  11.891 -0.1922 -0.2540  0.5234
13588TIP3    H162255   2.037   3.239  11.959 -3.2425 -1.2458 -2.2640
13588TIP3    H262256   2.060   3.369  11.885  0.5243  0.0287  0.7866
13589TIP3   OH262257   5.374   1.150   0.615 -0.0761  0.1124 -0.1196
13589TIP3    H162258   5.367   1.245   0.620 -0.2091  0.0868  0.2448
13589TIP3    H262259   5.394   1.132   0.524 -3.5719  0.2856 -1.0707
13590TIP3   OH262260   1.994   6.732   0.949  0.2971 -0.0246  0.2272
13590TIP3    H162261   2.056   6.758   0.881 -2.0411  0.4104 -1.9003
13590TIP3    H262262   1.991   6.637   0.943 -0.9016  0.0515 -1.3939
13591TIP3   OH262263   1.237   1.865   5.267 -0.0326  0.3679  0.3998
13591TIP3    H162264   1.219   1.827   5.181  1.7555 -1.2194  0.6550
13591TIP3    H262265   1.175   1.822   5.326 -2.7474  2.9830 -0.2768
13592TIP3   OH262266   2.427   5.308   3.070 -0.0389  0.3982 -0.2139
13592TIP3    H162267   2.460   5.366   3.001  2.0417 -0.1187  0.2901
13592TIP3    H262268   2.479   5.229   3.063 -0.6687 -0.1767  1.1423
13593TIP3   OH262269   5.826   4.362   5.014  0.2268  0.1372 -0.0412
13593TIP3    H162270   5.852   4.431   4.953 -0.7773  0.2369 -0.3774
13593TIP3    H262271   5.895   4.361   5.080  3.1686 -2.1442 -2.8126
13594TIP3   OH262272   3.139   4.737   0.364  0.0837  0.5415 -0.5278
13594TIP3    H162273   3.096   4.766   0.444  0.5079  0.7492 -0.3714
13594TIP3    H262274   3.088   4.776   0.293 -0.4799  0.1017 -0.3696
13595TIP3   OH262275   3.385   2.659  15.462  0.1091 -0.5036  0.0285
13595TIP3    H162276   3.382   2.585  15.402  0.4293  0.5250 -1.3301
13595TIP3    H262277   3.473   2.655  15.500 -0.5928 -1.9981  1.5920
13596TIP3   OH262278   5.884   4.586  11.909  0.8878 -0.6677  0.5058
13596TIP3    H162279   5.901   4.518  11.975 -0.9247 -0.9807  0.7199
13596TIP3    H262280   5.798   4.621  11.934  0.7004  0.0194 -1.0280
13597TIP3   OH262281   0.583   1.247  12.805  0.2143 -1.0481 -0.1902
13597TIP3    H162282   0.659   1.199  12.837  1.5794 -0.1383 -1.9403
13597TIP3    H262283   0.601   1.339  12.828 -0.5913 -0.8785 -0.2007
13598TIP3   OH262284   0.922   1.125   1.205  0.0521 -0.2040 -0.0926
13598TIP3    H162285   0.931   1.220   1.203  1.2806 -0.2993 -1.1585
13598TIP3    H262286   0.852   1.106   1.143  0.0562 -0.0048 -0.1579
13599TIP3   OH262287   0.252   1.320   3.840 -0.0334  0.2841 -0.1094
13599TIP3    H162288   0.303   1.288   3.765  0.3161  1.0109 -0.1936
13599TIP3    H262289   0.279   1.411   3.850 -2.9134  1.4121 -1.5226
13600TIP3   OH262290   0.880   4.054  12.113  0.3728  0.6201 -0.4487
13600TIP3    H162291   0.858   4.001  12.037 -1.1249  1.7903 -0.8675
13600TIP3    H262292   0.838   4.138  12.097 -0.7291  0.6361  2.0593
13601TIP3   OH262293   6.394   5.579   0.524 -0.0478  0.5337 -0.3177
13601TIP3    H162294   6.351   5.644   0.467  2.5364  1.8272 -0.9104
13601TIP3    H262295   6.453   5.531   0.465 -1.2808 -1.8940  0.2810
13602TIP3   OH262296   0.546   3.698   4.690  0.0484  0.4183  0.2126
13602TIP3    H162297   0.537   3.793   4.680 -0.1670  0.3179 -0.6183
13602TIP3    H262298   0.507   3.679   4.776  0.9029  1.1821  0.7968
13603TIP3   OH262299   5.376   2.170  16.901 -0.2738  0.1721  0.5925
13603TIP3    H162300   5.357   2.179  16.808 -0.4210 -0.3399  0.5702
13603TIP3    H262301   5.435   2.096  16.907  2.5795  2.2617  0.5699
13604TIP3   OH262302   5.736   0.814   5.856 -0.1130  0.3189 -0.0555
13604TIP3    H162303   5.806   0.767   5.901  0.7316 -0.0464 -1.6753
13604TIP3    H262304   5.706   0.879   5.919  1.6839  0.4858  0.6715
13605TIP3   OH262305   5.898   0.048   3.120  0.4173  0.0344  0.3826
13605TIP3    H162306   5.840   0.124   3.127  2.8766  2.1551 -0.5121
13605TIP3    H262307   5.910   0.019   3.210 -1.0651  0.2983  0.6852
13606TIP3   OH262308   1.938   1.035  15.294 -0.0740  0.2745  0.1858
13606TIP3    H162309   1.884   1.086  15.235  1.0014 -0.1911 -1.2649
13606TIP3    H262310   2.015   1.090  15.310  0.4975 -0.3375 -0.3657
13607TIP3   OH262311   5.389   4.819   3.299  0.2888 -0.0475  0.2761
13607TIP3    H162312   5.329   4.804   3.226 -0.6779 -0.1483  1.0785
13607TIP3    H262313   5.373   4.909   3.326  1.3561  0.3206 -0.2565
13608TIP3   OH262314   6.445   2.134   2.404  0.0752 -0.5575 -0.1785
13608TIP3    H162315   6.362   2.087   2.402  1.3250 -2.8726 -1.8589
13608TIP3    H262316   6.495   2.098   2.331  1.8560  2.1637 -0.4660
13609TIP3   OH262317   4.528   1.215  12.315 -0.2301  0.4477 -0.0832
13609TIP3    H162318   4.576   1.221  12.397  1.4628 -1.1350 -0.8926
13609TIP3    H262319   4.577   1.272  12.255 -0.0156 -0.2953 -0.6213
13610TIP3   OH262320   4.471   3.885  16.966  0.1866 -0.0392 -0.1917
13610TIP3    H162321   4.494   3.867  17.057  3.0022 -0.8974 -0.9560
13610TIP3    H262322   4.556   3.894  16.922 -1.0999  0.8779 -2.6328
13611TIP3   OH262323   6.767   4.348   4.613  0.2218 -0.0786 -0.1839
13611TIP3    H162324   6.810   4.433   4.602  0.2784  0.6448  3.9534
13611TIP3    H262325   6.832   4.294   4.659 -0.6581 -1.5444 -0.6182
13612TIP3   OH262326   6.295   2.411  16.002 -0.5880 -0.6419  0.1785
13612TIP3    H162327   6.323   2.498  15.976  0.4131 -0.8672  0.4735
13612TIP3    H262328   6.239   2.425  16.079 -0.9371 -0.2215 -0.1497
13613TIP3   OH262329   4.615   5.971   5.194  0.0934 -0.0381 -0.2835
13613TIP3    H162330   4.694   5.925   5.165 -0.6925 -1.5465 -0.1283
13613TIP3    H262331   4.618   6.056   5.149  2.8456  0.8326  1.2944
13614TIP3   OH262332   6.059   0.582  11.352 -0.3900 -0.0402  0.1963
13614TIP3    H162333   5.995   0.538  11.295  0.2156 -0.2275 -0.3549
13614TIP3    H262334   6.121   0.514  11.376  2.5887  0.9731 -3.4529
13615TIP3   OH262335   2.674   6.026   4.267  0.1868  0.3043  0.6713
13615TIP3    H162336   2.616   5.956   4.297 -1.5926  0.6058 -1.7534
13615TIP3    H262337   2.725   6.050   4.344 -0.4527 -2.3656  2.0432
13616TIP3   OH262338   5.850   1.167  16.397 -0.3279  0.1083 -0.0885
13616TIP3    H162339   5.837   1.090  16.341 -1.0150 -0.6600  1.0821
13616TIP3    H262340   5.766   1.213  16.393  0.2778  1.1601 -1.2743
13617TIP3   OH262341   4.083   4.017   3.883  0.3322 -0.0163 -0.0420
13617TIP3    H162342   4.026   4.012   3.959  1.1648 -1.5599  0.5401
13617TIP3    H262343   4.084   4.109   3.858 -1.0200  0.2919  0.9836
13618TIP3   OH262344   5.131   1.268  16.356 -0.4590  0.2759 -0.2384
13618TIP3    H162345   5.044   1.229  16.346 -0.7696  0.9712 -0.2303
13618TIP3    H262346   5.115   1.361  16.368  0.2928  0.4185 -0.3086
13619TIP3   OH262347   1.754   2.214  14.581 -0.4898 -0.5005 -0.1768
13619TIP3    H162348   1.689   2.259  14.636  1.7015  1.0427  1.2975
13619TIP3    H262349   1.739   2.121  14.599 -1.7089 -0.1476  0.8130
13620TIP3   OH262350   3.088   4.998   4.993  0.1257 -0.2397  0.2455
13620TIP3    H162351   3.123   4.998   4.904  0.9213 -0.9642  0.5357
13620TIP3    H262352   3.165   4.990   5.049 -0.4617 -1.7147  0.9178
13621TIP3   OH262353   5.326   4.657   5.597  0.2363  0.1417  0.4202
13621TIP3    H162354   5.237   4.636   5.570  0.5268 -1.8836  0.8602
13621TIP3    H262355   5.373   4.574   5.593  1.6047  0.7545  2.0980
13622TIP3   OH262356   2.276   3.367  16.252 -0.2474 -0.4673 -0.3046
13622TIP3    H162357   2.191   3.411  16.249 -0.6833 -1.2550  0.2542
13622TIP3    H262358   2.324   3.403  16.178 -0.6949  0.7412 -0.0361
13623TIP3   OH262359   3.021   5.108   2.344 -0.0122  0.4264 -0.1742
13623TIP3    H162360   2.925   5.112   2.346 -0.1549 -1.3057 -1.3245
13623TIP3    H262361   3.048   5.190   2.304 -0.9868  1.0102  0.3205
13624TIP3   OH262362   1.708   6.629  13.169  0.2952  0.1562  0.0024
13624TIP3    H162363   1.650   6.603  13.097 -1.1504 -0.7547  1.4531
13624TIP3    H262364   1.752   6.708  13.136 -0.8267  0.1493 -1.6282
13625TIP3   OH262365   5.999   1.062   1.471 -0.0563 -0.2900  0.7232
13625TIP3    H162366   6.026   1.128   1.407 -0.5683 -0.2334  0.5535
13625TIP3    H262367   6.071   1.057   1.533 -0.3803  1.0822  1.2516
13626TIP3   OH262368   5.367   0.161  16.248  0.2285  0.1839 -0.5823
13626TIP3    H162369   5.306   0.088  16.252  0.5923 -0.2285 -1.8503
13626TIP3    H262370   5.323   0.226  16.192  0.3659  0.4651 -0.3638
13627TIP3   OH262371   0.413   4.435   4.514 -0.1363 -0.0774 -0.5217
13627TIP3    H162372   0.390   4.398   4.599 -2.7011  0.7552 -0.7676
13627TIP3    H262373   0.506   4.458   4.522 -0.2807 -0.1019  2.0277
13628TIP3   OH262374   4.343   1.087  14.204  0.2355 -0.2359 -0.8881
13628TIP3    H162375   4.377   1.005  14.241 -0.6793  0.1492  0.9687
13628TIP3    H262376   4.397   1.155  14.243 -1.5207  0.2658  0.8172
13629TIP3   OH262377   0.434   0.780  12.349 -0.4185  0.1618  0.4887
13629TIP3    H162378   0.345   0.752  12.326 -1.0745  1.7976  0.8948
13629TIP3    H262379   0.473   0.807  12.266  0.4802 -2.4705 -0.0291
13630TIP3   OH262380   1.711   5.400   3.744 -0.2135  0.4240  0.2785
13630TIP3    H162381   1.701   5.391   3.649 -0.5513  1.6528  0.1888
13630TIP3    H262382   1.633   5.358   3.781 -0.9782  1.5244 -0.0584
13631TIP3   OH262383   2.087   0.330   0.323 -0.4217 -0.2129 -0.4011
13631TIP3    H162384   2.119   0.405   0.272  0.8040 -0.8042 -0.5260
13631TIP3    H262385   2.024   0.287   0.265  0.5281 -0.5476 -1.2012
13632TIP3   OH262386   5.595   1.459  11.021 -0.5307  0.0695 -0.2449
13632TIP3    H162387   5.584   1.533  11.081 -1.3840  0.7057 -1.1711
13632TIP3    H262388   5.508   1.420  11.014 -0.2863 -0.4357 -0.5199
13633TIP3   OH262389   2.093   5.043   2.870 -0.4367  0.1154 -0.9062
13633TIP3    H162390   2.048   5.049   2.786 -1.7235 -0.2165 -0.2601
13633TIP3    H262391   2.089   5.131   2.905  1.3946  0.6116 -1.7987
13634TIP3   OH262392   5.120   2.907   2.471 -0.2635 -0.0086  0.4518
13634TIP3    H162393   5.120   2.835   2.534 -1.5156  0.7869  1.4277
13634TIP3    H262394   5.072   2.874   2.395  0.0046 -0.5035  0.4952
13635TIP3   OH262395   0.399   5.776  16.944  0.3832 -1.1941 -1.2054
13635TIP3    H162396   0.470   5.787  16.881  1.0987 -0.6863 -0.3227
13635TIP3    H262397   0.437   5.800  17.028 -1.4521  1.4109 -1.0151
13636TIP3   OH262398   3.438   1.739  11.790  0.0840  0.0860 -0.1718
13636TIP3    H162399   3.374   1.791  11.838  0.8686  1.7711 -0.8775
13636TIP3    H262400   3.467   1.672  11.852 -0.2395  1.1030  1.0944
13637TIP3   OH262401   0.290   3.532   4.243 -0.7512  0.1355 -0.3713
13637TIP3    H162402   0.350   3.586   4.192 -0.3069 -1.5664 -1.7725
13637TIP3    H262403   0.214   3.521   4.186 -0.3353 -1.6336 -0.6477
13638TIP3   OH262404   4.975   5.361   1.354 -0.8235 -0.0446 -0.2501
13638TIP3    H162405   5.034   5.292   1.322 -0.0166  0.8253 -0.6633
13638TIP3    H262406   5.016   5.392   1.435 -1.2337 -0.1041 -0.0162
13639TIP3   OH262407   5.181   4.942  15.232 -0.8152  0.6906 -0.7860
13639TIP3    H162408   5.108   4.912  15.179 -0.0230 -2.7201 -0.2238
13639TIP3    H262409   5.252   4.956  15.169 -0.6594 -0.6788 -0.9556
13640TIP3   OH262410   6.789   5.716  16.340 -0.6045 -0.7120 -0.1148
13640TIP3    H162411   6.779   5.671  16.257 -1.2134 -0.7648 -0.0205
13640TIP3    H262412   6.825   5.802  16.317 -2.2390 -0.1257 -0.6131
13641TIP3   OH262413   1.927   2.604   3.730  0.1074 -0.1141 -0.0816
13641TIP3    H162414   1.991   2.587   3.662 -0.5824  0.1026 -0.8064
13641TIP3    H262415   1.884   2.520   3.745  2.4242 -0.9738  2.4397
13642TIP3   OH262416   6.501   2.173   4.648  0.6974 -0.4460  0.0230
13642TIP3    H162417   6.548   2.111   4.591  0.6677 -0.1216 -0.3618
13642TIP3    H262418   6.525   2.259   4.613  0.8735 -0.2319  0.6571
13643TIP3   OH262419   0.763   2.073  11.801 -0.3775 -0.6126  0.2731
13643TIP3    H162420   0.756   2.141  11.868  0.3527  0.0818 -0.3417
13643TIP3    H262421   0.839   2.098  11.749 -0.4101 -1.6239 -0.2787
13644TIP3   OH262422   1.810   4.007   2.160 -0.3449  0.0156 -0.4069
13644TIP3    H162423   1.752   4.075   2.193 -0.9629 -0.7299  0.0664
13644TIP3    H262424   1.866   3.985   2.234 -0.4133 -0.2737 -0.4417
13645TIP3   OH262425   0.302   0.319  14.210 -0.0986 -0.7410 -0.2873
13645TIP3    H162426   0.251   0.388  14.253 -1.6005 -1.9369 -0.0332
13645TIP3    H262427   0.355   0.365  14.144 -0.2427  0.7502  0.5964
13646TIP3   OH262428   0.329   6.131  13.076 -0.0585  0.0741  0.2177
13646TIP3    H162429   0.329   6.171  12.989 -0.2234  1.2161  0.7289
13646TIP3    H262430   0.363   6.199  13.134 -2.5498  0.3323  1.4826
13647TIP3   OH262431   5.714   0.996  13.111 -0.5078  0.4501  0.2711
13647TIP3    H162432   5.722   0.961  13.022  1.8617  0.8869  0.2537
13647TIP3    H262433   5.721   0.920  13.168  2.8622  0.5365  0.1702
13648TIP3   OH262434   3.624   0.401  12.013 -0.2194  0.0904 -0.4035
13648TIP3    H162435   3.572   0.365  11.941  1.0810  1.0607 -1.9156
13648TIP3    H262436   3.624   0.495  11.997  1.3653  0.1836 -0.0364
13649TIP3   OH262437   2.523   3.776  15.981 -0.2657  0.2959 -0.4459
13649TIP3    H162438   2.511   3.686  15.949  0.5266 -0.5314  1.4650
13649TIP3    H262439   2.439   3.798  16.022 -0.4258  0.3945 -0.8240
13650TIP3   OH262440   4.419   6.257   5.278  0.0709  0.0649 -0.1054
13650TIP3    H162441   4.476   6.321   5.236  0.2707 -0.6632 -0.9614
13650TIP3    H262442   4.479   6.191   5.314 -0.1174  0.4747  0.9889
13651TIP3   OH262443   4.650   2.330   0.495  0.1264 -0.1544 -0.0442
13651TIP3    H162444   4.593   2.357   0.567  0.6032 -0.4752  0.4620
13651TIP3    H262445   4.630   2.391   0.424  1.3385  1.7169  1.1221
13652TIP3   OH262446   2.847   1.115  12.403 -0.1431  0.5979 -0.2541
13652TIP3    H162447   2.908   1.189  12.406 -0.7276  1.1124 -1.0016
13652TIP3    H262448   2.793   1.125  12.482  0.6646  0.1797  0.3757
13653TIP3   OH262449   5.216   4.266  14.275  0.2185  0.1501 -0.1418
13653TIP3    H162450   5.165   4.210  14.216 -0.5641  0.9274 -0.2099
13653TIP3    H262451   5.301   4.275  14.231  0.2714 -0.7553 -0.2579
13654TIP3   OH262452   0.195   5.610  14.155  0.2425  0.4153  0.0110
13654TIP3    H162453   0.251   5.662  14.212  0.1791 -0.8356  1.2512
13654TIP3    H262454   0.154   5.547  14.213  2.0523 -2.5607 -1.7139
13655TIP3   OH262455   4.479   1.529  12.375  0.9590  0.1701  0.0713
13655TIP3    H162456   4.562   1.573  12.356  0.0182  1.7610 -0.5081
13655TIP3    H262457   4.446   1.500  12.290  1.1329 -0.9289  0.3510
13656TIP3   OH262458   2.248   6.623   5.688 -0.9678  0.4364  0.7085
13656TIP3    H162459   2.192   6.698   5.708  0.2298  1.3913  0.5872
13656TIP3    H262460   2.327   6.637   5.741 -1.1488 -1.3107  1.5188
13657TIP3   OH262461   5.093   3.515   4.681 -0.9563  0.3372 -0.5934
13657TIP3    H162462   5.094   3.437   4.625 -0.0712 -1.8727  2.2144
13657TIP3    H262463   5.176   3.558   4.663 -0.0878 -1.0670 -0.1779
13658TIP3   OH262464   6.743   6.491   6.202 -0.2272  0.0004  0.5897
13658TIP3    H162465   6.825   6.442   6.215  0.1942  0.0305 -1.5289
13658TIP3    H262466   6.675   6.425   6.203  0.3825 -0.9001 -2.7498
13659TIP3   OH262467   3.792   4.190   0.370 -0.3687 -0.1230  0.6208
13659TIP3    H162468   3.737   4.173   0.294 -0.1030  1.9073 -0.0877
13659TIP3    H262469   3.865   4.241   0.335  0.1497  0.2080  2.1292
13660TIP3   OH262470   4.034   4.569   3.315 -0.2686 -0.0016  0.8427
13660TIP3    H162471   3.973   4.499   3.337 -1.3206  1.1085  1.6069
13660TIP3    H262472   4.119   4.536   3.343 -1.0496 -0.0982  3.3520
13661TIP3   OH262473   4.200   3.928  13.584  0.8448  0.0322  0.2425
13661TIP3    H162474   4.203   3.936  13.489  0.5346 -0.2768  0.2052
13661TIP3    H262475   4.169   4.014  13.614 -0.9626 -0.4868 -0.0590
13662TIP3   OH262476   6.418   5.692   2.208 -0.6108  0.1709  0.2646
13662TIP3    H162477   6.478   5.654   2.272 -0.5133 -2.2250 -1.1535
13662TIP3    H262478   6.467   5.765   2.170  1.1446 -1.2004 -0.2561
13663TIP3   OH262479   0.366   0.869   2.889 -0.1753  0.5542  0.0270
13663TIP3    H162480   0.383   0.940   2.827 -0.3153  0.1495 -0.4759
13663TIP3    H262481   0.361   0.790   2.836  0.3703  0.1013  0.6264
13664TIP3   OH262482   0.362   3.379  12.379  0.2516 -0.0552 -0.2357
13664TIP3    H162483   0.278   3.341  12.406  0.5454 -1.6670 -1.4572
13664TIP3    H262484   0.352   3.472  12.398 -0.8619 -0.5532  1.9684
13665TIP3   OH262485   6.602   4.046  14.526  0.1937  0.1829 -0.4122
13665TIP3    H162486   6.686   3.999  14.534  0.2955  0.5871  1.1267
13665TIP3    H262487   6.538   3.977  14.507  0.4333 -0.5402  1.2552
13666TIP3   OH262488   3.615   6.018  13.671  0.5779  0.0710 -0.5947
13666TIP3    H162489   3.639   6.028  13.579  0.9953  1.5117 -0.3535
13666TIP3    H262490   3.519   6.008  13.670  0.6038 -0.1302 -1.1917
13667TIP3   OH262491   1.951   2.636   0.112 -0.0393  0.0567 -0.2190
13667TIP3    H162492   1.955   2.560   0.054 -1.5352 -0.9981  0.9764
13667TIP3    H262493   2.017   2.618   0.179 -1.1637 -0.7923  0.6991
13668TIP3   OH262494   4.563   5.152   3.052  0.1676  0.0434 -0.3819
13668TIP3    H162495   4.483   5.148   3.000 -0.7403 -0.3137  0.9654
13668TIP3    H262496   4.594   5.061   3.055  0.1863  0.0534 -0.2637
13669TIP3   OH262497   1.205   4.853  13.165 -0.8476 -0.2045  0.1191
13669TIP3    H162498   1.163   4.886  13.086 -0.8051  1.7126  0.8502
13669TIP3    H262499   1.297   4.874  13.154 -0.9871  1.0462  1.0974
13670TIP3   OH262500   0.062   6.346   0.449  0.5701  0.2680 -0.2465
13670TIP3    H162501  -0.008   6.289   0.481  0.2099 -0.3555 -2.0460
13670TIP3    H262502   0.062   6.420   0.510 -0.6563 -0.4475  0.6593
13671TIP3   OH262503   2.111   2.093  14.504  0.2386  0.1758  0.5203
13671TIP3    H162504   2.108   2.022  14.440 -2.5793  0.7114 -0.0902
13671TIP3    H262505   2.196   2.134  14.491  0.7396 -1.2601 -1.1566
13672TIP3   OH262506   5.914   6.127  12.665  0.0221  0.5158 -0.0777
13672TIP3    H162507   5.902   6.061  12.597  1.9025 -0.7463  0.7128
13672TIP3    H262508   6.008   6.128  12.680 -0.1929  1.9003  1.4078
13673TIP3   OH262509   6.791   2.464  14.641 -0.2053  0.2428 -0.0499
13673TIP3    H162510   6.717   2.404  14.643  1.0012 -1.4273 -1.7039
13673TIP3    H262511   6.867   2.411  14.663  0.8880  1.1476 -1.3863
13674TIP3   OH262512   4.305   3.968  16.314  0.0141  0.8030 -0.8288
13674TIP3    H162513   4.279   4.025  16.242  0.5383  1.1826 -0.7193
13674TIP3    H262514   4.371   4.018  16.361 -0.9126  0.9053  0.4104
13675TIP3   OH262515   1.161   5.273   3.539 -0.3963 -0.2300 -0.3904
13675TIP3    H162516   1.126   5.289   3.452 -1.9608 -1.5899 -0.0480
13675TIP3    H262517   1.255   5.289   3.530 -0.2917 -1.7366 -2.6878
13676TIP3   OH262518   2.111   3.013   2.587 -0.4088 -0.0060 -0.7062
13676TIP3    H162519   2.075   3.073   2.651 -1.6835 -1.4611  0.0058
13676TIP3    H262520   2.034   2.981   2.538  0.5832  1.8774 -3.7700
13677TIP3   OH262521   2.961   1.432  14.184  0.8347 -0.3371  0.5085
13677TIP3    H162522   3.010   1.513  14.200 -1.5014  0.9686  1.5650
13677TIP3    H262523   2.934   1.438  14.093  0.5921  0.1491  0.6060
13678TIP3   OH262524   2.120   4.486  13.705 -0.0614  0.3606  0.6932
13678TIP3    H162525   2.197   4.473  13.650  0.7020 -0.1961  1.8589
13678TIP3    H262526   2.136   4.432  13.782 -1.1255  1.0790  1.4434
13679TIP3   OH262527   4.317   1.699   3.404 -0.0785 -0.1936 -0.3191
13679TIP3    H162528   4.273   1.624   3.365 -1.4734  0.2440  0.3565
13679TIP3    H262529   4.253   1.770   3.398  1.1902  0.9473 -0.9009
13680TIP3   OH262530   3.417   3.453  12.533 -0.5693  0.0558 -0.3142
13680TIP3    H162531   3.499   3.475  12.576  0.4725 -0.2960 -2.0206
13680TIP3    H262532   3.365   3.409  12.600  0.5980  0.3712  0.8192
13681TIP3   OH262533   6.223   2.573  16.631 -0.4673  0.8097  0.3558
13681TIP3    H162534   6.235   2.480  16.650 -1.8282  1.0370  2.8756
13681TIP3    H262535   6.312   2.607  16.622  0.1264 -0.4741  0.9810
13682TIP3   OH262536   0.372   4.520   2.238 -0.0590 -0.2080  0.0836
13682TIP3    H162537   0.332   4.474   2.164  0.3422  0.7107 -0.7251
13682TIP3    H262538   0.371   4.612   2.212 -0.5694  0.2229  1.5431
13683TIP3   OH262539   2.867   3.744  17.123  0.1835 -0.0230  0.2876
13683TIP3    H162540   2.950   3.739  17.076  0.1092  1.4305 -0.0494
13683TIP3    H262541   2.807   3.690  17.073  0.5536  0.1168 -0.3162
13684TIP3   OH262542   0.373   6.403  15.602  0.5649 -0.4823  0.4815
13684TIP3    H162543   0.411   6.491  15.601 -1.4195  0.4182  0.4224
13684TIP3    H262544   0.415   6.360  15.677  1.0968  0.7325  0.9052
13685TIP3   OH262545   5.212   1.066   2.009  0.1315  0.1666  0.2587
13685TIP3    H162546   5.232   0.978   2.038  0.2498  0.3594  0.7749
13685TIP3    H262547   5.129   1.057   1.960  1.7717 -0.7581 -2.5842
13686TIP3   OH262548   6.820   6.740  11.252  0.2993 -0.6687 -0.2122
13686TIP3    H162549   6.733   6.767  11.281  0.0376 -1.9218  0.2591
13686TIP3    H262550   6.880   6.806  11.287 -0.5102  0.6061 -1.1532
13687TIP3   OH262551   6.205   6.544   3.576  0.9158 -0.0367  0.0790
13687TIP3    H162552   6.205   6.526   3.670  0.2615  1.8330  0.4696
13687TIP3    H262553   6.292   6.582   3.559 -0.0165  2.5096  0.5862
13688TIP3   OH262554   4.495   6.790   3.262  0.8149 -0.2829  0.3992
13688TIP3    H162555   4.453   6.750   3.338 -0.0359 -0.7623 -0.3052
13688TIP3    H262556   4.483   6.726   3.192 -0.3641  1.0602 -0.6941
13689TIP3   OH262557   6.594   4.233   4.796 -0.2963 -0.0544 -0.0167
13689TIP3    H162558   6.649   4.262   4.723 -1.7304  1.7442 -0.4548
13689TIP3    H262559   6.623   4.287   4.870  0.7422 -1.4499  0.6330
13690TIP3   OH262560   0.285   5.694  14.793 -0.5250  0.3511 -0.4626
13690TIP3    H162561   0.310   5.753  14.722 -0.9821  0.7203 -0.3222
13690TIP3    H262562   0.368   5.657  14.824 -0.2681  0.6550 -0.7829
13691TIP3   OH262563   5.938   3.590  12.560 -0.1561  0.4343  0.1547
13691TIP3    H162564   5.852   3.593  12.519 -0.3325 -0.5998  0.4318
13691TIP3    H262565   6.000   3.595  12.487 -0.4629 -1.5298 -0.2935
13692TIP3   OH262566   2.664   1.264   3.454  0.0272  0.1766 -0.0042
13692TIP3    H162567   2.634   1.316   3.528  0.4906  1.4429 -0.6808
13692TIP3    H262568   2.630   1.310   3.377  0.8241 -0.2681 -0.6393
13693TIP3   OH262569   5.534   0.694   5.109 -0.2285 -0.1061 -0.2087
13693TIP3    H162570   5.526   0.604   5.142  0.6491  0.5281  1.9048
13693TIP3    H262571   5.548   0.747   5.187 -1.0642  1.9464 -1.3720
13694TIP3   OH262572   1.111   4.524   0.316  0.2443  0.2808  0.2594
13694TIP3    H162573   1.022   4.511   0.284 -0.1316  0.6966  1.1006
13694TIP3    H262574   1.105   4.513   0.411  0.5614  2.8644  0.6502
13695TIP3   OH262575   1.844   2.793   1.711 -0.2876  0.1685 -0.3720
13695TIP3    H162576   1.798   2.854   1.769 -0.2036 -0.8258  0.7893
13695TIP3    H262577   1.797   2.710   1.723  0.7731 -0.4540 -0.4720
13696TIP3   OH262578   0.097   2.354   6.579 -0.0313  0.4975  0.1508
13696TIP3    H162579   0.090   2.303   6.498  0.4232  3.0011 -1.5733
13696TIP3    H262580   0.185   2.335   6.612 -0.4404 -1.0193  0.4681
13697TIP3   OH262581   0.935   4.026   5.734 -0.2207  0.0806  0.1311
13697TIP3    H162582   0.933   4.110   5.779  1.8891  0.2211  0.0446
13697TIP3    H262583   0.929   4.048   5.641  0.7466  0.2022  0.0834
13698TIP3   OH262584   4.986   3.691   6.105  0.8750  0.6498  0.0188
13698TIP3    H162585   4.995   3.765   6.165  0.9983  0.3817  0.3332
13698TIP3    H262586   4.892   3.686   6.088  0.7524  0.2646  0.7810
13699TIP3   OH262587   4.623   5.620   0.549  0.2505  0.6746 -0.7447
13699TIP3    H162588   4.622   5.637   0.643  0.9749  2.2045 -0.9887
13699TIP3    H262589   4.564   5.545   0.538  0.9694 -0.2311  1.0461
13700TIP3   OH262590   1.877   0.298   4.235 -0.3595  0.0477 -0.5300
13700TIP3    H162591   1.965   0.306   4.272 -0.7113  0.3559  0.2613
13700TIP3    H262592   1.880   0.217   4.184  0.3756  0.0461 -0.5068
13701TIP3   OH262593   1.714   6.459   4.062 -0.6101 -0.5684  0.1703
13701TIP3    H162594   1.699   6.364   4.062  0.0364 -0.6747  0.2392
13701TIP3    H262595   1.779   6.473   4.130 -0.0802 -0.1818 -0.4025
13702TIP3   OH262596   0.769   5.068  10.900 -0.8006 -0.3468  0.5238
13702TIP3    H162597   0.820   5.148  10.888 -0.1941 -0.7927 -0.0159
13702TIP3    H262598   0.680   5.092  10.875 -0.4097 -0.1084 -0.7333
13703TIP3   OH262599   2.337   1.708  15.122 -1.0892 -0.4201 -0.3542
13703TIP3    H162600   2.285   1.629  15.135 -3.2672  0.9425 -0.1663
13703TIP3    H262601   2.375   1.727  15.208 -1.9113 -0.3718  0.0048
13704TIP3   OH262602   0.745   0.487   2.836 -1.1550 -0.0333  0.3010
13704TIP3    H162603   0.669   0.432   2.821 -1.1901  0.3343 -0.9993
13704TIP3    H262604   0.711   0.577   2.831 -0.4220  0.1915 -1.9872
13705TIP3   OH262605   4.284   0.875  13.479 -0.2201 -0.1221  0.0505
13705TIP3    H162606   4.347   0.944  13.502 -0.7434  0.6746 -0.8137
13705TIP3    H262607   4.337   0.806  13.440 -0.0141  1.3577 -2.5026
13706TIP3   OH262608   4.419   6.105   3.525  0.3010 -0.2825 -0.5952
13706TIP3    H162609   4.448   6.042   3.591 -2.6819 -0.0698  1.1245
13706TIP3    H262610   4.399   6.052   3.448  0.8589 -0.9736 -0.2794
13707TIP3   OH262611   6.490   4.802   5.560  0.1646  0.3175 -0.1997
13707TIP3    H162612   6.537   4.727   5.523  1.5672  0.8417  0.4492
13707TIP3    H262613   6.559   4.857   5.598 -0.9258  1.4627  0.1798
13708TIP3   OH262614   3.499   3.925  10.727 -0.2557 -0.3311 -0.2213
13708TIP3    H162615   3.537   3.854  10.675  1.1200  0.5700 -0.4863
13708TIP3    H262616   3.465   3.881  10.805  0.6091 -1.2904 -0.3577
13709TIP3   OH262617   4.369   2.530  13.717  0.4771 -0.5352 -0.1648
13709TIP3    H162618   4.352   2.464  13.784 -0.5102 -0.0638  0.0571
13709TIP3    H262619   4.283   2.551  13.681  0.3988  2.3761  1.4219
13710TIP3   OH262620   6.082   2.431  12.285  0.0999  0.0614  0.2971
13710TIP3    H162621   6.025   2.445  12.210  0.2108 -2.8595 -0.4605
13710TIP3    H262622   6.028   2.455  12.361 -0.4271  1.8854 -0.6128
13711TIP3   OH262623   4.200   6.323  14.251  0.2648 -0.0470  0.9064
13711TIP3    H162624   4.194   6.333  14.156  1.4035  2.0427  1.0070
13711TIP3    H262625   4.176   6.408  14.286 -0.1407 -0.7879  2.5181
13712TIP3   OH262626   5.413   4.513   1.417  0.2852  0.1431  0.0569
13712TIP3    H162627   5.487   4.486   1.362  1.4045  0.8264  1.1942
13712TIP3    H262628   5.387   4.598   1.382 -0.5373 -0.4599 -0.8677
13713TIP3   OH262629   3.434   0.116  12.862  0.2625 -0.6379  0.8909
13713TIP3    H162630   3.340   0.100  12.851  0.3106 -0.7036  0.5806
13713TIP3    H262631   3.451   0.098  12.955 -0.1642  0.0245  1.1002
13714TIP3   OH262632   3.421   0.420   4.375  0.3464  0.0184  0.3856
13714TIP3    H162633   3.498   0.390   4.424 -0.8463 -1.2762  1.5335
13714TIP3    H262634   3.446   0.410   4.283  1.9591  0.7486  0.7069
13715TIP3   OH262635   3.272   6.122  12.668 -0.7153 -0.1438  1.0049
13715TIP3    H162636   3.246   6.203  12.623  1.3636  0.5157  0.8900
13715TIP3    H262637   3.218   6.054  12.628 -1.6090  0.9987  0.2082
13716TIP3   OH262638   0.274   1.503   6.148  0.1325 -0.2095  0.3428
13716TIP3    H162639   0.202   1.549   6.190  0.7686  3.1866 -1.9105
13716TIP3    H262640   0.343   1.501   6.213  0.2377  2.6237  0.4195
13717TIP3   OH262641   5.431   1.645  11.644 -0.2948  0.3149 -0.3395
13717TIP3    H162642   5.500   1.709  11.661  1.1495 -0.9806 -1.0502
13717TIP3    H262643   5.473   1.560  11.655 -2.0361 -0.5443  0.1213
13718TIP3   OH262644   3.722   1.735  14.832  0.0424 -0.1874  0.1538
13718TIP3    H162645   3.634   1.763  14.857  0.4398  0.1618  1.2027
13718TIP3    H262646   3.718   1.640  14.831 -0.2871 -0.1766  0.4350
13719TIP3   OH262647   0.776   1.430  12.650 -0.1753  0.4577  0.4289
13719TIP3    H162648   0.828   1.382  12.714 -0.1379 -0.2746 -0.1299
13719TIP3    H262649   0.792   1.384  12.567 -0.9856  0.7833  0.0803
13720TIP3   OH262650   3.431   6.785  13.147  0.0677 -0.0400  0.0259
13720TIP3    H162651   3.526   6.785  13.137 -0.0698  0.1850 -1.4413
13720TIP3    H262652   3.408   6.693  13.158  0.4686 -0.0652  0.7517
13721TIP3   OH262653   2.572   3.173  13.061  0.2220  0.1885 -0.1272
13721TIP3    H162654   2.596   3.228  12.987  2.9320 -0.8844 -0.1723
13721TIP3    H262655   2.618   3.090  13.044 -0.2342 -0.5595  2.0556
13722TIP3   OH262656   1.731   5.791  12.412 -0.4103 -0.3835 -0.1114
13722TIP3    H162657   1.693   5.707  12.386 -1.5561 -0.1713  0.8021
13722TIP3    H262658   1.756   5.779  12.503  1.1299 -0.2916 -0.4928
13723TIP3   OH262659   3.533   2.362  12.557  0.1724  0.1815 -0.3215
13723TIP3    H162660   3.439   2.353  12.539  0.1012  1.2375 -0.5469
13723TIP3    H262661   3.542   2.340  12.649  0.3234 -3.9119 -1.1438
13724TIP3   OH262662   3.602   6.153  15.961  0.0480  0.4929 -0.5021
13724TIP3    H162663   3.648   6.152  16.046 -1.0123 -1.3663  0.1104
13724TIP3    H262664   3.554   6.235  15.961  0.4270  0.7335  0.5057
13725TIP3   OH262665   4.427   6.797   1.664  0.1271 -0.2216  0.5655
13725TIP3    H162666   4.344   6.815   1.619  0.4286  0.1301  0.1395
13725TIP3    H262667   4.494   6.807   1.596  0.5156 -0.5693  0.8910
13726TIP3   OH262668   6.270   3.825  11.134  0.1075 -0.8053 -0.0105
13726TIP3    H162669   6.218   3.868  11.201 -0.1781 -1.3055  0.1002
13726TIP3    H262670   6.216   3.750  11.107  1.0291 -1.7040  0.5491
13727TIP3   OH262671   0.337   3.413   1.414  0.1556  0.1240 -0.6271
13727TIP3    H162672   0.318   3.327   1.451  0.6027 -0.0582 -0.8175
13727TIP3    H262673   0.432   3.417   1.409  0.1498  0.7943 -0.2432
13728TIP3   OH262674   0.532   0.932  15.451  0.3669  0.1180 -0.1926
13728TIP3    H162675   0.619   0.934  15.413  0.2735  0.0652 -0.4117
13728TIP3    H262676   0.473   0.936  15.376  0.1737 -1.0894 -0.1286
13729TIP3   OH262677   0.215   0.776  15.195  0.0367  0.1064 -0.2720
13729TIP3    H162678   0.146   0.710  15.189  0.7719 -0.6297 -0.7830
13729TIP3    H262679   0.184   0.836  15.263 -0.5694 -0.8367  0.3085
13730TIP3   OH262680   6.310   2.588  10.981 -0.5101  0.0402 -0.0082
13730TIP3    H162681   6.403   2.606  10.996 -0.2722  0.3742 -1.7229
13730TIP3    H262682   6.296   2.501  11.019  0.3048  0.3076  0.9533
13731TIP3   OH262683   2.463   2.475   5.302 -0.5557  0.0946 -0.1896
13731TIP3    H162684   2.401   2.521   5.358 -1.0398 -0.6248 -0.1261
13731TIP3    H262685   2.471   2.529   5.224  0.7420  1.5464  0.8767
13732TIP3   OH262686   4.505   3.719   1.721  0.8221 -0.1619 -0.4258
13732TIP3    H162687   4.556   3.713   1.641  1.5132 -1.3539  0.0742
13732TIP3    H262688   4.562   3.764   1.783  1.6637 -2.1515  0.3629
13733TIP3   OH262689   1.540   2.564   3.208 -0.6970  0.0059 -0.3198
13733TIP3    H162690   1.487   2.495   3.247 -0.0007 -0.7399 -0.6755
13733TIP3    H262691   1.608   2.582   3.272  0.8599 -1.7015 -1.4000
13734TIP3   OH262692   0.899   4.685  13.563  0.3690  0.0223  0.3437
13734TIP3    H162693   0.938   4.684  13.651 -0.4985  0.8579  0.7614
13734TIP3    H262694   0.822   4.741  13.572 -0.7964 -1.3518 -0.5061
13735TIP3   OH262695   2.095   5.776  14.929  0.2068 -0.3084  0.0843
13735TIP3    H162696   2.110   5.825  15.010  1.0463 -1.1130  0.4286
13735TIP3    H262697   2.138   5.828  14.861  0.2984 -0.1033  0.2976
13736TIP3   OH262698   5.771   2.278   5.516 -0.1659  0.4961 -0.4586
13736TIP3    H162699   5.710   2.251   5.585 -0.5323 -1.6142 -1.5194
13736TIP3    H262700   5.831   2.204   5.507  0.2880  1.0130 -1.9298
13737TIP3   OH262701   3.880   0.079  11.130  0.0509  0.0432 -0.2621
13737TIP3    H162702   3.828  -0.002  11.122  0.3620 -0.2101  0.2101
13737TIP3    H262703   3.941   0.061  11.202  0.2343  0.6421 -0.2632
13738TIP3   OH262704   0.571   5.938   1.697  0.7384 -0.5651 -0.0182
13738TIP3    H162705   0.645   5.991   1.728 -0.2084  0.7988 -0.0175
13738TIP3    H262706   0.529   5.905   1.776  0.5478 -0.2162  0.0259
13739TIP3   OH262707   4.932   0.836  12.903 -0.1191  0.2792 -0.0552
13739TIP3    H162708   4.908   0.925  12.932  0.5013  0.0539  1.2707
13739TIP3    H262709   5.016   0.848  12.859 -0.8672  0.5712 -1.4381
13740TIP3   OH262710   4.752   2.818   4.505  0.0029  0.3046 -0.5044
13740TIP3    H162711   4.758   2.820   4.409 -0.1625 -2.9112 -0.7001
13740TIP3    H262712   4.659   2.819   4.523  0.0222  0.2969 -0.4078
13741TIP3   OH262713   4.688   2.176   1.680  0.2193 -0.5316  0.4135
13741TIP3    H162714   4.707   2.143   1.767  1.5481  1.2605  0.8666
13741TIP3    H262715   4.675   2.097   1.627  0.2297 -1.6726  2.0212
13742TIP3   OH262716   2.616   0.658   3.838  0.7792  0.4106  0.3373
13742TIP3    H162717   2.671   0.621   3.769  0.9539  2.5777 -0.8005
13742TIP3    H262718   2.612   0.752   3.817 -2.2747  0.5649  1.1193
13743TIP3   OH262719   1.685   4.311  11.450 -0.1565 -0.1363 -0.0663
13743TIP3    H162720   1.695   4.216  11.445  2.5098  0.1227 -2.5017
13743TIP3    H262721   1.637   4.334  11.371  0.7745  0.6251 -0.4390
13744TIP3   OH262722   0.727   6.184   5.757 -0.5281  0.2427 -0.0470
13744TIP3    H162723   0.685   6.255   5.806  0.5495  0.8803  0.0066
13744TIP3    H262724   0.705   6.202   5.666  0.7857  1.4397 -0.1722
13745TIP3   OH262725   5.976   4.750  13.069 -0.4771 -0.0795  0.0383
13745TIP3    H162726   6.068   4.722  13.072 -0.5280 -0.3116 -0.4273
13745TIP3    H262727   5.980   4.840  13.036 -0.3456  0.3208  1.0920
13746TIP3   OH262728   1.769   3.768   0.986 -0.2560  0.8269 -0.4333
13746TIP3    H162729   1.751   3.852   1.027 -1.6494  0.0749  0.6032
13746TIP3    H262730   1.691   3.715   1.004  1.6968 -1.6684  1.6247
13747TIP3   OH262731   0.977   1.147  13.922  0.2093  0.2646 -0.1666
13747TIP3    H162732   0.924   1.199  13.862 -0.4203 -0.5115 -0.3020
13747TIP3    H262733   0.932   1.063  13.926 -1.3680  1.0976  3.5350
13748TIP3   OH262734   6.770   2.188  11.636 -0.2109 -0.0260  0.4050
13748TIP3    H162735   6.769   2.150  11.724  0.4819 -0.3692  0.2662
13748TIP3    H262736   6.678   2.200  11.614 -0.3809  1.1320  1.6423
13749TIP3   OH262737   3.954   1.996  14.942  0.4797 -0.1816  0.1727
13749TIP3    H162738   3.885   1.959  14.996 -0.3012 -0.4496 -0.9712
13749TIP3    H262739   4.015   2.036  15.004  0.0884 -1.2639  1.2897
13750TIP3   OH262740   0.514   3.872  15.813  0.4456  0.0569  0.2931
13750TIP3    H162741   0.490   3.913  15.896  1.1843  1.3837 -0.1144
13750TIP3    H262742   0.588   3.815  15.834 -0.5637 -1.0713  0.8629
13751TIP3   OH262743   0.446   0.550   0.427  0.2362  0.3626  0.0540
13751TIP3    H162744   0.515   0.607   0.461  0.4885  0.7053 -0.9936
13751TIP3    H262745   0.448   0.564   0.333 -0.8211 -0.1331 -0.0549
13752TIP3   OH262746   6.726   4.962  10.946  0.5428  0.2479  0.3267
13752TIP3    H162747   6.662   5.024  10.980 -0.6302 -0.4381 -0.5069
13752TIP3    H262748   6.673   4.886  10.919  1.6681 -0.2203 -0.6752
13753TIP3   OH262749   5.823   0.393   4.689 -0.2091 -0.1473 -0.0951
13753TIP3    H162750   5.797   0.333   4.620  0.4595  0.6208 -1.0584
13753TIP3    H262751   5.835   0.477   4.644  2.5630 -0.1432  0.4695
13754TIP3   OH262752   0.738   5.109   1.870 -0.2966  0.9798  0.3574
13754TIP3    H162753   0.758   5.200   1.891  0.3912  0.9506 -0.1205
13754TIP3    H262754   0.823   5.068   1.858 -0.5141 -0.2526  2.5923
13755TIP3   OH262755   1.267   5.629   2.916  0.3402 -0.7527 -0.3038
13755TIP3    H162756   1.265   5.644   3.011  1.5704  0.2369 -0.3992
13755TIP3    H262757   1.183   5.588   2.896 -0.1153 -0.5857  1.1523
13756TIP3   OH262758   5.778   6.155   2.432 -0.1743  0.1346 -0.0544
13756TIP3    H162759   5.770   6.237   2.480  2.0331  0.4842 -0.1860
13756TIP3    H262760   5.688   6.122   2.426 -1.1570  2.6109 -0.1702
13757TIP3   OH262761   2.553   4.109  16.384 -0.2856 -0.2597 -0.0871
13757TIP3    H162762   2.559   4.026  16.337  0.0975 -1.3974  1.8543
13757TIP3    H262763   2.472   4.101  16.435  1.0850 -0.6611  2.1878
13758TIP3   OH262764   5.508   0.556   6.075  0.6159 -0.0553 -0.2653
13758TIP3    H162765   5.528   0.617   6.146 -1.5838  0.2525  0.1646
13758TIP3    H262766   5.462   0.610   6.010  2.6052 -0.3249 -2.0089
13759TIP3   OH262767   3.739   4.587  13.157 -0.2525  0.1457 -0.1466
13759TIP3    H162768   3.667   4.586  13.219  0.4665 -2.4461  0.7618
13759TIP3    H262769   3.699   4.563  13.073 -0.8426  1.3824 -0.2406
13760TIP3   OH262770   4.594   2.953   2.811  0.2064 -0.2789  0.1617
13760TIP3    H162771   4.551   2.868   2.800  0.2551 -0.5601  1.7537
13760TIP3    H262772   4.687   2.932   2.811  0.2639 -0.0277 -0.8028
13761TIP3   OH262773   4.220   4.604  12.815  0.2840  0.9928  0.2056
13761TIP3    H162774   4.142   4.589  12.762  0.8438  1.1069 -0.6895
13761TIP3    H262775   4.196   4.675  12.874 -0.5573  0.4389  0.5544
13762TIP3   OH262776   6.766   5.444  10.601  0.2225 -0.2366 -0.1667
13762TIP3    H162777   6.837   5.416  10.542  0.3355 -0.9789  0.3029
13762TIP3    H262778   6.693   5.464  10.542  0.4371 -0.6499 -0.5869
13763TIP3   OH262779   3.914   6.382   0.990  0.4776  0.1633 -0.2035
13763TIP3    H162780   3.891   6.339   0.907  1.0808 -0.3429 -0.1147
13763TIP3    H262781   3.938   6.471   0.965 -0.8427  0.4922 -0.3845
13764TIP3   OH262782   5.318   6.093  11.959 -0.2486 -0.6329  0.5733
13764TIP3    H162783   5.252   6.032  11.926 -0.1375  0.3380 -1.6379
13764TIP3    H262784   5.402   6.054  11.935 -0.1125 -0.5118  0.8421
13765TIP3   OH262785   4.613   4.214  17.015 -0.3415 -0.1169 -0.1775
13765TIP3    H162786   4.680   4.207  17.082 -0.7706 -3.5444  0.0960
13765TIP3    H262787   4.530   4.216  17.063 -0.5965  2.0805 -0.5756
13766TIP3   OH262788   0.612   2.002  16.407  0.7344  0.1691  0.0949
13766TIP3    H162789   0.684   2.005  16.343  0.6852 -1.1829 -0.0487
13766TIP3    H262790   0.626   1.921  16.455 -1.1565 -0.5660 -0.5034
13767TIP3   OH262791   0.718   5.394   4.810  0.5781 -0.1068  1.0887
13767TIP3    H162792   0.706   5.431   4.897  2.3729  1.4672  0.7549
13767TIP3    H262793   0.809   5.362   4.810 -0.2772 -2.7655  0.6712
13768TIP3   OH262794   5.196   3.611   3.983  0.4172  0.2230  0.3305
13768TIP3    H162795   5.196   3.663   3.903  0.5005 -0.0285  0.1669
13768TIP3    H262796   5.289   3.604   4.007  0.5040 -0.7391 -0.2292
13769TIP3   OH262797   2.580   1.944   5.987  0.6014 -0.1327 -0.1487
13769TIP3    H162798   2.601   1.982   5.903 -0.7492 -0.8836 -0.8764
13769TIP3    H262799   2.563   1.851   5.968  0.1441 -0.2887  0.9178
13770TIP3   OH262800   2.294   5.100  10.976  0.8462 -0.5070 -0.5591
13770TIP3    H162801   2.269   5.095  10.884 -1.3051  1.0066 -0.1127
13770TIP3    H262802   2.344   5.181  10.983 -0.9493  0.6121 -0.0394
13771TIP3   OH262803   2.325   5.974   0.298  0.2868 -0.9721  0.3378
13771TIP3    H162804   2.333   5.880   0.312 -0.4417 -1.0442  0.3247
13771TIP3    H262805   2.364   5.989   0.212  3.6929 -0.7138  1.7864
13772TIP3   OH262806   1.907   1.642   3.433 -0.1360 -0.4576  0.4863
13772TIP3    H162807   1.876   1.726   3.399  2.0579  0.4255  0.4940
13772TIP3    H262808   1.928   1.660   3.525  4.4848  0.3476 -0.5000
13773TIP3   OH262809   1.854   3.830  13.711  0.3111  0.7428 -0.2394
13773TIP3    H162810   1.852   3.925  13.723  0.3544  0.6356  0.7356
13773TIP3    H262811   1.771   3.800  13.749  1.4694  0.1557  2.0534
13774TIP3   OH262812   3.521   1.676   1.261  0.6866 -0.2460  0.4762
13774TIP3    H162813   3.554   1.676   1.171 -1.5404  0.1562 -0.4136
13774TIP3    H262814   3.516   1.768   1.285 -1.3262 -0.1573 -0.0870
13775TIP3   OH262815   6.496   1.121  16.319 -0.0690  0.2910  0.0874
13775TIP3    H162816   6.476   1.033  16.348  2.0961 -0.1888  0.2978
13775TIP3    H262817   6.455   1.128  16.233 -0.4488 -0.8494  0.1629
13776TIP3   OH262818   6.030   1.106   0.381 -0.1153 -0.4778 -0.2125
13776TIP3    H162819   6.042   1.179   0.441  2.2535  0.1860 -1.3750
13776TIP3    H262820   6.026   1.147   0.294  2.5744 -1.6808 -1.0285
13777TIP3   OH262821   5.689   1.690   5.561  0.2900 -0.3534 -0.1351
13777TIP3    H162822   5.756   1.722   5.622 -0.4897  1.1073 -0.0193
13777TIP3    H262823   5.701   1.742   5.482 -2.4455  1.9710  0.8357
13778TIP3   OH262824   4.959   6.116  16.636  0.2045 -0.5356 -0.2129
13778TIP3    H162825   4.919   6.179  16.695 -0.9064 -1.1694 -0.2462
13778TIP3    H262826   5.035   6.161  16.599 -0.1314  0.4998  0.3282
13779TIP3   OH262827   0.360   0.430  12.665  0.3808 -0.0593 -0.5102
13779TIP3    H162828   0.364   0.344  12.704  0.1235  0.2416  0.1899
13779TIP3    H262829   0.443   0.439  12.618  0.5373 -0.5633 -0.3355
13780TIP3   OH262830   3.268   6.458  14.437  0.4009 -0.1273 -0.1532
13780TIP3    H162831   3.251   6.447  14.530  0.2986 -0.8719 -0.2570
13780TIP3    H262832   3.285   6.370  14.404 -0.9255 -0.0710 -1.0908
13781TIP3   OH262833   6.779   3.273   1.154  0.4318  0.2592  0.3851
13781TIP3    H162834   6.709   3.232   1.103  1.2296 -0.0334 -0.4878
13781TIP3    H262835   6.835   3.201   1.181  0.1283  0.4294  1.5434
13782TIP3   OH262836   4.193   3.006   5.042 -0.3559  0.5670  0.1328
13782TIP3    H162837   4.230   3.065   4.976 -2.0791  1.1460 -0.3559
13782TIP3    H262838   4.178   2.924   4.995  1.3156 -0.0769  0.6250
13783TIP3   OH262839   3.324   5.116   4.080 -0.0840  0.0146  0.0681
13783TIP3    H162840   3.380   5.119   4.002 -1.8634  0.7059 -1.2645
13783TIP3    H262841   3.280   5.201   4.080 -0.2216 -0.0345  1.7823
13784TIP3   OH262842   1.014   5.839   4.718 -0.5920  0.0292  0.2005
13784TIP3    H162843   1.063   5.917   4.691  0.8154 -0.7828  0.3324
13784TIP3    H262844   0.955   5.821   4.645  0.2315  0.2764 -0.5453
13785TIP3   OH262845   3.075   0.613   1.201  0.0517  0.7336 -0.5822
13785TIP3    H162846   3.035   0.572   1.124  0.8320  1.4198 -1.3746
13785TIP3    H262847   3.011   0.602   1.270  0.2788 -2.0555 -0.6696
13786TIP3   OH262848   6.335   0.733  15.347  0.3723 -0.2977 -0.4192
13786TIP3    H162849   6.292   0.788  15.281  0.5866  1.3387  0.7545
13786TIP3    H262850   6.387   0.794  15.399  0.5273 -1.6035  1.0192
13787TIP3   OH262851   4.440   5.307  11.358  0.1074  0.0621  0.0139
13787TIP3    H162852   4.347   5.329  11.346  0.0917  1.4418  2.0974
13787TIP3    H262853   4.451   5.222  11.314 -2.3630 -0.5888  0.5088
13788TIP3   OH262854   0.967   0.352  15.057 -0.0110  0.3862 -0.4834
13788TIP3    H162855   0.971   0.352  14.961  0.7369  1.0675 -0.4618
13788TIP3    H262856   0.951   0.260  15.080 -0.0258  0.1856 -1.2585
13789TIP3   OH262857   4.549   2.346  12.833 -0.2589  0.0928  0.4181
13789TIP3    H162858   4.634   2.313  12.802  0.0804  0.8645  0.5008
13789TIP3    H262859   4.525   2.413  12.769  0.1926  1.3317  1.5059
13790TIP3   OH262860   2.054   1.267  13.761  0.0786 -0.2166 -0.6861
13790TIP3    H162861   1.968   1.284  13.800 -1.1363 -1.4720 -2.5777
13790TIP3    H262862   2.084   1.352  13.731 -1.1548  0.1016 -1.1106
13791TIP3   OH262863   0.893   4.866   5.193  0.3512 -0.4518  0.5402
13791TIP3    H162864   0.840   4.874   5.273 -0.3600  0.1791  0.0325
13791TIP3    H262865   0.967   4.924   5.208 -0.1764  0.2624  0.4491
13792TIP3   OH262866   1.256   5.046  16.245  0.0892 -0.1389  0.2624
13792TIP3    H162867   1.310   5.095  16.308  0.1983  1.3979 -0.9528
13792TIP3    H262868   1.308   4.969  16.225  1.0841  0.4809  0.3731
13793TIP3   OH262869   1.123   3.317   3.676  0.3436  0.6049 -0.2171
13793TIP3    H162870   1.049   3.377   3.685 -0.4214 -0.3808  0.1820
13793TIP3    H262871   1.181   3.361   3.614 -0.0198  1.9228  0.3419
13794TIP3   OH262872   0.941   3.339   1.213  0.2658  0.3238 -0.0898
13794TIP3    H162873   0.852   3.363   1.188  0.4825  1.1051 -0.1207
13794TIP3    H262874   0.995   3.412   1.183  1.2368 -1.1060 -2.0696
13795TIP3   OH262875   2.799   0.255   1.903  0.6505 -0.2889  0.2304
13795TIP3    H162876   2.854   0.255   1.981 -0.6731  2.2080  1.2807
13795TIP3    H262877   2.710   0.269   1.937 -0.1092 -0.2679 -1.6580
13796TIP3   OH262878   2.408   6.234  11.725  0.1974  0.0092 -0.3799
13796TIP3    H162879   2.492   6.256  11.686  0.5640  0.2107  0.4941
13796TIP3    H262880   2.355   6.203  11.652  0.8835  0.2966 -1.0161
13797TIP3   OH262881   1.327   5.921   3.434 -0.5588 -0.1475 -0.3197
13797TIP3    H162882   1.320   5.998   3.490 -0.5698 -0.4473  0.0866
13797TIP3    H262883   1.256   5.931   3.370 -1.5257 -0.6029  0.6690
13798TIP3   OH262884   5.350   6.193   3.600  0.0922 -1.1485  0.9395
13798TIP3    H162885   5.382   6.186   3.690  3.3066 -2.6686 -0.1552
13798TIP3    H262886   5.369   6.283   3.574  1.1305 -1.2831  1.1798
13799TIP3   OH262887   1.266   6.059  14.073  0.2475  0.3000  0.0005
13799TIP3    H162888   1.214   6.096  14.145 -1.2959  1.4598 -1.6218
13799TIP3    H262889   1.221   5.977  14.051  1.8408 -1.0659  1.5357
13800TIP3   OH262890   0.740   2.091  14.727 -0.1808  0.3479 -0.5484
13800TIP3    H162891   0.781   2.032  14.789 -1.6500  0.9080  1.0443
13800TIP3    H262892   0.663   2.124  14.773 -0.1861  2.4030 -1.9054
13801TIP3   OH262893   5.572   2.257   5.710 -0.0876 -0.0377 -0.2394
13801TIP3    H162894   5.596   2.346   5.733 -1.2257  0.1079  0.4503
13801TIP3    H262895   5.538   2.219   5.792  3.1686 -2.1212  0.3458
13802TIP3   OH262896   5.413   4.910   5.266  0.3770 -0.5494 -0.3641
13802TIP3    H162897   5.325   4.878   5.245  0.2545  0.1156 -0.9061
13802TIP3    H262898   5.467   4.883   5.192  0.4889 -0.4129 -0.3337
13803TIP3   OH262899   1.465   4.144   1.302 -0.3392 -0.2925  0.2859
13803TIP3    H162900   1.533   4.129   1.367 -0.9580  1.6165  1.4618
13803TIP3    H262901   1.489   4.228   1.262 -0.4890 -0.9677 -1.3189
13804TIP3   OH262902   5.421   4.816  14.191 -0.4194  0.4337 -0.5416
13804TIP3    H162903   5.371   4.749  14.145  3.2043 -3.7620  0.8289
13804TIP3    H262904   5.500   4.827  14.138 -0.4229  2.9457 -0.1351
13805TIP3   OH262905   3.021   6.087   5.420  0.0116 -0.1072 -0.1981
13805TIP3    H162906   3.011   6.050   5.332  1.1693  0.8453 -0.7448
13805TIP3    H262907   3.104   6.052   5.452  0.6460  1.2428 -0.3414
13806TIP3   OH262908   6.045   3.454  16.946 -0.2528  0.6237 -0.0341
13806TIP3    H162909   5.964   3.503  16.933  0.0566  1.4096  0.8504
13806TIP3    H262910   6.106   3.491  16.883 -0.5498  0.0899 -0.6413
13807TIP3   OH262911   2.479   1.176  13.570  0.2398 -0.1020 -0.2663
13807TIP3    H162912   2.443   1.237  13.505  1.3119  0.7853 -0.0568
13807TIP3    H262913   2.547   1.226  13.615 -0.6005 -0.6264  1.7060
13808TIP3   OH262914   5.740   1.405   2.737 -0.0910  0.0788  0.2736
13808TIP3    H162915   5.725   1.491   2.777  0.3448  0.6764 -0.7916
13808TIP3    H262916   5.696   1.343   2.795 -1.2093  1.1187  0.5847
13809TIP3   OH262917   4.698   1.838   3.778 -0.9011  0.5174 -0.4378
13809TIP3    H162918   4.729   1.923   3.747 -1.6514  0.3413 -1.7408
13809TIP3    H262919   4.614   1.825   3.733 -0.7641 -0.9424 -0.3331
13810TIP3   OH262920   4.121   1.891   1.810 -0.4705  0.2955 -0.6944
13810TIP3    H162921   4.159   1.976   1.787 -1.5987  1.1471  0.4506
13810TIP3    H262922   4.131   1.886   1.905 -3.0993  0.5171 -0.3536
13811TIP3   OH262923   6.300   5.641  13.924  0.0006  0.3938 -0.0102
13811TIP3    H162924   6.211   5.635  13.889 -1.0149  3.8735  1.5216
13811TIP3    H262925   6.354   5.668  13.849 -0.1170 -1.7967 -0.9568
13812TIP3   OH262926   0.474   0.154   4.850 -0.0624 -0.0575 -0.0165
13812TIP3    H162927   0.403   0.203   4.808 -0.1271  1.4543  1.7393
13812TIP3    H262928   0.550   0.171   4.794 -0.3425  1.1459 -0.0676
13813TIP3   OH262929   5.973   2.204   0.662 -0.1325  0.5373  0.3162
13813TIP3    H162930   5.940   2.115   0.650  0.3453  0.6701 -2.8011
13813TIP3    H262931   5.902   2.251   0.705 -0.8875 -1.0249  0.8269
13814TIP3   OH262932   4.132   2.687   3.666 -1.0078  0.0996 -0.1114
13814TIP3    H162933   4.163   2.716   3.753  0.7938  0.0365 -0.6917
13814TIP3    H262934   4.156   2.759   3.607 -0.5180 -0.6629 -0.8562
13815TIP3   OH262935   4.463   1.765   3.624 -0.3202 -1.0654 -0.4455
13815TIP3    H162936   4.486   1.682   3.667 -0.2075 -0.2711  1.0698
13815TIP3    H262937   4.399   1.739   3.557 -1.4779 -2.2072  1.0195
13816TIP3   OH262938   4.109   3.608   1.535 -0.2845 -0.3087  0.1830
13816TIP3    H162939   4.055   3.674   1.578  1.0722  0.5275  0.6452
13816TIP3    H262940   4.166   3.657   1.477 -0.9166 -1.2919 -1.3340
13817TIP3   OH262941   3.537   6.391   3.109 -0.5756 -0.0097 -0.1816
13817TIP3    H162942   3.533   6.459   3.177  1.4577 -0.0461  0.0462
13817TIP3    H262943   3.628   6.392   3.080 -0.5506 -2.4678 -0.3548
13818TIP3   OH262944   1.829   4.603   3.386  0.8320  0.3160  0.0268
13818TIP3    H162945   1.749   4.654   3.396  0.2902 -0.5151  0.0767
13818TIP3    H262946   1.895   4.651   3.437  0.6603  1.6005 -0.9341
13819TIP3   OH262947   1.363   4.269   2.155  0.1469 -0.2518 -0.0463
13819TIP3    H162948   1.298   4.253   2.087  0.3526 -0.2554 -0.2434
13819TIP3    H262949   1.447   4.271   2.108  0.0621  2.7318 -0.2811
13820TIP3   OH262950   3.269   5.907  13.462  0.3523 -0.5746 -0.3394
13820TIP3    H162951   3.194   5.967  13.452  0.5397 -0.2070  0.4413
13820TIP3    H262952   3.335   5.941  13.401  0.3696 -0.1252 -0.0718
13821TIP3   OH262953   3.786   5.410   6.028  0.4522  0.3822  0.1627
13821TIP3    H162954   3.735   5.402   6.108  0.5017 -1.6248  0.0337
13821TIP3    H262955   3.741   5.478   5.978 -1.0885 -0.1244  0.8051
13822TIP3   OH262956   4.692   1.209   5.966  0.0282 -0.2642 -0.0574
13822TIP3    H162957   4.725   1.299   5.957 -0.1063 -0.3324 -1.5000
13822TIP3    H262958   4.734   1.161   5.894 -1.9816 -0.6947 -1.0098
13823TIP3   OH262959   3.769   0.248  16.118 -0.1223 -0.5715 -0.0223
13823TIP3    H162960   3.688   0.196  16.115  0.1165 -0.9808  0.5524
13823TIP3    H262961   3.794   0.249  16.210  0.7350 -0.7566 -0.2487
13824TIP3   OH262962   2.137   4.457   3.607  0.0954 -0.3223 -0.5306
13824TIP3    H162963   2.102   4.545   3.617  0.5485 -0.4203  4.0335
13824TIP3    H262964   2.067   4.407   3.565 -1.7722  1.3603  0.4434
13825TIP3   OH262965   0.287   0.529   1.693  0.1623 -0.1501  0.5117
13825TIP3    H162966   0.222   0.555   1.758  1.0996  0.9747  1.0345
13825TIP3    H262967   0.346   0.604   1.686  0.1571 -0.2616 -1.5793
13826TIP3   OH262968   0.629   5.393   5.159  0.4581 -0.0248 -0.3225
13826TIP3    H162969   0.699   5.431   5.107 -0.4614  2.5509  0.1550
13826TIP3    H262970   0.596   5.466   5.212 -1.0854 -1.6632  1.1270
13827TIP3   OH262971   2.486   0.609  12.950  0.4123 -0.0821 -0.4483
13827TIP3    H162972   2.483   0.514  12.952  1.0166 -0.1243 -1.2990
13827TIP3    H262973   2.546   0.633  13.021 -0.1488 -0.2938  0.1166
13828TIP3   OH262974   1.024   4.326  15.685  0.4643 -0.2941  0.4522
13828TIP3    H162975   1.004   4.412  15.722 -0.8250 -0.7382  0.8422
13828TIP3    H262976   1.103   4.297  15.731 -0.1675 -0.1158  1.6867
13829TIP3   OH262977   3.565   2.290   3.807 -0.3560  0.3102 -0.0140
13829TIP3    H162978   3.580   2.246   3.723 -1.3398  0.7551 -0.4328
13829TIP3    H262979   3.477   2.266   3.832 -0.2283  0.5407  0.6796
13830TIP3   OH262980   4.146   4.115   2.466  0.2779  0.6241  1.3379
13830TIP3    H162981   4.084   4.043   2.457  0.5923  0.5296 -0.5676
13830TIP3    H262982   4.231   4.073   2.471  0.3885  0.8364  1.2507
13831TIP3   OH262983   2.398   4.768  14.517 -0.6971 -0.2891 -0.1876
13831TIP3    H162984   2.418   4.700  14.453 -1.5602  0.0073 -0.7791
13831TIP3    H262985   2.305   4.787  14.505 -0.4282  1.1495 -0.1756
13832TIP3   OH262986   5.404   2.782   5.672 -0.4687  0.1499  0.4733
13832TIP3    H162987   5.405   2.842   5.747  0.3422  1.1180 -0.2873
13832TIP3    H262988   5.471   2.717   5.693  0.7594  1.2231 -0.0172
13833TIP3   OH262989   0.866   3.342   0.484 -0.1807  0.4393  0.2562
13833TIP3    H162990   0.841   3.403   0.555 -0.1577 -0.6352  1.2139
13833TIP3    H262991   0.794   3.279   0.481  0.1924  0.0314 -0.1747
13834TIP3   OH262992   3.788   5.071  17.048 -0.5718 -0.5488 -0.5954
13834TIP3    H162993   3.836   5.096  16.969  1.0238 -1.5553  0.0047
13834TIP3    H262994   3.798   4.976  17.053 -0.2376 -0.4556  1.0475
13835TIP3   OH262995   0.468   5.014   4.094  0.3298 -0.2951  0.4113
13835TIP3    H162996   0.442   4.934   4.048  0.0091 -0.4748  0.8999
13835TIP3    H262997   0.389   5.044   4.138 -0.2056  1.6756 -1.7357
13836TIP3   OH262998   1.000   0.943  16.051 -0.4180 -0.3922  0.0061
13836TIP3    H162999   1.067   0.878  16.073 -1.7303 -1.5814  0.6610
13836TIP3    H263000   0.995   0.942  15.956  0.9090  0.1673 -0.0888
13837TIP3   OH263001   2.778   1.083  15.186  0.3541 -0.0995 -0.1161
13837TIP3    H163002   2.774   1.092  15.281 -0.5904 -0.1788 -0.1396
13837TIP3    H263003   2.854   1.027  15.171 -0.6947 -1.8684  0.7406
13838TIP3   OH263004   1.865   2.055  16.933 -0.2452 -0.5344 -0.4248
13838TIP3    H163005   1.904   2.048  16.846 -1.0431  1.6615 -1.0273
13838TIP3    H263006   1.840   2.147  16.940  0.7994 -0.3843  2.5781
13839TIP3   OH263007   1.526   3.396  12.503 -0.0766  0.3097  0.1066
13839TIP3    H163008   1.519   3.489  12.526 -0.9030 -0.0569  1.4557
13839TIP3    H263009   1.438   3.372  12.476 -0.3431 -0.5121  1.6019
13840TIP3   OH263010   4.569   3.552  14.179  0.5361 -0.0431 -0.0630
13840TIP3    H163011   4.597   3.471  14.135  0.3357  0.0532 -0.3683
13840TIP3    H263012   4.601   3.542  14.269  1.1520 -0.1352 -0.2892
13841TIP3   OH263013   1.853   1.065   1.821 -0.6079  0.3322 -0.4691
13841TIP3    H163014   1.771   1.098   1.785 -1.4974 -1.5498 -0.2981
13841TIP3    H263015   1.827   0.991   1.876  1.1610  0.0385  0.0381
13842TIP3   OH263016   2.893   5.890  15.421 -0.0959  0.0393 -0.3573
13842TIP3    H163017   2.937   5.974  15.432 -0.5343  0.1635  0.4760
13842TIP3    H263018   2.855   5.871  15.506  0.6160 -1.3699 -0.3380
13843TIP3   OH263019   2.362   6.533   4.470  0.1620 -0.1378  0.0499
13843TIP3    H163020   2.378   6.550   4.563  2.4300  1.6739 -0.5848
13843TIP3    H263021   2.435   6.575   4.425 -1.5866  0.2131 -2.6794
13844TIP3   OH263022   4.711   4.305   4.076  0.7925  0.8746  0.2164
13844TIP3    H163023   4.685   4.394   4.054  1.9820  1.7520  2.1013
13844TIP3    H263024   4.707   4.301   4.171  0.4966 -1.1985  0.1688
13845TIP3   OH263025   5.223   5.638   3.992 -0.3310  0.0739 -0.6162
13845TIP3    H163026   5.163   5.615   3.922 -0.7884  0.8000 -0.4761
13845TIP3    H263027   5.309   5.609   3.961 -0.7965 -1.3738 -0.6312
13846TIP3   OH263028   1.909   0.340   1.410 -0.4850  0.0726  0.6313
13846TIP3    H163029   1.988   0.310   1.456 -0.4002  1.0984  1.1912
13846TIP3    H263030   1.935   0.340   1.317 -0.5283 -1.6219  0.5856
13847TIP3   OH263031   1.657   2.104  10.540 -0.3408 -0.2371 -0.0055
13847TIP3    H163032   1.649   2.014  10.507 -0.3775  0.2792 -1.5069
13847TIP3    H263033   1.732   2.101  10.600  1.5981 -0.7183 -2.2744
13848TIP3   OH263034   4.910   2.077  15.884  0.3689 -0.0997 -0.4288
13848TIP3    H163035   4.831   2.060  15.935  0.5769 -0.5993 -0.2660
13848TIP3    H263036   4.980   2.084  15.950  0.4913  0.1520 -0.5837
13849TIP3   OH263037   1.162   1.620   2.087  0.6235  0.6286 -0.2645
13849TIP3    H163038   1.187   1.685   2.021  0.5899 -0.3245 -1.2261
13849TIP3    H263039   1.076   1.589   2.059  1.0532 -0.5244 -0.3433
13850TIP3   OH263040   0.836   0.254   4.232  0.3780  0.2447  0.5054
13850TIP3    H163041   0.775   0.181   4.242  0.8792 -0.2351  0.0733
13850TIP3    H263042   0.805   0.320   4.295  1.6723 -1.5010  3.1580
13851TIP3   OH263043   3.524   5.560  15.410 -0.0205  0.5125  0.2755
13851TIP3    H163044   3.566   5.643  15.387  0.3964  0.4850  0.9102
13851TIP3    H263045   3.595   5.506  15.445  0.3681 -1.2039 -2.7308
13852TIP3   OH263046   0.420   0.722  15.617 -0.4354 -0.5539  0.0628
13852TIP3    H163047   0.451   0.790  15.557 -1.0010  1.4045  1.8394
13852TIP3    H263048   0.325   0.720  15.604 -0.4593 -0.7289  0.2515
13853TIP3   OH263049   1.476   6.505   1.069 -0.3605  0.6077 -0.2440
13853TIP3    H163050   1.460   6.475   1.159 -0.0736  1.8717  0.2436
13853TIP3    H263051   1.399   6.557   1.047  0.2757  1.6210 -0.1362
13854TIP3   OH263052   3.995   3.216   0.927 -0.8828 -0.4405 -0.2446
13854TIP3    H163053   4.081   3.247   0.953 -0.9165  0.3301 -0.9909
13854TIP3    H263054   4.012   3.134   0.880 -0.5252 -0.1458 -0.6369
13855TIP3   OH263055   2.264   1.963  13.707  0.2184 -0.1887 -0.1266
13855TIP3    H163056   2.235   1.888  13.654  0.0367  1.1270 -2.0099
13855TIP3    H263057   2.352   1.982  13.675  1.6855 -1.5808  2.6852
13856TIP3   OH263058   5.320   4.626  11.464  0.4318  0.1189 -0.0924
13856TIP3    H163059   5.378   4.599  11.535 -0.4808  0.8094  0.9644
13856TIP3    H263060   5.373   4.620  11.385  1.7661  0.2292  0.7675
13857TIP3   OH263061   6.127   3.614  14.295  0.4932  0.0045 -0.5116
13857TIP3    H163062   6.040   3.574  14.302  0.2145  0.8485  1.6693
13857TIP3    H263063   6.115   3.686  14.234 -1.0360  1.6387  1.5650
13858TIP3   OH263064   2.501   0.234  15.992  0.0671 -0.2070 -0.1004
13858TIP3    H163065   2.589   0.212  15.962  0.5382  0.9102  0.3805
13858TIP3    H263066   2.457   0.270  15.915  0.0072 -0.8027 -0.3510
13859TIP3   OH263067   0.312   5.801   6.311  0.4379 -0.0394 -0.2739
13859TIP3    H163068   0.308   5.781   6.405  2.5082  1.7211  0.2655
13859TIP3    H263069   0.405   5.799   6.289  0.1564  1.3444 -1.8443
13860TIP3   OH263070   6.691   3.046   2.849  0.2532  0.0477 -0.1187
13860TIP3    H163071   6.723   2.995   2.775 -0.3565 -0.1392 -0.2570
13860TIP3    H263072   6.757   3.033   2.917  1.1250  0.7065 -0.8216
13861TIP3   OH263073   6.289   3.799  12.973  0.0015 -0.3466  0.1589
13861TIP3    H163074   6.260   3.722  13.022  1.1714  0.2799  1.9329
13861TIP3    H263075   6.222   3.865  12.990  0.5334 -0.0499  1.1808
13862TIP3   OH263076   1.201   4.454   1.957 -0.4048  0.4421 -0.5238
13862TIP3    H163077   1.148   4.375   1.965  0.6837 -0.3085 -0.5334
13862TIP3    H263078   1.174   4.509   2.031 -0.5647 -0.2998 -0.0216
13863TIP3   OH263079   4.266   6.403   3.877 -0.2370  0.6963 -0.0144
13863TIP3    H163080   4.330   6.473   3.866  0.7172 -0.1788 -0.2007
13863TIP3    H263081   4.241   6.408   3.969 -0.0781  1.2077  0.0014
13864TIP3   OH263082   6.255   5.662  12.135  0.0946 -0.3784 -0.2022
13864TIP3    H163083   6.220   5.682  12.049  0.8658  3.1888  0.1845
13864TIP3    H263084   6.348   5.643  12.120  0.4940  1.3620 -0.1065
13865TIP3   OH263085   0.376   1.658   1.895  0.1117 -0.1581  0.1336
13865TIP3    H163086   0.467   1.643   1.867 -0.4481  0.7259 -2.4576
13865TIP3    H263087   0.381   1.730   1.957  1.2017 -0.1331  0.0354
13866TIP3   OH263088   2.449   1.554   0.186  0.0373  0.2698  0.2746
13866TIP3    H163089   2.422   1.644   0.166 -1.3072 -0.1501  0.1137
13866TIP3    H263090   2.519   1.535   0.124 -1.3078  0.3955 -1.3417
13867TIP3   OH263091   4.017   6.287   4.468  0.1051 -0.6066 -0.2804
13867TIP3    H163092   3.930   6.249   4.458 -0.1076 -0.3089  0.3855
13867TIP3    H263093   4.044   6.310   4.379 -0.1442 -1.4585 -0.5831
13868TIP3   OH263094   4.023   2.970   5.237 -0.2155  0.2823  0.4703
13868TIP3    H163095   4.074   2.998   5.161 -0.0822  1.4400  0.9665
13868TIP3    H263096   3.967   2.900   5.204  1.9844 -1.3866  0.0003
13869TIP3   OH263097   2.941   1.701  14.993 -0.6082  0.0508 -0.3554
13869TIP3    H163098   2.972   1.790  15.007 -1.6343  0.6651 -1.6777
13869TIP3    H263099   2.870   1.689  15.056  0.4907 -0.3776  0.8200
13870TIP3   OH263100   4.061   6.370   3.019 -0.3929  0.2186  0.3881
13870TIP3    H163101   4.134   6.355   2.958 -0.8339 -0.7492  0.0823
13870TIP3    H263102   4.103   6.396   3.101  0.5433 -3.1352  1.1319
13871TIP3   OH263103   4.650   0.567  11.642 -0.1872  0.5662 -0.3517
13871TIP3    H163104   4.637   0.655  11.678  3.2164  0.9224  0.4126
13871TIP3    H263105   4.638   0.578  11.548  1.3909  2.2240 -0.4270
13872TIP3   OH263106   5.329   3.279   5.110  0.0851  0.0505 -0.0183
13872TIP3    H163107   5.368   3.271   5.023  1.3908  2.0537  0.3299
13872TIP3    H263108   5.395   3.245   5.170 -2.3208 -5.3768  0.1460
13873TIP3   OH263109   4.933   0.505  11.199  0.5836  0.7573  0.1563
13873TIP3    H163110   4.975   0.444  11.140 -3.6991 -1.1606 -1.2554
13873TIP3    H263111   4.849   0.526  11.158 -0.3608  3.6184  3.0565
13874TIP3   OH263112   0.112   0.075  11.455 -0.1024  0.3226  0.1422
13874TIP3    H163113   0.151   0.162  11.452  0.8481 -0.0834  0.2957
13874TIP3    H263114   0.131   0.044  11.544  3.3149 -1.6618 -1.0855
13875TIP3   OH263115   0.657   1.100  10.345 -0.0755  0.2827  0.1860
13875TIP3    H163116   0.658   1.032  10.413 -1.4223  0.5836  0.5398
13875TIP3    H263117   0.573   1.144  10.357  0.2493  1.2160 -0.8327
13876TIP3   OH263118   5.029   4.817  10.722 -0.4120  0.0812 -0.4803
13876TIP3    H163119   5.021   4.913  10.728 -0.5833  0.0976 -0.9621
13876TIP3    H263120   5.088   4.802  10.649 -0.3147 -0.1822 -0.3465
13877TIP3   OH263121   4.422   2.002  16.979  1.1294 -0.0783 -0.2613
13877TIP3    H163122   4.357   1.948  16.935 -0.9212  1.9820  0.0681
13877TIP3    H263123   4.427   2.082  16.926  0.0769  1.6327  2.0123
13878TIP3   OH263124   3.196   5.693   0.250 -0.4519 -0.1407  0.1140
13878TIP3    H163125   3.215   5.751   0.324 -2.0902  0.4232  0.1327
13878TIP3    H263126   3.111   5.723   0.217  0.2252 -0.3773 -2.0119
13879TIP3   OH263127   2.281   2.572  15.751  0.0503 -0.3780 -0.1602
13879TIP3    H163128   2.366   2.571  15.794  0.6162  0.7520 -1.2150
13879TIP3    H263129   2.282   2.495  15.693  0.2623 -0.4725 -0.0305
13880TIP3   OH263130   5.993   4.718   2.298 -0.0069 -0.2618 -0.1663
13880TIP3    H163131   5.963   4.808   2.310  0.5680  0.1563 -1.6664
13880TIP3    H263132   5.978   4.677   2.383 -0.8551  1.0715  0.3683
13881TIP3   OH263133   1.815   0.793  15.445 -0.2962 -0.4453  0.4011
13881TIP3    H163134   1.772   0.748  15.372 -1.2138 -0.9121  1.1931
13881TIP3    H263135   1.874   0.856  15.404 -0.1914 -1.2482 -0.7383
13882TIP3   OH263136   4.938   3.389  15.898 -0.0229  0.0082 -0.0571
13882TIP3    H163137   4.931   3.474  15.854  2.2892  0.7313  0.7750
13882TIP3    H263138   4.972   3.331  15.831  1.3402  0.5551  0.1157
13883TIP3   OH263139   3.543   5.733   5.455  0.3920  0.2587  0.2533
13883TIP3    H163140   3.629   5.692   5.464  0.5417  0.1614 -1.2407
13883TIP3    H263141   3.538   5.757   5.362 -1.1055  0.4529  0.3580
13884TIP3   OH263142   2.511   5.149   5.054 -0.2711  0.0110 -0.4436
13884TIP3    H163143   2.427   5.126   5.013  0.4182 -0.3959 -1.6969
13884TIP3    H263144   2.547   5.217   4.998  1.1333 -1.2184 -1.1265
13885TIP3   OH263145   4.285   0.502   1.416 -0.1181 -0.3482  0.0310
13885TIP3    H163146   4.252   0.414   1.433  0.8776 -1.1255 -1.7170
13885TIP3    H263147   4.364   0.487   1.364 -0.3424  1.6064 -0.9430
13886TIP3   OH263148   2.409   3.152  11.080 -0.1765  0.3104 -0.6473
13886TIP3    H163149   2.418   3.215  11.009  2.5344 -0.1735 -0.8388
13886TIP3    H263150   2.412   3.067  11.036  0.7741  0.0178 -0.0411
13887TIP3   OH263151   6.186   1.255   5.113 -0.5740  0.0537 -0.4520
13887TIP3    H163152   6.244   1.292   5.179  0.2633  0.8758 -1.6170
13887TIP3    H263153   6.220   1.167   5.097 -0.5557 -0.0102 -0.0715
13888TIP3   OH263154   5.767   0.624   4.510  0.0380  0.4182 -0.3858
13888TIP3    H163155   5.761   0.700   4.452 -1.3699 -0.8114 -1.9677
13888TIP3    H263156   5.676   0.599   4.525  0.4342 -0.1294  1.2603
13889TIP3   OH263157   1.149   0.454  15.238 -0.1046 -0.1477 -0.0419
13889TIP3    H163158   1.112   0.473  15.325  0.5126 -1.5768  0.5642
13889TIP3    H263159   1.074   0.432  15.184 -0.7865  2.9570 -0.5741
13890TIP3   OH263160   0.565   1.265  12.307 -0.1080 -0.5023 -0.6100
13890TIP3    H163161   0.513   1.336  12.269 -0.5668 -1.0303 -0.9694
13890TIP3    H263162   0.605   1.304  12.385  0.8898  0.6244 -1.6409
13891TIP3   OH263163   6.720   1.381   3.189  0.1364 -0.2070  0.0390
13891TIP3    H163164   6.786   1.373   3.120 -3.1043  0.6983 -3.5053
13891TIP3    H263165   6.734   1.468   3.226  2.6093 -1.1235  1.4895
13892TIP3   OH263166   6.244   3.157  13.754  0.4707  0.3290  0.2130
13892TIP3    H163167   6.155   3.127  13.769  0.8782 -1.6952 -0.9919
13892TIP3    H263168   6.256   3.231  13.814 -1.4659 -0.3907  1.5487
13893TIP3   OH263169   5.386   4.762   2.662  0.1274  0.0101  0.3611
13893TIP3    H163170   5.394   4.742   2.755 -3.2128  0.3976  0.8832
13893TIP3    H263171   5.327   4.694   2.628  1.1837 -0.0557 -1.4660
13894TIP3   OH263172   2.043   0.316   2.567  0.1692  0.5044  0.3921
13894TIP3    H163173   1.953   0.315   2.601 -0.3427 -0.2663 -0.9000
13894TIP3    H263174   2.097   0.289   2.641 -0.7565  0.1071  0.9500
13895TIP3   OH263175   2.832   2.201  14.306  0.2781 -0.2465  0.0931
13895TIP3    H163176   2.900   2.259  14.272  0.0151 -0.0176 -0.0430
13895TIP3    H263177   2.755   2.257  14.314  0.6046 -0.0239  2.0765
13896TIP3   OH263178   2.355   2.464  10.879 -0.2245 -0.1276 -0.2709
13896TIP3    H163179   2.370   2.553  10.847  1.1231  0.1918  1.1518
13896TIP3    H263180   2.358   2.409  10.800  2.3684  0.6910 -0.8470
13897TIP3   OH263181   6.522   0.717   2.833 -0.3599  0.5650  0.0861
13897TIP3    H163182   6.548   0.809   2.826  0.3464  0.3428 -0.2186
13897TIP3    H263183   6.604   0.668   2.831 -0.6849 -0.0366  0.9230
13898TIP3   OH263184   6.728   4.016  13.656 -0.6429  0.0892 -0.0893
13898TIP3    H163185   6.685   4.002  13.740  0.1734  1.4537  0.5916
13898TIP3    H263186   6.790   4.087  13.672 -0.1293  0.0609 -1.7335
13899TIP3   OH263187   2.208   0.961  14.385 -0.4456 -0.5245 -0.2826
13899TIP3    H163188   2.266   0.914  14.325  1.8594  0.2083  1.2296
13899TIP3    H263189   2.221   1.053  14.364  0.8510 -0.2179  1.6247
13900TIP3   OH263190   4.470   2.767   1.918 -0.7289  0.3970 -0.4535
13900TIP3    H163191   4.493   2.860   1.912 -0.5511  0.4289  0.5430
13900TIP3    H263192   4.401   2.763   1.985 -0.6678 -0.2020 -0.4169
13901TIP3   OH263193   6.186   3.095   2.973 -0.0076  0.6656  0.0188
13901TIP3    H163194   6.130   3.123   3.045 -2.4034 -0.2832 -1.3304
13901TIP3    H263195   6.209   3.175   2.927 -0.5154  1.0675  0.4540
13902TIP3   OH263196   4.339   5.680  15.184  0.1758  0.4197  0.0562
13902TIP3    H163197   4.309   5.599  15.225  0.2521  0.7257  0.7379
13902TIP3    H263198   4.434   5.669  15.177  0.0352 -0.1232 -1.1506
13903TIP3   OH263199   0.606   2.053   2.297 -0.1639 -0.2942  0.0944
13903TIP3    H163200   0.546   2.117   2.335  0.9963  2.1092 -1.8173
13903TIP3    H263201   0.693   2.082   2.326  0.3426 -1.4560 -0.2169
13904TIP3   OH263202   4.556   4.145  15.592  0.6252 -0.5940  0.0299
13904TIP3    H163203   4.647   4.124  15.614  0.8290  0.8027  0.6243
13904TIP3    H263204   4.550   4.129  15.498  1.7376  0.1543 -0.1831
13905TIP3   OH263205   3.240   5.974   1.041  0.0617  0.1633 -0.4727
13905TIP3    H163206   3.218   5.929   0.960 -2.7074  2.1605 -0.9860
13905TIP3    H263207   3.199   5.920   1.109  1.1679 -0.7513 -0.5011
13906TIP3   OH263208   6.372   5.063   0.181 -0.2405 -0.7652 -0.3967
13906TIP3    H163209   6.357   4.970   0.198 -1.0393 -0.7221 -0.7875
13906TIP3    H263210   6.295   5.106   0.218  0.1893 -0.2432 -0.0983
13907TIP3   OH263211   4.564   4.969  13.093 -0.4716  0.0017  0.4176
13907TIP3    H163212   4.525   5.047  13.055 -0.9592  0.7267  2.3135
13907TIP3    H263213   4.641   5.000  13.140 -2.3879 -0.0195  3.9218
13908TIP3   OH263214   2.820   1.009  14.805  0.5846 -0.6762 -0.0519
13908TIP3    H163215   2.823   1.096  14.843 -0.3527  0.5041 -2.4704
13908TIP3    H263216   2.911   0.978  14.809  1.6317  1.8118 -2.0481
13909TIP3   OH263217   1.536   3.815  12.162 -0.4047  0.0495 -0.4431
13909TIP3    H163218   1.608   3.791  12.221  0.4430  0.4281 -1.3067
13909TIP3    H263219   1.561   3.901  12.129 -0.1182 -0.7908 -2.5223
13910TIP3   OH263220   0.128   4.355   5.450  1.2243 -0.0426 -0.7256
13910TIP3    H163221   0.061   4.287   5.454  1.3532 -0.1095  1.6676
13910TIP3    H263222   0.100   4.419   5.515  1.7243  1.6616 -2.0984
13911TIP3   OH263223   4.535   3.855  15.046 -0.0975  0.1501  0.5107
13911TIP3    H163224   4.470   3.917  15.014 -1.3020 -1.2165  0.1875
13911TIP3    H263225   4.590   3.836  14.970 -1.7381 -1.5858 -0.3366
13912TIP3   OH263226   4.404   5.228  16.777  0.1753 -0.3366 -0.8779
13912TIP3    H163227   4.457   5.150  16.759 -0.6492 -1.2523  0.4853
13912TIP3    H263228   4.319   5.194  16.805 -0.1197  1.0445  0.0096
13913TIP3   OH263229   6.549   6.208  13.232  0.3840 -0.1791  0.0383
13913TIP3    H163230   6.527   6.185  13.142  1.4856  0.8155 -0.5153
13913TIP3    H263231   6.643   6.193  13.239  1.2297  3.8585 -0.3773
13914TIP3   OH263232   2.135   6.558  13.294 -0.2498  0.0442 -0.5465
13914TIP3    H163233   2.100   6.489  13.238  0.4460  0.8514 -2.0552
13914TIP3    H263234   2.111   6.639  13.250 -3.2795  1.0060  2.4762
13915TIP3   OH263235   1.301   3.217  16.096 -0.7902 -0.3656  0.3124
13915TIP3    H163236   1.344   3.265  16.166  0.4119 -2.1281  0.8424
13915TIP3    H263237   1.249   3.150  16.140  1.6222 -2.8906 -0.3488
13916TIP3   OH263238   1.630   5.892   2.368  0.2561 -0.4252  0.0672
13916TIP3    H163239   1.538   5.915   2.384  0.6138  0.0064  1.7462
13916TIP3    H263240   1.667   5.970   2.327 -0.1444 -0.6504 -0.7456
13917TIP3   OH263241   0.960   1.884   3.667  0.2172  0.0645 -0.2944
13917TIP3    H163242   0.907   1.811   3.698 -2.5836  0.1415 -4.2165
13917TIP3    H263243   1.043   1.843   3.640 -0.2973 -1.2035 -0.0189
13918TIP3   OH263244   4.724   0.552   2.221 -0.4043  0.0312 -0.3019
13918TIP3    H163245   4.778   0.508   2.287  0.6676  1.1793 -0.3845
13918TIP3    H263246   4.677   0.619   2.269 -0.6344  0.0065 -0.4889
13919TIP3   OH263247   0.471   5.757   4.844 -0.1296  1.4422  0.4414
13919TIP3    H163248   0.510   5.685   4.794 -0.7412  2.0220 -0.9341
13919TIP3    H263249   0.486   5.734   4.936 -0.5507 -0.5853  0.0548
13920TIP3   OH263250   2.800   3.152   3.298  0.0254 -0.4586  0.3143
13920TIP3    H163251   2.864   3.204   3.249 -1.3221 -0.5106 -1.6132
13920TIP3    H263252   2.846   3.128   3.378  1.1810  2.4816  0.6524
13921TIP3   OH263253   4.116   2.127  11.716 -0.5730  0.3231 -0.0383
13921TIP3    H163254   4.209   2.137  11.694 -0.6452  0.4532 -0.2939
13921TIP3    H263255   4.091   2.044  11.676 -0.7099  0.5705 -0.4689
13922TIP3   OH263256   2.262   5.275   1.215 -0.5137 -0.2826 -0.0476
13922TIP3    H163257   2.276   5.336   1.142 -0.9065 -0.8253 -0.5841
13922TIP3    H263258   2.350   5.254   1.246 -0.2701 -0.9592 -1.1369
13923TIP3   OH263259   3.562   1.589   0.907  0.1088  0.0063  0.5311
13923TIP3    H163260   3.586   1.607   0.816  0.3775 -0.2163  0.5551
13923TIP3    H263261   3.615   1.650   0.958 -0.4280  0.4980  0.5181
13924TIP3   OH263262   5.948   3.078  10.687 -0.1263 -0.5886 -0.2950
13924TIP3    H163263   5.922   2.992  10.718 -0.1961 -0.5886 -0.3547
13924TIP3    H263264   5.904   3.088  10.603 -1.4191  0.1573  0.4268
13925TIP3   OH263265   4.777   1.178   0.199 -0.4995 -0.4086  0.1576
13925TIP3    H163266   4.797   1.219   0.283  1.1214 -1.4721  0.3396
13925TIP3    H263267   4.861   1.174   0.154 -0.7571 -2.5659 -0.2592
13926TIP3   OH263268   2.382   5.910  16.619 -0.4451  0.0468 -0.3358
13926TIP3    H163269   2.345   5.996  16.597  0.0821  0.2607 -0.4219
13926TIP3    H263270   2.465   5.907  16.570  0.1163 -0.0166  0.5915
13927TIP3   OH263271   2.160   2.855  16.478 -0.0011  0.0810  0.0585
13927TIP3    H163272   2.174   2.888  16.389 -2.9958  1.6729  0.0486
13927TIP3    H263273   2.144   2.934  16.530 -1.0127 -0.9702  1.4266
13928TIP3   OH263274   5.692   3.587  15.296 -0.4469 -0.0579 -0.0232
13928TIP3    H163275   5.693   3.573  15.202  1.4413 -1.9594  0.2036
13928TIP3    H263276   5.688   3.500  15.334 -1.3297  0.6701  1.6882
13929TIP3   OH263277   4.507   2.513  16.947  0.2510  0.0024 -0.0828
13929TIP3    H163278   4.443   2.582  16.966  0.8714  0.3442  0.8547
13929TIP3    H263279   4.584   2.537  16.998  0.6555 -1.1247 -0.1288
13930TIP3   OH263280   2.388   6.159  14.916 -0.0725 -0.5974 -0.3755
13930TIP3    H163281   2.305   6.200  14.892  0.6757  1.5067  0.4831
13930TIP3    H263282   2.427   6.133  14.833 -0.6776  0.2485 -0.9338
13931TIP3   OH263283   0.189   3.520   2.135  0.2510  0.7577 -0.0759
13931TIP3    H163284   0.127   3.582   2.098  0.2727  2.7298  2.8646
13931TIP3    H263285   0.254   3.507   2.066 -3.1542 -1.3538 -3.2850
13932TIP3   OH263286   2.935   1.858   1.451 -0.5583 -0.1397  0.2178
13932TIP3    H163287   2.863   1.804   1.420 -0.0789 -1.2478  0.9515
13932TIP3    H263288   2.899   1.946   1.458 -0.7264  0.2215 -3.3419
13933TIP3   OH263289   2.971   5.347   1.013  0.0562 -0.0135 -0.0375
13933TIP3    H163290   3.058   5.369   1.045 -0.0514 -0.7166  0.7804
13933TIP3    H263291   2.928   5.305   1.088 -1.2261  0.9463 -0.1919
13934TIP3   OH263292   6.065   3.590   1.390 -0.6617  0.4239  0.4613
13934TIP3    H163293   6.068   3.586   1.485  0.8950 -0.2419  0.4297
13934TIP3    H263294   6.150   3.627   1.365 -0.6297 -0.3582 -0.6842
13935TIP3   OH263295   3.631   1.522   3.688  0.0716  0.6574 -0.0432
13935TIP3    H163296   3.538   1.511   3.668  0.0568  0.4492  0.1446
13935TIP3    H263297   3.672   1.538   3.602 -0.2549  1.6243 -0.0326
13936TIP3   OH263298   3.744   2.773  11.455  0.0339  0.5285 -0.4907
13936TIP3    H163299   3.794   2.693  11.471 -1.6879 -0.1907  2.0072
13936TIP3    H263300   3.803   2.844  11.479  1.1498 -0.0299 -1.4942
13937TIP3   OH263301   4.782   1.681   5.479 -0.3112 -0.2841 -0.1572
13937TIP3    H163302   4.864   1.667   5.527 -0.9339 -0.7834  0.8045
13937TIP3    H263303   4.800   1.653   5.390  0.7394  0.1834 -0.1021
13938TIP3   OH263304   0.197   6.671  13.415  0.0171 -0.9864  0.3545
13938TIP3    H163305   0.170   6.661  13.323  1.2401 -1.2474  0.0114
13938TIP3    H263306   0.268   6.735  13.412  1.7532 -2.8144  0.7923
13939TIP3   OH263307   2.665   2.704   0.527  0.0512  0.0775  0.3625
13939TIP3    H163308   2.665   2.631   0.465  0.6902 -0.0648  0.5211
13939TIP3    H263309   2.625   2.776   0.478 -0.5978 -0.3779  0.2094
13940TIP3   OH263310   2.206   4.672   5.592 -0.2280 -0.1840  0.1267
13940TIP3    H163311   2.163   4.650   5.509 -0.6974 -0.5864  0.4704
13940TIP3    H263312   2.146   4.638   5.659 -0.9662  2.0848  0.6897
13941TIP3   OH263313   3.357   6.316   1.603  0.3815 -0.1397 -0.0698
13941TIP3    H163314   3.296   6.390   1.607  0.4377 -0.1238  0.5038
13941TIP3    H263315   3.378   6.296   1.694  0.9685 -0.3666 -0.2460
13942TIP3   OH263316   6.078   2.782   6.110 -0.0773 -0.4572  0.6225
13942TIP3    H163317   6.163   2.825   6.118 -0.8576  1.3817 -0.1073
13942TIP3    H263318   6.030   2.809   6.188 -1.0403  1.2482 -0.4854
13943TIP3   OH263319   5.004   4.962  15.443  0.7294 -0.4846 -0.2011
13943TIP3    H163320   5.051   4.958  15.526  0.7648 -1.9474 -0.2635
13943TIP3    H263321   5.074   4.961  15.377  0.7741  2.2169 -0.2795
13944TIP3   OH263322   3.776   2.614   0.046  0.2650 -0.0264  0.0066
13944TIP3    H163323   3.840   2.543   0.052  0.2098 -0.0085  0.9692
13944TIP3    H263324   3.807   2.680   0.109 -0.8758 -0.1672  0.7495
13945TIP3   OH263325   5.892   0.732  12.641 -0.9846  0.3268 -0.0980
13945TIP3    H163326   5.817   0.674  12.633  0.3300 -1.2244 -2.1802
13945TIP3    H263327   5.915   0.753  12.550 -0.7070  3.2365  0.5533
13946TIP3   OH263328   6.092   4.686  14.142  0.2173  0.3650  0.4947
13946TIP3    H163329   5.998   4.672  14.149  0.1523  0.3198 -0.3472
13946TIP3    H263330   6.109   4.688  14.048  1.0883  0.1418  0.6353
13947TIP3   OH263331   3.145   3.967  16.114  0.0124  0.2117 -0.1509
13947TIP3    H163332   3.098   3.989  16.194 -0.2852  2.3303 -0.8434
13947TIP3    H263333   3.127   3.874  16.100 -2.4695  0.5109  0.5832
13948TIP3   OH263334   4.945   0.503  16.842  0.1762  0.3139 -0.7736
13948TIP3    H163335   4.998   0.429  16.812  0.0226 -0.1476  0.0602
13948TIP3    H263336   4.917   0.547  16.761 -2.2080 -2.2428 -1.5089
13949TIP3   OH263337   4.370   6.624   1.858  0.0308  0.1346 -0.3717
13949TIP3    H163338   4.362   6.711   1.821  0.3177  0.5954  0.6074
13949TIP3    H263339   4.435   6.633   1.927 -2.6341  0.0491  2.3626
13950TIP3   OH263340   5.268   4.484  16.797 -0.6610 -0.2602  0.3774
13950TIP3    H163341   5.194   4.545  16.802  0.4901  1.2146  0.0288
13950TIP3    H263342   5.258   4.428  16.874 -1.1258  1.1169  1.3521
13951TIP3   OH263343   3.089   3.916   2.653 -0.0537  0.3586  0.5959
13951TIP3    H163344   3.116   3.885   2.567 -1.7470  1.6517 -0.4619
13951TIP3    H263345   3.171   3.934   2.699  0.8834 -1.1105 -0.4332
13952TIP3   OH263346   1.230   0.199   0.862 -0.1330  0.2525 -0.2879
13952TIP3    H163347   1.239   0.271   0.800  1.1153  0.2461 -0.1272
13952TIP3    H263348   1.313   0.153   0.859  1.3406  2.1476  3.7184
13953TIP3   OH263349   5.986   3.547  11.157  0.6085 -0.2140 -0.4069
13953TIP3    H163350   5.995   3.623  11.100  0.5203  0.3278  0.2810
13953TIP3    H263351   6.018   3.474  11.105  1.4250  0.4155 -0.8065
13954TIP3   OH263352   6.464   5.590  15.103  1.0292  0.0322  0.0932
13954TIP3    H163353   6.533   5.538  15.061  0.9822 -1.6498  1.9420
13954TIP3    H263354   6.383   5.547  15.079  0.8503  0.3036  0.2089
13955TIP3   OH263355   2.291   0.628   2.723 -0.5438 -0.4165  0.4963
13955TIP3    H163356   2.213   0.602   2.674 -0.3746  2.0430 -1.2853
13955TIP3    H263357   2.364   0.593   2.672 -0.4136 -1.5385  1.4146
13956TIP3   OH263358   5.313   0.167  11.121  0.4268 -0.1941 -0.0899
13956TIP3    H163359   5.230   0.190  11.078  1.8080  3.0398 -1.3103
13956TIP3    H263360   5.334   0.080  11.086 -2.0479 -0.8074 -0.2621
13957TIP3   OH263361   0.104   1.470  11.813 -0.0516 -0.0228 -0.4573
13957TIP3    H163362   0.023   1.438  11.773 -0.9938 -0.4608  1.6436
13957TIP3    H263363   0.159   1.392  11.822 -0.3078 -0.1397  0.1215
13958TIP3   OH263364   0.586   5.031   0.741  0.0080  0.4419 -0.5250
13958TIP3    H163365   0.672   5.031   0.699  0.1923 -2.2140 -0.3026
13958TIP3    H263366   0.604   5.050   0.833  0.2114  0.8354 -0.6388
13959TIP3   OH263367   4.371   6.749  12.494  0.3124  0.8562 -0.8271
13959TIP3    H163368   4.443   6.810  12.482  0.5568  0.6458 -0.4481
13959TIP3    H263369   4.373   6.694  12.415  0.4402  0.9773 -0.9077
13960TIP3   OH263370   2.449   3.778   2.574 -0.2328  0.0272  0.1338
13960TIP3    H163371   2.510   3.851   2.574 -1.0287  0.7233  1.2710
13960TIP3    H263372   2.417   3.773   2.664 -0.4680 -1.5074  0.0042
13961TIP3   OH263373   5.146   2.538   1.143 -0.0145 -0.0043  0.3336
13961TIP3    H163374   5.188   2.550   1.057 -1.8054 -0.9395 -0.7282
13961TIP3    H263375   5.140   2.444   1.153  1.3668  0.0512  2.1558
13962TIP3   OH263376   4.422   0.446  10.805 -0.2958 -0.3159  0.4877
13962TIP3    H163377   4.332   0.478  10.801 -0.1673 -0.0101 -0.1044
13962TIP3    H263378   4.458   0.486  10.885 -0.9884 -1.2768  1.3042
13963TIP3   OH263379   6.623   1.361  17.180  0.5107  0.0584 -0.2868
13963TIP3    H163380   6.561   1.407  17.236  3.0225 -0.9693  3.8397
13963TIP3    H263381   6.699   1.418  17.176  1.3923 -1.0741 -0.3078
13964TIP3   OH263382   6.452   0.702   6.569  0.3037 -0.3837 -0.5106
13964TIP3    H163383   6.479   0.622   6.612  1.7529  0.6951  0.6825
13964TIP3    H263384   6.450   0.680   6.476 -0.0055 -1.9624 -0.1609
13965TIP3   OH263385   1.299   4.286   5.946 -0.4045  0.2947  0.5921
13965TIP3    H163386   1.258   4.207   5.982 -1.0926  0.6319  0.5493
13965TIP3    H263387   1.361   4.313   6.014 -1.6711  0.9030  1.5357
13966TIP3   OH263388   6.196   4.185  10.699  0.6938  0.1555  0.0175
13966TIP3    H163389   6.256   4.210  10.770  0.5798  0.1437  0.1193
13966TIP3    H263390   6.239   4.216  10.620  1.9071 -1.7991 -0.1444
13967TIP3   OH263391   5.883   1.759  15.944 -0.2028 -0.8025  0.1114
13967TIP3    H163392   5.808   1.702  15.958 -1.4354  0.5075 -0.8192
13967TIP3    H263393   5.892   1.764  15.849 -1.1293  1.6774  0.0725
13968TIP3   OH263394   0.352   0.266   1.905 -0.2843  0.3036  0.2295
13968TIP3    H163395   0.265   0.254   1.867 -0.1834  0.0135  0.0916
13968TIP3    H263396   0.398   0.322   1.842 -0.5324  0.8749  0.5459
13969TIP3   OH263397   3.979   3.885   3.185  0.0895 -0.1112  0.3576
13969TIP3    H163398   3.957   3.809   3.240  0.6048  0.2034  1.0089
13969TIP3    H263399   4.075   3.889   3.188  0.1084  0.0600 -0.3724
13970TIP3   OH263400   5.626   2.304   6.510  0.2203 -0.4387  0.0442
13970TIP3    H163401   5.533   2.324   6.495  0.4032  1.0424  0.6977
13970TIP3    H263402   5.625   2.220   6.558 -0.7226 -0.8778 -0.7119
13971TIP3   OH263403   6.251   0.631   6.367  0.6124 -0.2813 -0.1714
13971TIP3    H163404   6.265   0.536   6.368  0.8652 -0.2425  0.0582
13971TIP3    H263405   6.162   0.643   6.400  1.0851 -0.3526  1.1928
13972TIP3   OH263406   4.670   5.455  10.903  0.0786  0.1475 -0.4704
13972TIP3    H163407   4.599   5.512  10.871  1.0716  1.4183 -0.4805
13972TIP3    H263408   4.650   5.444  10.996 -0.4355  0.0406 -0.5876
13973TIP3   OH263409   4.851   6.779   3.620 -0.4506  0.5613  0.0567
13973TIP3    H163410   4.922   6.723   3.588  0.5264  0.9442  1.4531
13973TIP3    H263411   4.836   6.841   3.549  0.7827  0.6136 -0.1790
13974TIP3   OH263412   6.791   4.914   2.484 -0.2942  0.0626  0.1361
13974TIP3    H163413   6.808   4.821   2.473 -1.3220  0.0597 -1.9852
13974TIP3    H263414   6.696   4.922   2.479 -0.1662  1.3128 -0.7488
13975TIP3   OH263415   5.822   0.138  16.146  0.5437 -0.1771 -0.3189
13975TIP3    H163416   5.838   0.226  16.112 -0.4220 -0.4654 -1.6120
13975TIP3    H263417   5.734   0.143  16.185  1.1880 -0.1438  1.2161
13976TIP3   OH263418   3.286   4.986   2.459  0.3038  0.1671 -0.0295
13976TIP3    H163419   3.235   5.062   2.432 -0.5120 -0.3009  0.1623
13976TIP3    H263420   3.232   4.941   2.523 -1.0724 -2.6986 -2.8680
13977TIP3   OH263421   0.481   6.401   0.549 -0.4790 -0.2224  0.2175
13977TIP3    H163422   0.528   6.402   0.465  0.9807  0.3207  1.0161
13977TIP3    H263423   0.424   6.324   0.543  0.2530 -0.7088 -0.9242
13978TIP3   OH263424   5.089   1.170   5.964  0.2769 -0.0298 -0.5342
13978TIP3    H163425   5.119   1.260   5.972  1.2286 -0.4630  1.4011
13978TIP3    H263426   5.046   1.151   6.047 -0.7267 -1.0817 -1.2606
13979TIP3   OH263427   6.789   2.770   6.833 -0.0201  0.5907  0.3575
13979TIP3    H163428   6.805   2.679   6.808 -0.5968  0.8039 -0.8570
13979TIP3    H263429   6.876   2.807   6.844  0.2992  0.5886 -1.8357
13980TIP3   OH263430   2.925   3.044   4.351  0.2376 -0.5411 -0.0080
13980TIP3    H163431   2.946   2.992   4.273 -1.4050  0.3454 -1.0936
13980TIP3    H263432   2.953   3.133   4.330 -2.9269  0.3796 -0.9405
13981TIP3   OH263433   1.381   2.415   5.312 -0.1630 -0.4362 -0.0542
13981TIP3    H163434   1.333   2.348   5.264 -1.0905 -0.4447  0.8560
13981TIP3    H263435   1.428   2.366   5.380  0.1565 -0.2924 -0.1697
13982TIP3   OH263436   4.877   1.319   1.450 -0.4816 -0.9283 -0.1224
13982TIP3    H163437   4.887   1.391   1.512  1.2488 -0.4814 -0.8649
13982TIP3    H263438   4.941   1.254   1.479  0.3847 -0.6940 -1.4047
13983TIP3   OH263439   0.741   4.925   4.953  0.1299  0.7531  0.2057
13983TIP3    H163440   0.785   4.922   5.038  2.3698  0.6638 -0.8582
13983TIP3    H263441   0.804   4.884   4.893 -2.6601 -2.1000 -1.0104
13984TIP3   OH263442   0.302   3.119   1.847  0.1719 -0.1457 -0.2876
13984TIP3    H163443   0.207   3.118   1.840 -0.1622 -1.4610  2.6101
13984TIP3    H263444   0.331   3.188   1.787 -2.4062 -0.9390 -2.6138
13985TIP3   OH263445   3.439   5.772   0.074  0.1160 -0.1520  0.5045
13985TIP3    H163446   3.344   5.783   0.076  0.2690  1.1262  1.3235
13985TIP3    H263447   3.454   5.687   0.116 -0.7298 -1.1225 -1.0246
13986TIP3   OH263448   0.912   1.345  12.394  0.7408 -0.0283 -0.5034
13986TIP3    H163449   1.005   1.363  12.407  0.6533  0.4029 -0.4823
13986TIP3    H263450   0.908   1.295  12.312  0.8383  1.3729 -1.3932
13987TIP3   OH263451   6.117   4.221  13.356  0.0968  0.0612  0.0675
13987TIP3    H163452   6.130   4.295  13.297 -0.2286  0.4149  0.4319
13987TIP3    H263453   6.029   4.190  13.338  0.0404  0.0943  0.2771
13988TIP3   OH263454   2.796   2.409  13.453  0.4972 -0.0958  0.0706
13988TIP3    H163455   2.818   2.347  13.384 -0.6376 -0.4966  0.0375
13988TIP3    H263456   2.703   2.429  13.438  0.0770 -0.6249  1.7921
13989TIP3   OH263457   0.332   0.573  11.410  0.4886 -0.5688  0.3203
13989TIP3    H163458   0.310   0.642  11.473 -2.0038 -2.6416  1.9361
13989TIP3    H263459   0.396   0.518  11.456 -0.0160 -1.1316  0.3559
13990TIP3   OH263460   3.553   0.443   1.270 -0.3901 -0.6341 -0.0411
13990TIP3    H163461   3.533   0.531   1.239  0.3080 -0.5524 -0.2849
13990TIP3    H263462   3.649   0.439   1.268 -0.3323 -0.8354  1.5127
13991TIP3   OH263463   3.467   4.904  16.632 -0.9024 -0.4637 -0.4608
13991TIP3    H163464   3.462   4.853  16.551  1.7686  0.1103 -1.0856
13991TIP3    H263465   3.381   4.945  16.640 -1.3153 -0.7013 -2.8895
13992TIP3   OH263466   2.330   5.259  15.798  0.5351 -0.0029 -0.2288
13992TIP3    H163467   2.345   5.257  15.704  1.0590 -2.9498 -0.2044
13992TIP3    H263468   2.403   5.309  15.833  1.5655 -0.7077 -1.2802
13993TIP3   OH263469   5.552   2.556   2.289 -0.3653 -0.2634 -0.0344
13993TIP3    H163470   5.539   2.511   2.205  1.2539 -0.5362 -0.1803
13993TIP3    H263471   5.522   2.493   2.355  1.7396 -1.6080 -0.2446
13994TIP3   OH263472   1.996   6.069   5.380 -0.4070 -0.0208  0.2253
13994TIP3    H163473   2.042   5.999   5.425 -0.0700  1.5177  2.4317
13994TIP3    H263474   1.924   6.026   5.334  1.8857 -2.2253 -1.5669
13995TIP3   OH263475   2.123   0.300  13.912  0.1351  0.0634 -0.0690
13995TIP3    H163476   2.098   0.208  13.912 -0.3267  0.1766 -1.1960
13995TIP3    H263477   2.207   0.302  13.866  0.1742  0.1910  0.0094
13996TIP3   OH263478   5.037   3.932  13.666  0.0357  0.3602  0.4046
13996TIP3    H163479   5.094   3.885  13.727  0.4123  0.6694  0.2950
13996TIP3    H263480   5.059   3.896  13.580 -0.2427  0.1755  0.4099
13997TIP3   OH263481   0.552   5.772   2.536 -0.3645 -0.2113 -0.7060
13997TIP3    H163482   0.466   5.807   2.559  0.1872  1.1514 -0.5853
13997TIP3    H263483   0.534   5.697   2.481 -1.6297  0.7585 -1.6787
13998TIP3   OH263484   1.538   6.814  10.737  0.2916  0.5399  0.3733
13998TIP3    H163485   1.492   6.897  10.731 -3.4335 -1.3956 -0.9698
13998TIP3    H263486   1.591   6.810  10.658 -1.3817  0.6987 -0.8056
13999TIP3   OH263487   3.047   4.714  13.345 -0.0866 -0.4817 -0.0021
13999TIP3    H163488   3.018   4.638  13.396  0.0754  0.4219  1.4800
13999TIP3    H263489   3.118   4.752  13.397 -0.5618  1.0324 -0.4175
14000TIP3   OH263490   3.399   4.770  16.942 -0.4320 -0.4919  0.1762
14000TIP3    H163491   3.372   4.857  16.913  0.6580 -0.1058  0.3047
14000TIP3    H263492   3.460   4.740  16.875 -0.5044 -0.9986  0.3321
14001TIP3   OH263493   6.239   0.475  11.539 -0.2367 -0.2219 -0.0132
14001TIP3    H163494   6.285   0.443  11.461 -0.2203  0.7325 -0.4124
14001TIP3    H263495   6.289   0.441  11.613  0.4126 -0.1740 -0.4296
14002TIP3   OH263496   1.257   0.247   1.404 -0.2719  0.2187 -0.3204
14002TIP3    H163497   1.328   0.258   1.340 -0.3880  1.4595 -0.2637
14002TIP3    H263498   1.249   0.152   1.415  1.2584  0.0425 -0.4699
14003TIP3   OH263499   2.617   6.038   1.775  0.1181  0.0952  0.7731
14003TIP3    H163500   2.706   6.005   1.791  1.4158  0.5569 -3.9352
14003TIP3    H263501   2.562   5.960   1.775  1.4162 -0.8751 -0.6572
14004TIP3   OH263502   3.340   3.514   2.739  0.2752 -0.6795  0.4512
14004TIP3    H163503   3.381   3.547   2.659  1.5237  0.9697  1.6988
14004TIP3    H263504   3.284   3.585   2.769  0.1271 -1.1170  1.2378
14005TIP3   OH263505   5.105   5.131   3.864 -0.1965 -0.2635  0.1856
14005TIP3    H163506   5.020   5.124   3.908 -1.5790 -1.6624 -2.4728
14005TIP3    H263507   5.126   5.041   3.837  1.6832  0.1917 -0.0600
14006TIP3   OH263508   2.518   4.823  15.165 -0.0068 -0.0496 -0.5415
14006TIP3    H163509   2.463   4.745  15.171 -1.8524  1.2196 -0.1687
14006TIP3    H263510   2.584   4.812  15.234 -0.2025 -1.2804 -0.5336
14007TIP3   OH263511   0.179   2.293   3.425 -0.0913  0.1240 -0.2532
14007TIP3    H163512   0.135   2.250   3.351 -1.4653  2.8704 -1.1849
14007TIP3    H263513   0.260   2.327   3.389  0.6368 -0.9752  0.2925
14008TIP3   OH263514   5.946   2.078   4.568 -1.0837 -0.4949 -0.9738
14008TIP3    H163515   5.880   2.059   4.635 -0.4758  1.2542  0.1724
14008TIP3    H263516   5.966   1.992   4.530 -2.7055 -1.3012 -0.1395
14009TIP3   OH263517   1.920   2.565  16.187  0.3598  0.6226 -0.3015
14009TIP3    H163518   1.972   2.585  16.265 -2.3481  1.3709  1.4445
14009TIP3    H263519   1.921   2.645  16.135 -0.8161  1.3918  0.8261
14010TIP3   OH263520   1.213   5.820  11.794  0.1576 -0.1290  0.7029
14010TIP3    H163521   1.206   5.896  11.735  1.1688  1.5190  2.5917
14010TIP3    H263522   1.307   5.812  11.811 -0.1097 -0.6654  1.9865
14011TIP3   OH263523   0.954   3.746   5.343  0.3373 -0.0179  0.1399
14011TIP3    H163524   1.045   3.757   5.371  0.4086 -2.2635  1.0351
14011TIP3    H263525   0.904   3.796   5.408  0.8371 -0.3873  0.8332
14012TIP3   OH263526   4.893   3.525  14.670 -0.2530 -0.1888  0.0583
14012TIP3    H163527   4.872   3.540  14.762  0.1768 -2.5904  0.6041
14012TIP3    H263528   4.937   3.606  14.643  0.9696  0.0283  2.3885
14013TIP3   OH263529   2.490   5.621   4.163  0.4465  0.5569  0.7151
14013TIP3    H163530   2.544   5.586   4.234  2.6304  0.5979 -0.8557
14013TIP3    H263531   2.447   5.545   4.125  1.6111  0.1230  0.2233
14014TIP3   OH263532   4.354   0.326  11.614  0.3472  0.4398  0.4759
14014TIP3    H163533   4.261   0.307  11.624  0.5566 -1.1225 -0.3185
14014TIP3    H263534   4.359   0.376  11.533  0.1700  0.9271  0.7572
14015TIP3   OH263535   2.281   6.088  10.925 -0.0710  0.3656 -0.1896
14015TIP3    H163536   2.293   6.006  10.876 -0.5084  0.2462 -0.1040
14015TIP3    H263537   2.293   6.157  10.859  0.0008  0.2247 -0.3265
14016TIP3   OH263538   3.727   0.267  11.694 -0.0791 -0.2425 -0.0986
14016TIP3    H163539   3.802   0.240  11.746  1.0766 -0.4113 -1.7610
14016TIP3    H263540   3.651   0.234  11.741  0.8156  0.5875  2.0327
14017TIP3   OH263541   5.134   1.161  12.579 -0.7837  0.1059 -0.0977
14017TIP3    H163542   5.197   1.101  12.619  1.7173  2.4132 -0.2557
14017TIP3    H263543   5.069   1.177  12.647 -0.8655 -1.8533  0.3263
14018TIP3   OH263544   4.326   1.676  14.020 -0.2246  0.9266  0.0434
14018TIP3    H163545   4.280   1.600  13.984  1.1345 -0.1228  0.4082
14018TIP3    H263546   4.398   1.691  13.959  1.7556 -0.4984  1.8379
14019TIP3   OH263547   0.100   1.073  16.598 -0.6139  1.0281 -0.4694
14019TIP3    H163548   0.104   1.155  16.647 -0.4586  1.0502 -0.5201
14019TIP3    H263549   0.168   1.081  16.532  1.5837 -0.3977  1.4631
14020TIP3   OH263550   4.850   3.733  15.951  0.2771 -0.3454 -0.1571
14020TIP3    H163551   4.932   3.695  15.919  0.3522 -0.2990 -0.0210
14020TIP3    H263552   4.855   3.825  15.927 -0.1409 -0.5185 -0.9676
14021TIP3   OH263553   2.148   1.452  15.704 -0.2997  1.1400  0.2016
14021TIP3    H163554   2.230   1.487  15.738 -0.8516  0.8217  1.9631
14021TIP3    H263555   2.126   1.380  15.763 -1.3702  0.6034 -0.8065
14022TIP3   OH263556   4.502   3.032   1.904  0.1909  0.2935 -0.0592
14022TIP3    H163557   4.434   3.065   1.963  0.8553  1.3633  0.1390
14022TIP3    H263558   4.556   3.109   1.885  0.9657 -0.4015 -0.7255
14023TIP3   OH263559   1.391   6.360  14.405  0.1624  0.0484 -0.2773
14023TIP3    H163560   1.472   6.337  14.450  0.0974  2.0409  1.0104
14023TIP3    H263561   1.322   6.316  14.455  0.3691 -1.1007 -0.9709
14024TIP3   OH263562   0.330   0.560  16.931  0.5013  0.6012  0.3121
14024TIP3    H163563   0.290   0.638  16.892 -2.7826 -1.9158 -1.9661
14024TIP3    H263564   0.326   0.495  16.861  1.8703 -1.9931  2.4951
14025TIP3   OH263565   3.029   3.746  16.327  0.7403 -0.7348 -0.1207
14025TIP3    H163566   3.066   3.789  16.403  0.3919  1.1975 -0.9765
14025TIP3    H263567   3.100   3.691  16.293  1.0416 -1.2579  1.2908
14026TIP3   OH263568   1.736   4.025   3.027 -0.3048  0.0844  0.5209
14026TIP3    H163569   1.709   4.081   3.099  0.6048  1.5199 -0.2045
14026TIP3    H263570   1.670   4.040   2.959 -0.0381  0.3302  0.3111
14027TIP3   OH263571   5.697   3.550   1.018 -0.1737 -0.1520  0.8275
14027TIP3    H163572   5.732   3.502   1.093  2.1819  1.0145  0.5481
14027TIP3    H263573   5.742   3.513   0.942  0.2310  1.1353  0.4074
14028TIP3   OH263574   3.906   0.385   0.699  0.1771  1.4132 -0.0576
14028TIP3    H163575   3.842   0.455   0.702  0.0463  1.3186 -0.5204
14028TIP3    H263576   3.908   0.358   0.607  0.6631  1.2166  0.0056
14029TIP3   OH263577   0.376   2.275   5.101  0.2264 -0.1347 -0.2429
14029TIP3    H163578   0.331   2.328   5.035 -0.1143 -0.2066 -0.0684
14029TIP3    H263579   0.306   2.240   5.156  0.5617  1.0360  1.0081
14030TIP3   OH263580   6.664   3.000   1.766  0.1570  0.7481 -0.1971
14030TIP3    H163581   6.645   2.973   1.856  1.8527 -0.5275 -0.1639
14030TIP3    H263582   6.687   3.093   1.773 -1.5906  1.1945  0.3480
14031TIP3   OH263583   4.104   1.929   2.945  0.1770  0.4448  0.1544
14031TIP3    H163584   4.016   1.952   2.913  0.8266  1.2730 -1.1065
14031TIP3    H263585   4.143   1.879   2.874  0.8323  0.3277  0.5932
14032TIP3   OH263586   4.366   2.036   1.147  0.7850  0.4934  0.5073
14032TIP3    H163587   4.321   2.043   1.231  0.3694  2.1511  0.1884
14032TIP3    H263588   4.453   2.073   1.163  1.2004 -0.4518  0.5206
14033TIP3   OH263589   5.768   1.906   6.532  0.3516  0.2730 -0.1529
14033TIP3    H163590   5.775   1.883   6.625 -0.7400 -3.4537 -0.8260
14033TIP3    H263591   5.702   1.975   6.529 -2.0379 -1.7753  1.6395
14034TIP3   OH263592   5.863   3.555  14.735  0.4406 -0.0996  0.7963
14034TIP3    H163593   5.900   3.631  14.779  1.8201 -0.4953  0.3590
14034TIP3    H263594   5.937   3.516  14.688 -0.7078 -0.4070 -0.8402
14035TIP3   OH263595   1.242   2.137   6.403  0.1100 -0.5732 -0.4403
14035TIP3    H163596   1.178   2.192   6.449  0.3150 -1.1962  0.6331
14035TIP3    H263597   1.317   2.194   6.389 -1.1041  0.5652 -2.8949
14036TIP3   OH263598   0.002   0.472   3.646 -0.0040 -0.2213  0.0318
14036TIP3    H163599  -0.073   0.456   3.589 -0.2355  2.8251 -0.6930
14036TIP3    H263600  -0.036   0.476   3.734 -0.6280  0.6802 -0.2599
14037TIP3   OH263601   1.883   0.104  13.374 -0.3478  0.9079  0.8988
14037TIP3    H163602   1.896   0.093  13.280  0.4756  3.0515  0.7262
14037TIP3    H263603   1.835   0.025  13.400  2.3166 -1.4174 -0.6520
14038TIP3   OH263604   6.460   2.234   3.044  0.4049  0.2621 -1.1264
14038TIP3    H163605   6.466   2.258   2.952 -0.5095  2.4830 -0.6664
14038TIP3    H263606   6.533   2.174   3.058  0.4479 -0.2737 -3.3122
14039TIP3   OH263607   5.909   0.410  11.229  0.3866  0.1427  0.8920
14039TIP3    H163608   5.818   0.392  11.253  0.6484 -0.7068  1.2668
14039TIP3    H263609   5.940   0.330  11.187  0.7599  0.6699  0.1306
14040TIP3   OH263610   6.786   0.933   6.106  0.0726  0.5111 -0.2819
14040TIP3    H163611   6.781   0.942   6.011  1.9502  0.7915 -0.3959
14040TIP3    H263612   6.838   1.008   6.135 -1.2443  0.9404  1.0988
14041TIP3   OH263613   2.793   1.414  11.903 -0.8507 -0.2431 -0.8254
14041TIP3    H163614   2.804   1.324  11.933 -0.1934  0.6442  1.8680
14041TIP3    H263615   2.714   1.445  11.949  0.3721  1.2727  0.3742
14042TIP3   OH263616   3.472   1.661  13.574 -0.2126 -0.2284 -0.1120
14042TIP3    H163617   3.450   1.754  13.580 -2.5003 -0.6281 -1.0902
14042TIP3    H263618   3.525   1.643  13.652 -0.3224  1.7210  0.4580
14043TIP3   OH263619   1.588   5.815   5.115  0.3345  0.0062 -0.0154
14043TIP3    H163620   1.609   5.816   5.021 -1.8122  0.5300 -0.5425
14043TIP3    H263621   1.548   5.730   5.129  1.8893 -0.6402  0.7862
14044TIP3   OH263622   3.861   0.583  16.956 -0.3623  0.4804  0.2651
14044TIP3    H163623   3.885   0.496  16.926  0.9860  1.3411 -1.3465
14044TIP3    H263624   3.853   0.635  16.876 -0.1692  2.0519  1.2098
14045TIP3   OH263625   0.035   5.563  14.749 -0.0822 -0.7544 -1.5004
14045TIP3    H163626   0.059   5.470  14.741  0.5789 -0.6977 -0.4688
14045TIP3    H263627   0.116   5.605  14.779 -0.9789 -0.2485  0.3711
14046TIP3   OH263628   0.401   1.038   1.636  0.0452 -0.1982 -0.0674
14046TIP3    H163629   0.367   1.127   1.628 -0.1503 -0.1475  1.1011
14046TIP3    H263630   0.431   1.016   1.548  1.4496  1.5785 -0.1011
14047TIP3   OH263631   1.465   4.116   2.575  0.3361 -0.2551 -0.2921
14047TIP3    H163632   1.545   4.168   2.574  1.1715 -1.4798 -1.8921
14047TIP3    H263633   1.421   4.138   2.493 -0.9227  0.2853  0.4969
14048TIP3   OH263634   3.883   1.984   5.045 -0.0306 -0.0483  0.3458
14048TIP3    H163635   3.830   2.061   5.029  1.0195  0.4070 -1.2536
14048TIP3    H263636   3.945   2.011   5.113 -0.4872  0.1112  0.6955
14049TIP3   OH263637   3.174   2.011  11.087 -0.5263 -0.4360  0.2954
14049TIP3    H163638   3.201   1.940  11.146  0.7388 -0.8966 -0.7804
14049TIP3    H263639   3.158   1.967  11.003 -1.6443  0.2969  0.1059
14050TIP3   OH263640   3.729   5.722   3.410 -0.3587 -0.5836  0.0347
14050TIP3    H163641   3.713   5.664   3.336 -0.8211 -0.1393 -0.2247
14050TIP3    H263642   3.824   5.728   3.416 -0.2818  0.8527 -1.7239
14051TIP3   OH263643   6.602   6.759  14.246 -0.0064 -0.1318  0.1270
14051TIP3    H163644   6.668   6.717  14.191  0.2945  0.8773 -0.3150
14051TIP3    H263645   6.603   6.851  14.218  0.2850  0.4591  1.9475
14052TIP3   OH263646   1.706   2.544  12.491 -0.0653 -0.1630  0.2845
14052TIP3    H163647   1.714   2.566  12.398  1.0165 -1.3426  0.0680
14052TIP3    H263648   1.641   2.474  12.493  1.4461 -1.6602  0.0972
14053TIP3   OH263649   1.555   6.548  17.118  0.0610 -0.6611 -0.2794
14053TIP3    H163650   1.511   6.470  17.086  0.0982 -0.9515  0.3673
14053TIP3    H263651   1.591   6.589  17.039  0.0216 -1.2764 -0.6229
14054TIP3   OH263652   2.673   0.939   4.062 -0.4154  0.1709 -0.2237
14054TIP3    H163653   2.687   0.962   3.970 -2.8079 -0.3031 -0.7801
14054TIP3    H263654   2.598   0.879   4.060 -0.1391 -0.3340  2.0025
14055TIP3   OH263655   6.354   0.000   5.940  0.3711 -0.2270  0.0259
14055TIP3    H163656   6.286  -0.054   5.980 -1.2117  0.9807 -0.9138
14055TIP3    H263657   6.405   0.034   6.014  0.2727 -1.5500  0.7162
14056TIP3   OH263658   2.996   1.153  11.670  0.1514  0.0818  0.1056
14056TIP3    H163659   2.981   1.091  11.741  2.1551 -2.0852 -1.2332
14056TIP3    H263660   2.963   1.109  11.592  1.0379  0.9564 -0.7937
14057TIP3   OH263661   1.555   3.008   3.823  0.5726 -0.5418 -0.1059
14057TIP3    H163662   1.523   2.966   3.903  1.1777 -1.3496 -0.2731
14057TIP3    H263663   1.483   3.064   3.794 -1.1200 -3.0497 -1.0301
14058TIP3   OH263664   2.911   5.046  15.199 -0.2470  0.2497 -0.2052
14058TIP3    H163665   2.819   5.058  15.221 -0.0260  1.5864  0.0759
14058TIP3    H263666   2.955   5.121  15.238  0.8886 -0.0897 -0.7878
14059TIP3   OH263667   2.592   4.582   1.011 -0.0273  0.4693  0.3656
14059TIP3    H163668   2.515   4.622   0.969 -0.9607  0.2135  1.7346
14059TIP3    H263669   2.565   4.492   1.028  0.3303  0.5518  1.4219
14060TIP3   OH263670   3.662   2.097   4.521  0.4293 -0.0839  0.0584
14060TIP3    H163671   3.620   2.033   4.578  0.3276  0.1209  0.2111
14060TIP3    H263672   3.597   2.113   4.452  0.5482 -0.3233 -0.1092
14061TIP3   OH263673   4.486   2.932   1.012 -0.4729 -0.2101  0.2505
14061TIP3    H163674   4.524   3.014   1.043 -1.6400 -0.1100  1.5072
14061TIP3    H263675   4.419   2.959   0.950  1.4603 -0.3900 -2.0772
14062TIP3   OH263676   4.649   0.657  11.384 -0.2030  0.2050  0.3487
14062TIP3    H163677   4.698   0.737  11.405  0.5024  0.2505 -1.3135
14062TIP3    H263678   4.659   0.647  11.289 -0.7621 -1.5568  0.4419
14063TIP3   OH263679   4.884   5.886   3.475  0.4472 -0.3965  0.2851
14063TIP3    H163680   4.815   5.819   3.478 -1.3080  1.3037 -0.0228
14063TIP3    H263681   4.838   5.969   3.490  1.8841  1.1800 -2.8991
14064TIP3   OH263682   2.225   3.764  15.329 -0.1837 -0.2178 -0.5885
14064TIP3    H163683   2.204   3.792  15.240  0.3290  0.1338 -0.6055
14064TIP3    H263684   2.190   3.834  15.385 -1.5174 -0.9846 -0.4255
14065TIP3   OH263685   5.530   6.079  13.975  0.1387 -0.1985 -0.0336
14065TIP3    H163686   5.603   6.076  13.913 -0.1919  1.9802 -0.5906
14065TIP3    H263687   5.569   6.050  14.058  0.1952 -4.9164 -1.4016
14066TIP3   OH263688   0.054   4.578   3.994 -0.3599 -0.2662 -0.0646
14066TIP3    H163689   0.130   4.584   4.052 -0.6551  1.6849  0.1875
14066TIP3    H263690   0.089   4.596   3.907 -0.4615  0.2786  0.0031
14067TIP3   OH263691   0.437   4.717   0.315  0.2368  0.1657 -0.0318
14067TIP3    H163692   0.399   4.634   0.287 -2.3262  0.3459  2.4469
14067TIP3    H263693   0.463   4.760   0.234 -1.0648 -1.8234 -1.5902
14068TIP3   OH263694   6.705   6.250   1.812 -0.0553 -0.3095  0.7757
14068TIP3    H163695   6.757   6.316   1.767  0.0381 -0.6200  0.4260
14068TIP3    H263696   6.764   6.175   1.821 -0.7070 -1.0153 -0.4755
14069TIP3   OH263697   1.222   1.615   6.181 -0.3099 -0.3292  0.4642
14069TIP3    H163698   1.311   1.588   6.159 -0.7548 -0.0806 -1.9514
14069TIP3    H263699   1.193   1.552   6.247  1.8846  0.0823  1.9407
14070TIP3   OH263700   2.369   4.322  13.580 -0.0324  0.1238 -0.1955
14070TIP3    H163701   2.406   4.392  13.526  0.5211 -0.2743 -0.3397
14070TIP3    H263702   2.308   4.276  13.521 -1.2712  1.1802  0.2298
14071TIP3   OH263703   0.628   4.759  14.357  0.0306 -0.5819 -0.6095
14071TIP3    H163704   0.648   4.803  14.275  0.3366 -2.1746 -1.4245
14071TIP3    H263705   0.600   4.671  14.332 -1.8983 -0.4767  0.8849
14072TIP3   OH263706   2.800   3.012  16.336 -0.0754  0.1848  0.0368
14072TIP3    H163707   2.835   3.028  16.248  0.7797  0.1610  0.3621
14072TIP3    H263708   2.705   3.023  16.327 -0.1329 -1.1275 -1.1754
14073TIP3   OH263709   4.983   0.500   4.445  0.1952 -0.4172  0.2983
14073TIP3    H163710   5.019   0.427   4.495  0.9918 -0.1917  0.0604
14073TIP3    H263711   4.928   0.459   4.378  0.6887 -0.8009  0.1245
14074TIP3   OH263712   1.413   1.503   3.652  0.0690 -0.3012 -0.6354
14074TIP3    H163713   1.373   1.460   3.577 -0.4205  0.2442 -0.6987
14074TIP3    H263714   1.379   1.457   3.728  1.6467 -1.7670 -0.7619
14075TIP3   OH263715   6.528   3.185  14.512 -0.7134 -0.5580 -0.6030
14075TIP3    H163716   6.437   3.159  14.524 -1.1543  0.9777 -0.3437
14075TIP3    H263717   6.577   3.133  14.576 -1.6719 -0.0906  0.5574
14076TIP3   OH263718   3.752   1.123  11.674 -0.1900 -0.0109  0.5816
14076TIP3    H163719   3.707   1.042  11.651  1.2076 -1.0380  1.2737
14076TIP3    H263720   3.840   1.112  11.636 -0.4009  1.8207 -0.5502
14077TIP3   OH263721   0.457   6.469   5.120 -0.2858  0.0193  0.6527
14077TIP3    H163722   0.456   6.391   5.175 -1.1289 -0.9510 -0.6883
14077TIP3    H263723   0.373   6.470   5.076  0.5455  0.4465 -1.0310
14078TIP3   OH263724   2.364   5.037  16.124  0.3896  0.1798  0.6368
14078TIP3    H163725   2.278   5.059  16.089  0.6270 -0.5036 -0.4189
14078TIP3    H263726   2.358   5.057  16.218 -0.7430  0.6210  0.4824
14079TIP3   OH263727   3.218   1.719   4.239  0.7017  0.1863  0.2129
14079TIP3    H163728   3.265   1.725   4.322  0.3320 -1.8756  0.6208
14079TIP3    H263729   3.281   1.680   4.178 -0.3814 -2.7453  0.8035
14080TIP3   OH263730   2.994   6.427   4.832  0.4528  0.0979 -0.2664
14080TIP3    H163731   3.008   6.482   4.909 -1.8692  2.0459 -1.1229
14080TIP3    H263732   3.009   6.338   4.864  1.2298  0.9507  1.9822
14081TIP3   OH263733   0.111   6.471   2.265  0.3146  0.4243 -0.0424
14081TIP3    H163734   0.043   6.450   2.201 -0.1542  2.1210 -0.1423
14081TIP3    H263735   0.071   6.535   2.323  2.2055  2.5657 -0.9420
14082TIP3   OH263736   3.184   1.818   4.889 -0.0926 -0.2576  0.3394
14082TIP3    H163737   3.235   1.766   4.951  0.2395  0.1713  0.4267
14082TIP3    H263738   3.243   1.887   4.861 -0.1629 -0.5858 -0.6470
14083TIP3   OH263739   4.892   5.159  16.869  0.5183  0.1215 -0.4031
14083TIP3    H163740   4.900   5.253  16.853 -0.6077 -0.0933 -2.8030
14083TIP3    H263741   4.811   5.149  16.919  0.7054  0.4265 -0.0366
14084TIP3   OH263742   6.281   6.650  12.489  0.1661 -0.7057 -0.2227
14084TIP3    H163743   6.272   6.572  12.543 -1.5171  0.1523  0.7965
14084TIP3    H263744   6.357   6.632  12.434  0.9440 -2.2849  1.2806
14085TIP3   OH263745   4.913   0.323  13.351  0.3014 -0.5588 -0.3579
14085TIP3    H163746   4.914   0.329  13.447 -1.0004 -0.7096 -0.3246
14085TIP3    H263747   4.920   0.413  13.321 -1.5564 -0.2820 -0.0718
14086TIP3   OH263748   6.555   2.124   0.950 -0.1336  0.1344 -0.0573
14086TIP3    H163749   6.556   2.219   0.935 -1.2733  0.2202  0.2973
14086TIP3    H263750   6.463   2.100   0.941  0.2716 -1.1156 -1.1226
14087TIP3   OH263751   2.388   4.664   2.490  0.5238 -0.0921 -0.4304
14087TIP3    H163752   2.328   4.598   2.527  0.9764 -0.0038  0.4924
14087TIP3    H263753   2.341   4.699   2.415 -1.0511  0.7033  0.8499
14088TIP3   OH263754   4.421   5.063  15.447 -0.4566  0.3800  0.1397
14088TIP3    H163755   4.410   4.968  15.456  3.1215 -0.5541 -2.8079
14088TIP3    H263756   4.466   5.090  15.527  0.5388 -0.9339  0.0634
14089TIP3   OH263757   4.138   0.494  11.405  0.2932 -0.6060  0.7645
14089TIP3    H163758   4.101   0.566  11.353 -0.2287 -1.4654 -0.0895
14089TIP3    H263759   4.113   0.514  11.495 -1.5761 -0.7485  0.3021
14090TIP3   OH263760   4.437   2.668   5.547 -0.1878 -0.1519  0.9999
14090TIP3    H163761   4.463   2.583   5.513  0.4207  0.0921  0.8381
14090TIP3    H263762   4.415   2.720   5.469 -3.3983 -1.0038  1.1720
14091TIP3   OH263763   4.968   0.047   1.099  0.6525  0.0148 -0.4218
14091TIP3    H163764   5.060   0.053   1.074  0.8592  0.3594  0.3669
14091TIP3    H263765   4.955  -0.045   1.122  1.2419  0.2543  0.9965
14092TIP3   OH263766   3.407   2.213  11.839  0.3475  0.0391  0.2854
14092TIP3    H163767   3.319   2.179  11.853  0.1941 -0.2442 -1.2009
14092TIP3    H263768   3.463   2.135  11.835  0.1626 -0.0554 -1.9704
14093TIP3   OH263769   2.145   1.424  10.624  0.2914 -0.1053 -0.9275
14093TIP3    H163770   2.202   1.484  10.575 -0.7670  0.5218 -1.4199
14093TIP3    H263771   2.205   1.359  10.660  1.6146  1.6906  0.3525
14094TIP3   OH263772   2.178   3.864   0.632 -0.2130  0.0204 -0.0047
14094TIP3    H163773   2.176   3.951   0.672 -0.1334  0.0682 -0.1031
14094TIP3    H263774   2.271   3.839   0.635 -0.1484  0.1979 -0.5340
14095TIP3   OH263775   6.636   5.351   4.489  0.2674 -0.3736  0.8326
14095TIP3    H163776   6.647   5.256   4.479 -1.0830 -0.5904  1.2935
14095TIP3    H263777   6.635   5.365   4.583 -2.8930 -0.3719  0.8924
14096TIP3   OH263778   2.227   2.625   5.158  0.4628  0.0538 -0.4341
14096TIP3    H163779   2.236   2.597   5.067 -0.1149 -0.5353 -0.3163
14096TIP3    H263780   2.237   2.545   5.209  2.5106  0.6131  0.1461
14097TIP3   OH263781   4.555   5.250   5.950 -0.1235  0.7339 -0.4984
14097TIP3    H163782   4.559   5.208   6.036  0.3760  1.2674 -0.2539
14097TIP3    H263783   4.600   5.334   5.962 -1.2391  1.4188 -0.9258
14098TIP3   OH263784   3.055   1.139  13.378  0.0210  0.3928  0.0647
14098TIP3    H163785   2.969   1.134  13.419  0.2329 -2.0700  0.3574
14098TIP3    H263786   3.079   1.232  13.381 -0.8246  0.6116  3.7087
14099TIP3   OH263787   6.376   2.671  15.881 -0.3052 -0.6150  0.0032
14099TIP3    H163788   6.313   2.742  15.891  0.6520  0.1928  0.5106
14099TIP3    H263789   6.428   2.695  15.805 -0.0528 -0.8302  0.1047
14100TIP3   OH263790   3.869   1.911   4.246  0.0649 -0.3317 -0.1104
14100TIP3    H163791   3.919   1.835   4.215 -0.0381 -0.0896 -0.9024
14100TIP3    H263792   3.807   1.875   4.309  2.1639 -0.4709  2.0329
14101TIP3   OH263793   3.955   0.875   4.940 -0.0917  0.1041  0.6812
14101TIP3    H163794   3.975   0.794   4.987  2.4482 -0.0562 -0.4937
14101TIP3    H263795   3.885   0.851   4.880 -0.3677 -0.8317  1.3550
14102TIP3   OH263796   4.482   4.348  15.929  0.2546  0.6317  0.3256
14102TIP3    H163797   4.562   4.299  15.950 -0.1234  0.7742  2.3407
14102TIP3    H263798   4.466   4.330  15.837  1.6406 -0.8174  0.3209
14103TIP3   OH263799   1.234   5.606  14.747  0.7622 -0.3041 -0.2746
14103TIP3    H163800   1.250   5.617  14.840 -1.0756 -2.6293  0.4071
14103TIP3    H263801   1.321   5.609  14.707  1.5081  1.7184  1.3324
14104TIP3   OH263802   1.555   6.107   6.466 -0.1966 -0.4265  0.1250
14104TIP3    H163803   1.613   6.061   6.525 -1.1895  0.4203  1.8364
14104TIP3    H263804   1.482   6.136   6.521 -1.0731  0.5728 -1.4703
14105TIP3   OH263805   3.279   1.843  13.791  0.6120 -0.3342  0.0085
14105TIP3    H163806   3.191   1.861  13.823  1.1251  1.1956  0.6427
14105TIP3    H263807   3.282   1.884  13.705  0.6598 -0.5305 -0.0852
14106TIP3   OH263808   5.170   2.577  16.612 -0.4639 -0.2419  0.2484
14106TIP3    H163809   5.265   2.566  16.612 -0.3975  0.2814  0.5730
14106TIP3    H263810   5.139   2.517  16.680 -0.2391  0.5081  1.0293
14107TIP3   OH263811   0.016   0.543  15.184  0.0287 -0.2454 -0.2675
14107TIP3    H163812  -0.076   0.552  15.210  0.3902  2.7497  0.3711
14107TIP3    H263813   0.014   0.484  15.109 -2.1786 -1.5908  0.7499
14108TIP3   OH263814   3.803   5.513  12.991 -0.1966 -0.0919 -0.3033
14108TIP3    H163815   3.802   5.567  12.912  1.4976 -0.9607 -0.9905
14108TIP3    H263816   3.830   5.426  12.960  1.1269 -0.3031  1.2693
14109TIP3   OH263817   0.855   6.170   0.959  0.0091 -0.0078 -0.5540
14109TIP3    H163818   0.852   6.138   0.868 -1.8453  1.7200 -1.1575
14109TIP3    H263819   0.808   6.103   1.009  0.3771 -0.6016 -0.9857
14110TIP3   OH263820   2.965   5.436   3.952  0.4156 -0.1779 -0.2779
14110TIP3    H163821   2.933   5.468   3.867  0.9128 -1.1745 -0.8523
14110TIP3    H263822   2.885   5.424   4.004  0.1675  1.3889 -0.2336
14111TIP3   OH263823   2.962   5.721   0.120 -0.6810  0.5536 -0.1675
14111TIP3    H163824   2.943   5.636   0.082 -0.6670  1.2168 -1.7572
14111TIP3    H263825   2.876   5.758   0.142 -0.8470  0.8875 -1.2832
14112TIP3   OH263826   4.424   6.216   1.847 -0.9084 -0.0785 -0.1189
14112TIP3    H163827   4.392   6.253   1.930 -3.0285 -1.0064 -0.4444
14112TIP3    H263828   4.443   6.292   1.792  0.6781  0.5622  1.2175
14113TIP3   OH263829   0.104   0.777  17.061  0.0621 -0.3084 -0.2150
14113TIP3    H163830   0.175   0.744  17.116 -0.4548 -1.6325 -0.3038
14113TIP3    H263831   0.133   0.865  17.035 -0.0567  0.7614  2.8480
14114TIP3   OH263832   4.901   0.551  16.245  0.2565  0.2093  0.2967
14114TIP3    H163833   4.844   0.513  16.178 -0.9456 -0.7053  1.7609
14114TIP3    H263834   4.948   0.477  16.282  1.0852  0.7316  0.3165
14115TIP3   OH263835   3.614   3.813  12.406 -0.6506  0.4880  0.0690
14115TIP3    H163836   3.566   3.892  12.381 -2.1621 -0.1557  0.8074
14115TIP3    H263837   3.564   3.741  12.367 -0.9969 -0.2853  1.8529
14116TIP3   OH263838   5.317   0.665   0.079  0.0701 -0.5257  0.6402
14116TIP3    H163839   5.343   0.614   0.003 -0.3314  1.1733 -0.7178
14116TIP3    H263840   5.384   0.733   0.085 -0.8020  0.3513  0.7439
14117TIP3   OH263841   2.451   5.810  15.069 -0.0298  0.2777  0.3127
14117TIP3    H163842   2.466   5.904  15.072 -0.0149  0.3258 -0.9174
14117TIP3    H263843   2.480   5.783  14.982 -0.6264 -0.7686  0.4135
14118TIP3   OH263844   0.474   0.999  12.757  0.3459 -0.1114  0.0076
14118TIP3    H163845   0.490   1.093  12.746  0.4014  0.0457  1.2337
14118TIP3    H263846   0.528   0.975  12.832  0.3812 -1.1434 -0.3383
14119TIP3   OH263847   1.139   1.430   5.503  0.7048  0.3798 -0.2363
14119TIP3    H163848   1.112   1.510   5.548  0.1238 -0.5882  1.2041
14119TIP3    H263849   1.060   1.402   5.455 -0.0668 -0.9042  1.6746
14120TIP3   OH263850   6.804   3.036  17.143 -0.3570  0.1726  0.0908
14120TIP3    H163851   6.782   3.115  17.093  1.6651  0.5690 -0.2381
14120TIP3    H263852   6.806   3.065  17.234 -0.1372  0.3756  0.0215
14121TIP3   OH263853   3.290   4.031  13.627 -0.0203 -0.3071 -0.1283
14121TIP3    H163854   3.234   4.056  13.700  1.5740 -0.4895  1.2175
14121TIP3    H263855   3.263   4.088  13.555  0.2040  1.8621  1.4093
14122TIP3   OH263856   3.974   6.376   2.582 -0.0407  0.2203  0.0602
14122TIP3    H163857   3.968   6.396   2.488  1.4188  2.3618  0.3479
14122TIP3    H263858   3.968   6.461   2.625 -2.7435 -0.8671  2.1273
14123TIP3   OH263859   1.636   6.170  13.202 -0.1154  0.0913 -0.4322
14123TIP3    H163860   1.592   6.157  13.118 -2.5373  0.8319  0.6178
14123TIP3    H263861   1.678   6.086  13.221 -0.4720 -0.4334 -1.8417
14124TIP3   OH263862   1.934   2.663  11.291  0.4366  0.9081  0.3050
14124TIP3    H163863   1.972   2.702  11.212 -0.1280  0.5367 -0.1509
14124TIP3    H263864   1.841   2.657  11.273  0.1575  1.6802  1.3709
14125TIP3   OH263865   4.670   4.713   3.753 -0.2622 -0.3011  0.6155
14125TIP3    H163866   4.678   4.717   3.657 -1.4692 -0.4355  0.4902
14125TIP3    H263867   4.578   4.692   3.768  0.2562 -1.9545  1.7710
14126TIP3   OH263868   3.270   4.520  13.416 -0.5340  0.1014  0.3062
14126TIP3    H163869   3.227   4.521  13.330 -0.5863 -1.4922  0.2773
14126TIP3    H263870   3.198   4.530  13.478 -0.5891  0.4810  0.1815
14127TIP3   OH263871   3.126   5.124   2.762  0.8004  0.1342  0.7942
14127TIP3    H163872   3.031   5.140   2.765  0.1428 -2.5691 -1.4847
14127TIP3    H263873   3.162   5.206   2.728 -1.0317  0.5496 -0.3356
14128TIP3   OH263874   1.607   6.642  12.593  0.1627 -1.2012 -0.1682
14128TIP3    H163875   1.552   6.713  12.628  0.9048 -0.3083 -0.7640
14128TIP3    H263876   1.546   6.588  12.542  0.0618  0.8078 -2.3689
14129TIP3   OH263877   6.727   1.802  11.100 -0.2607  0.0718  0.0986
14129TIP3    H163878   6.763   1.725  11.056  0.8793 -0.5528  2.0411
14129TIP3    H263879   6.634   1.803  11.075  0.2440 -0.3935 -2.0350
14130TIP3   OH263880   6.161   1.795  13.095 -0.3351 -0.2791  0.0698
14130TIP3    H163881   6.141   1.747  13.014  0.2218  0.8916 -0.7887
14130TIP3    H263882   6.075   1.813  13.133 -0.5788 -1.4460  0.1220
14131TIP3   OH263883   0.270   4.588   4.252  0.2575 -0.1004 -0.2903
14131TIP3    H163884   0.295   4.499   4.277 -0.0803 -0.3307 -0.7678
14131TIP3    H263885   0.352   4.637   4.252  0.5347 -0.5646 -0.6473
14132TIP3   OH263886   2.818   2.933  14.878 -0.5240 -0.2055  0.1878
14132TIP3    H163887   2.894   2.939  14.935 -0.2811  0.2300 -0.1756
14132TIP3    H263888   2.848   2.965  14.793 -1.0044 -0.4072 -0.0663
14133TIP3   OH263889   1.386   3.997   4.554  0.0851 -0.0468  0.0734
14133TIP3    H163890   1.351   4.086   4.543 -0.1976 -0.2152 -0.4222
14133TIP3    H263891   1.464   3.995   4.498 -1.5505 -1.0159 -2.3362
14134TIP3   OH263892   3.325   1.900   2.145 -0.5575 -0.1382 -0.4522
14134TIP3    H163893   3.265   1.838   2.101 -1.5507 -0.4058  1.2020
14134TIP3    H263894   3.391   1.845   2.186 -0.2836  0.0449 -0.6406
14135TIP3   OH263895   1.923   3.146   1.931 -0.3922 -0.6592  0.0859
14135TIP3    H163896   1.997   3.176   1.984 -0.9835 -0.0538  0.5876
14135TIP3    H263897   1.926   3.202   1.853 -0.9894  0.1714  0.6345
14136TIP3   OH263898   0.666   0.563  15.062  0.0681 -0.3806 -0.2572
14136TIP3    H163899   0.755   0.597  15.047  0.2760 -1.2192 -1.0390
14136TIP3    H263900   0.680   0.470  15.082 -0.5530 -0.2453  0.8564
14137TIP3   OH263901   0.551   0.630  10.583 -0.8251 -0.7261 -0.9408
14137TIP3    H163902   0.517   0.675  10.505 -2.4634 -1.2213 -0.5415
14137TIP3    H263903   0.542   0.694  10.653 -1.4402 -1.0257 -0.7372
14138TIP3   OH263904   6.585   5.404   4.737  0.5542  0.1433  0.0221
14138TIP3    H163905   6.661   5.444   4.778  0.7882 -1.0487  0.8041
14138TIP3    H263906   6.524   5.476   4.721  2.4334  1.4021 -2.0514
14139TIP3   OH263907   3.659   4.871  14.447  0.0306 -0.3970 -0.2216
14139TIP3    H163908   3.676   4.865  14.353 -0.9434 -0.6510 -0.3968
14139TIP3    H263909   3.685   4.960  14.470  2.6012 -1.0769 -0.2101
14140TIP3   OH263910   6.688   0.004  14.560  0.0222  0.2538  0.5547
14140TIP3    H163911   6.722   0.012  14.472  2.6072 -1.2526  1.3019
14140TIP3    H263912   6.678   0.094  14.591  0.8837  0.7839 -0.6310
14141TIP3   OH263913   5.377   3.540   6.350 -0.1893 -0.4487 -0.0407
14141TIP3    H163914   5.442   3.571   6.413  0.7921 -1.2681 -0.6256
14141TIP3    H263915   5.313   3.493   6.403 -1.6850  2.4051  0.8642
14142TIP3   OH263916   3.182   6.743   3.549  0.5491  0.5667 -0.2220
14142TIP3    H163917   3.255   6.743   3.611  0.6704  2.0921 -0.3283
14142TIP3    H263918   3.113   6.694   3.594  1.2172  0.1514  0.3802
14143TIP3   OH263919   5.088   2.846   0.639 -0.3237 -1.0968  0.5219
14143TIP3    H163920   5.075   2.830   0.732  0.2470  1.2718  1.0681
14143TIP3    H263921   5.172   2.892   0.633 -0.2061 -1.4540 -1.1914
14144TIP3   OH263922   4.059   3.113  10.952  0.3600  0.1581  0.3613
14144TIP3    H163923   4.132   3.090  11.009  2.6561  0.3305 -2.3042
14144TIP3    H263924   4.031   3.199  10.983  0.4281 -0.4274  2.1838
14145TIP3   OH263925   0.138   3.413   2.479  1.0278 -0.0379  0.5595
14145TIP3    H163926   0.160   3.351   2.409  1.9835  0.3203  0.5286
14145TIP3    H263927   0.067   3.370   2.527 -0.1220 -0.0018 -1.0061
14146TIP3   OH263928   4.662   0.521  11.082  0.2716 -0.1734 -0.4802
14146TIP3    H163929   4.683   0.558  10.996  2.0613  1.2248  0.4595
14146TIP3    H263930   4.569   0.539  11.094 -0.1736 -0.9822 -2.3594
14147TIP3   OH263931   6.396   1.097   3.094 -0.2610 -0.2100  0.0324
14147TIP3    H163932   6.305   1.122   3.079 -0.0829  0.7361  0.4514
14147TIP3    H263933   6.432   1.169   3.146  0.6173 -0.7662  0.2104
14148TIP3   OH263934   1.743   4.547   5.767  0.6907  0.6014 -0.2136
14148TIP3    H163935   1.677   4.478   5.775  1.5089 -0.2275 -0.4751
14148TIP3    H263936   1.754   4.581   5.856 -0.4155  1.0666 -0.2439
14149TIP3   OH263937   3.608   4.211  11.318  0.0619 -0.1264 -0.2038
14149TIP3    H163938   3.669   4.171  11.257  1.5371 -0.3394  1.3256
14149TIP3    H263939   3.589   4.142  11.382  0.1783  0.6680  0.7156
14150TIP3   OH263940   4.345   2.896  14.839 -0.2769 -0.0823 -0.1232
14150TIP3    H163941   4.277   2.861  14.896  0.4773 -0.6539  0.4494
14150TIP3    H263942   4.382   2.970  14.888  1.1523 -1.2838  0.6797
14151TIP3   OH263943   0.373   2.627   5.065  0.2680 -0.0290  0.2373
14151TIP3    H163944   0.357   2.577   4.985 -1.8122 -1.3308  1.3933
14151TIP3    H263945   0.462   2.603   5.091  0.7152 -0.1109 -1.2750
14152TIP3   OH263946   2.859   2.112  12.514  0.5494 -0.1583 -0.1447
14152TIP3    H163947   2.805   2.037  12.536  0.4852  0.7113  3.1111
14152TIP3    H263948   2.901   2.087  12.431 -2.4085 -2.0916 -1.2298
14153TIP3   OH263949   0.073   6.628  14.495 -0.5774 -0.2822  0.0354
14153TIP3    H163950   0.137   6.570  14.536  2.2287  1.4160 -1.5772
14153TIP3    H263951   0.044   6.686  14.566  0.9544 -0.0810  0.5480
14154TIP3   OH263952   6.092   3.103  16.434 -0.3244 -0.3114  0.0753
14154TIP3    H163953   6.071   3.087  16.526 -0.5426 -0.4368  0.0052
14154TIP3    H263954   6.081   3.198  16.423  0.3234 -0.2039  0.3286
14155TIP3   OH263955   5.665   1.743  17.111 -0.3181  0.1411 -0.3030
14155TIP3    H163956   5.638   1.826  17.151 -0.7016  0.1598 -0.5916
14155TIP3    H263957   5.709   1.769  17.030  2.2059  0.2144  0.9897
14156TIP3   OH263958   0.463   5.388  15.342  0.4851 -0.3317 -0.4325
14156TIP3    H163959   0.421   5.473  15.328  0.5883 -0.2977 -0.5306
14156TIP3    H263960   0.557   5.407  15.342  0.4865 -0.1184  1.6096
14157TIP3   OH263961   3.117   0.013  13.218  0.9149  0.3517  0.1662
14157TIP3    H163962   3.104  -0.074  13.180  2.9309 -0.5232  1.3076
14157TIP3    H263963   3.176   0.057  13.156  0.1540  0.7983 -0.2481
14158TIP3   OH263964   3.378   0.684  13.851 -0.0555  0.0724  0.1169
14158TIP3    H163965   3.356   0.746  13.920 -0.1431 -0.0688  0.2154
14158TIP3    H263966   3.474   0.682  13.850 -0.0513 -0.8114  1.0316
14159TIP3   OH263967   1.039   2.120   2.721 -0.6707  0.5965 -0.3756
14159TIP3    H163968   1.053   2.214   2.733 -2.3639  0.9500 -0.8105
14159TIP3    H263969   1.120   2.088   2.683 -0.0373  1.8708 -0.1684
14160TIP3   OH263970   5.367   5.797  13.882 -0.2225  0.0388  0.1833
14160TIP3    H163971   5.351   5.813  13.975  0.6945 -0.0070  0.3568
14160TIP3    H263972   5.459   5.822  13.868  0.5920 -2.7205 -0.0383
14161TIP3   OH263973   0.072   3.394   3.933 -0.3235  0.4048  0.4270
14161TIP3    H163974   0.119   3.311   3.924  1.0052  1.0992  0.6702
14161TIP3    H263975   0.062   3.426   3.844  1.5096  1.2019  0.4545
14162TIP3   OH263976   2.144   2.896  15.372  0.5627  0.0166  0.0835
14162TIP3    H163977   2.092   2.850  15.306 -1.1060 -0.2682  1.5266
14162TIP3    H263978   2.151   2.835  15.445  2.5812  0.2372  0.1450
14163TIP3   OH263979   1.298   4.449   3.261  0.3209  0.1338  0.2586
14163TIP3    H163980   1.306   4.358   3.292  0.0272 -0.5076 -1.4393
14163TIP3    H263981   1.259   4.441   3.174  0.8662  1.8678 -0.1745
14164TIP3   OH263982   6.534   2.618   3.316 -0.5652  0.3334  0.0245
14164TIP3    H163983   6.526   2.664   3.232 -2.1614 -1.4616 -0.8936
14164TIP3    H263984   6.605   2.556   3.302  0.7434  1.5863  0.8425
14165TIP3   OH263985   6.569   2.839   1.972 -0.2642  0.3780 -0.0438
14165TIP3    H163986   6.602   2.751   1.956  0.5912  0.6243  0.3268
14165TIP3    H263987   6.530   2.834   2.059  1.5158  0.8277  0.8193
14166TIP3   OH263988   0.391   3.443  15.424 -0.1764 -0.0956  0.4088
14166TIP3    H163989   0.382   3.365  15.370 -0.9326  1.3908 -1.7983
14166TIP3    H263990   0.484   3.450  15.442 -0.0248 -1.1458  0.0843
14167TIP3   OH263991   4.983   2.430  15.196 -0.7046 -0.2659 -0.0199
14167TIP3    H163992   4.917   2.486  15.236 -0.5959 -0.2730  0.1762
14167TIP3    H263993   5.040   2.405  15.269 -0.3383 -0.0515 -0.2295
14168TIP3   OH263994   0.401   1.862   6.286  0.1845  0.3785  0.1289
14168TIP3    H163995   0.344   1.868   6.209  0.4817  1.0420 -0.0551
14168TIP3    H263996   0.375   1.781   6.329  1.8105 -1.5044 -2.1296
14169TIP3   OH263997   0.089   1.496  14.612 -0.0330 -0.0672  0.4312
14169TIP3    H163998   0.155   1.447  14.661  0.9350  0.5497 -0.2080
14169TIP3    H263999   0.091   1.458  14.524  0.1166  0.5324  0.1679
14170TIP3   OH264000   0.327   1.627   6.497 -0.0279  0.6073  0.6225
14170TIP3    H164001   0.402   1.595   6.547  1.6430  1.1908 -1.3980
14170TIP3    H264002   0.275   1.548   6.479  0.2219  0.1549  1.7632
14171TIP3   OH264003   4.328   6.724  13.746 -0.3548  0.4259 -0.3192
14171TIP3    H164004   4.233   6.731  13.754 -0.4804 -0.8368 -0.5954
14171TIP3    H264005   4.346   6.630  13.745  1.0301  0.6228  1.1580
14172TIP3   OH264006   5.941   3.819  10.993  0.0993  0.4463 -0.2507
14172TIP3    H164007   6.010   3.830  10.927 -0.1575 -1.5364 -0.9170
14172TIP3    H264008   5.884   3.751  10.957 -0.2273 -0.4846  1.8705
14173TIP3   OH264009   0.403   1.279  13.070  0.3180  0.3622  0.2161
14173TIP3    H164010   0.389   1.259  12.978 -0.9332  1.9022  0.0241
14173TIP3    H264011   0.497   1.294  13.078  0.5770 -0.7630 -0.5847
14174TIP3   OH264012   2.318   6.678   1.019 -0.4958 -0.0688  0.3409
14174TIP3    H164013   2.356   6.748   1.072  1.4813 -0.9359  0.1662
14174TIP3    H264014   2.297   6.721   0.936  0.4345  0.4030  0.3290
14175TIP3   OH264015   6.111   4.326   4.829  0.0383 -0.1404 -0.4829
14175TIP3    H164016   6.048   4.256   4.849  1.2245 -0.7104  1.5800
14175TIP3    H264017   6.133   4.312   4.737 -0.8766 -1.5498 -0.5225
14176TIP3   OH264018   5.443   5.933  12.490 -0.6093  0.3015  0.5578
14176TIP3    H164019   5.358   5.941  12.533  0.0610  0.3769  1.9434
14176TIP3    H264020   5.427   5.880  12.413 -1.9841  0.6775  0.5683
14177TIP3   OH264021   4.705   3.103  10.597 -0.4261 -0.1977  0.7040
14177TIP3    H164022   4.796   3.122  10.575  0.1439 -3.1322  0.1293
14177TIP3    H264023   4.657   3.182  10.573  1.5545  0.3552 -1.7819
14178TIP3   OH264024   1.585   6.204  17.239  0.9845  0.2976  0.3479
14178TIP3    H164025   1.522   6.181  17.171  0.9917 -0.7207  0.6719
14178TIP3    H264026   1.534   6.248  17.306  0.9381  1.1021 -0.2081
14179TIP3   OH264027   3.425   2.651  10.474 -0.2456 -0.1938  0.2184
14179TIP3    H164028   3.344   2.609  10.503 -0.2939  0.7644  1.5492
14179TIP3    H264029   3.397   2.735  10.437 -0.1516 -1.2350 -2.4404
14180TIP3   OH264030   0.590   5.676   3.934 -0.1536  0.3497  0.2917
14180TIP3    H164031   0.641   5.638   4.006 -0.6632  1.2314  1.1565
14180TIP3    H264032   0.505   5.695   3.973 -0.7246  0.0742 -0.7851
14181TIP3   OH264033   3.936   1.607   0.108 -0.1982 -0.0153  0.5423
14181TIP3    H164034   3.878   1.534   0.087  0.2598 -0.8113  1.9401
14181TIP3    H264035   3.885   1.685   0.086 -0.2787 -0.6959 -2.1393
14182TIP3   OH264036   0.510   2.163  14.844  0.4146  0.6398 -0.3119
14182TIP3    H164037   0.507   2.234  14.909  3.0798  0.2584  0.3394
14182TIP3    H264038   0.525   2.084  14.895 -0.0266 -0.0542 -1.2246
14183TIP3   OH264039   4.489   2.525  12.042  0.4786 -1.0209  0.3014
14183TIP3    H164040   4.547   2.488  11.975  0.8144 -2.0858  1.1292
14183TIP3    H264041   4.549   2.548  12.114  0.2266  0.8738 -0.0603
14184TIP3   OH264042   3.911   1.367   6.471  0.1896 -0.0528 -0.1403
14184TIP3    H164043   3.825   1.347   6.508  0.9614 -0.9102  1.2620
14184TIP3    H264044   3.943   1.283   6.439  1.2171 -0.0746  0.9107
14185TIP3   OH264045   5.212   4.932  16.170  0.2754  0.1884 -0.6754
14185TIP3    H164046   5.189   4.863  16.108  0.7602 -0.5353 -0.0613
14185TIP3    H264047   5.307   4.922  16.183 -0.1449 -1.2149  1.9654
14186TIP3   OH264048   4.771   1.196   4.059 -0.2211 -0.5156  0.4556
14186TIP3    H164049   4.787   1.220   4.150 -0.5946  0.2496  0.3252
14186TIP3    H264050   4.675   1.191   4.052 -0.1819 -2.5150  0.5864
14187TIP3   OH264051   5.388   6.665  12.142  0.0592 -0.4883  0.2123
14187TIP3    H164052   5.445   6.742  12.145  0.9385 -1.1253 -0.0000
14187TIP3    H264053   5.342   6.672  12.058  2.8318 -2.0641 -1.5661
14188TIP3   OH264054   0.097   4.675   3.259 -0.2886  0.1395  0.1585
14188TIP3    H164055   0.069   4.760   3.291  0.5298  0.6792 -0.5152
14188TIP3    H264056   0.178   4.692   3.212  0.2532 -1.1174  0.5847
14189TIP3   OH264057   1.489   5.686   4.754 -0.4589  0.1132  0.2865
14189TIP3    H164058   1.454   5.610   4.800 -0.6392  0.5131  0.8207
14189TIP3    H264059   1.426   5.702   4.684  0.5853 -1.4015 -1.0703
14190TIP3   OH264060   2.371   3.670  12.131 -0.1737  0.6120 -0.7354
14190TIP3    H164061   2.435   3.736  12.156  0.7128 -0.3344 -0.4392
14190TIP3    H264062   2.348   3.692  12.041  1.3992  0.3371 -1.2328
14191TIP3   OH264063   5.634   1.814   5.096 -0.2020  0.1061  0.2758
14191TIP3    H164064   5.607   1.886   5.153  1.4102  0.9190  0.0736
14191TIP3    H264065   5.684   1.856   5.026  0.9774 -1.2122  0.2822
14192TIP3   OH264066   3.773   6.569  15.956 -0.6571 -0.0398  0.2932
14192TIP3    H164067   3.788   6.657  15.989  0.7996  0.6600 -2.0571
14192TIP3    H264068   3.857   6.525  15.964 -0.1611  0.2257 -2.4889
14193TIP3   OH264069   4.841   2.084   2.677  0.8301  0.0016 -0.0893
14193TIP3    H164070   4.872   2.171   2.654  0.8144 -0.1274 -0.6107
14193TIP3    H264071   4.916   2.026   2.660  1.2064  0.0429  1.2922
14194TIP3   OH264072   2.055   3.435  10.436 -0.1391 -0.4406  0.1424
14194TIP3    H164073   2.006   3.411  10.357 -0.4511 -0.4304  0.3304
14194TIP3    H264074   2.084   3.351  10.472 -0.6366 -0.5013  0.4198
14195TIP3   OH264075   6.774   2.859  16.350 -0.2230  0.1121 -0.5483
14195TIP3    H164076   6.762   2.868  16.444  1.5696 -1.3583 -0.1049
14195TIP3    H264077   6.746   2.769  16.331 -0.9442  0.5177 -1.5137
14196TIP3   OH264078   4.033   1.091  16.729  0.5987  0.0631 -0.3932
14196TIP3    H164079   4.093   1.022  16.698 -0.1296 -1.6608  1.7797
14196TIP3    H264080   4.088   1.147  16.784  0.6523 -0.3008 -0.0732
14197TIP3   OH264081   4.274   6.274   5.545 -0.1322 -0.3416 -0.2007
14197TIP3    H164082   4.331   6.256   5.470 -0.9722 -1.0097 -0.7062
14197TIP3    H264083   4.275   6.192   5.596 -1.6098 -0.8266 -0.8960
14198TIP3   OH264084   6.430   3.991   5.184  0.0809  0.0337  0.4068
14198TIP3    H164085   6.509   4.043   5.177 -0.3578  0.4944 -1.9428
14198TIP3    H264086   6.371   4.043   5.238  0.5726  0.7494  0.2554
14199TIP3   OH264087   1.226   2.497   1.331 -0.5574  0.1470 -0.1335
14199TIP3    H164088   1.304   2.545   1.359 -0.2743 -0.3273 -0.1051
14199TIP3    H264089   1.173   2.562   1.285  0.1356  0.3313 -0.6854
14200TIP3   OH264090   5.883   0.756  11.573  0.0374 -0.4500 -0.3607
14200TIP3    H164091   5.897   0.664  11.594  3.9172 -0.1391 -0.7281
14200TIP3    H264092   5.879   0.758  11.477  1.2853 -0.1963 -0.4320
14201TIP3   OH264093   4.751   6.501   1.753  0.6084 -0.1207  0.1035
14201TIP3    H164094   4.669   6.471   1.714  2.0164 -0.6136 -2.7968
14201TIP3    H264095   4.797   6.420   1.776  1.0243  0.0662 -0.0478
14202TIP3   OH264096   2.423   4.016  12.358 -0.5300  0.1844 -0.0424
14202TIP3    H164097   2.331   4.044  12.357 -0.2791  1.0986  0.7435
14202TIP3    H264098   2.470   4.091  12.395  0.1850 -1.2496  2.1882
14203TIP3   OH264099   3.858   3.612  10.336  0.1109 -0.4036 -0.2999
14203TIP3    H164100   3.870   3.695  10.290  0.5440  0.0910  0.6716
14203TIP3    H264101   3.839   3.638  10.426 -0.3373 -1.3550 -0.1136
14204TIP3   OH264102   4.801   5.201   5.652  0.5981  0.2810 -0.3657
14204TIP3    H164103   4.859   5.158   5.714 -0.4816 -1.7316 -0.6745
14204TIP3    H264104   4.859   5.257   5.600  1.8146  0.4372  1.0897
14205TIP3   OH264105   2.644   2.866   4.604  0.4997 -0.4296  0.4517
14205TIP3    H164106   2.674   2.955   4.585  2.3282 -1.2532 -0.7790
14205TIP3    H264107   2.559   2.860   4.559  0.4583  0.6047  0.3613
14206TIP3   OH264108   4.283   0.796   2.584 -0.4108 -0.0039 -0.1812
14206TIP3    H164109   4.242   0.824   2.502 -1.6180  0.4813  0.5728
14206TIP3    H264110   4.341   0.724   2.558 -0.7278  0.1732 -1.4655
14207TIP3   OH264111   1.815   4.876  14.517 -1.1069 -0.8489 -0.1906
14207TIP3    H164112   1.836   4.942  14.583 -1.9381 -1.6618  0.9217
14207TIP3    H264113   1.838   4.793  14.559  0.2919 -1.2774 -1.7058
14208TIP3   OH264114   6.336   3.424  14.192  0.0986 -0.4264 -0.3204
14208TIP3    H164115   6.399   3.488  14.226  0.7846 -0.3336 -1.7127
14208TIP3    H264116   6.251   3.465  14.205  0.5772  1.1721 -1.9497
14209TIP3   OH264117   0.328   1.632   0.311  0.7126  0.1419 -0.0396
14209TIP3    H164118   0.391   1.640   0.382 -0.9541  0.0205  1.5401
14209TIP3    H264119   0.261   1.572   0.345 -0.1666  0.1263 -1.6890
14210TIP3   OH264120   6.407   6.137   3.380  0.2054 -0.6012 -0.0482
14210TIP3    H164121   6.461   6.075   3.430 -0.4169 -0.4876  0.7750
14210TIP3    H264122   6.459   6.155   3.302 -0.5437 -3.8920 -1.4708
14211TIP3   OH264123   3.911   3.336   0.663  1.0344  0.3117 -0.4149
14211TIP3    H164124   4.002   3.315   0.685  0.5885 -1.2654  0.0985
14211TIP3    H264125   3.862   3.314   0.743 -0.3224 -3.1102 -1.9963
14212TIP3   OH264126   3.090   1.306   1.478 -0.2217 -0.2622  0.3541
14212TIP3    H164127   3.125   1.230   1.525 -1.6761 -1.7082 -0.7919
14212TIP3    H264128   3.168   1.350   1.444  0.6806 -1.1255  1.2130
14213TIP3   OH264129   6.025   4.066   4.725 -0.4692  0.0924  0.0045
14213TIP3    H164130   6.039   3.971   4.723 -0.4516  0.0290  1.6190
14213TIP3    H264131   6.113   4.103   4.734 -0.5348  0.2203  0.1280
14214TIP3   OH264132   2.947   3.347  15.126 -0.2203 -0.6475 -0.1047
14214TIP3    H164133   2.953   3.436  15.091 -1.8873 -0.6215 -0.4151
14214TIP3    H264134   2.904   3.358  15.210  0.7769 -1.0441  0.4649
14215TIP3   OH264135   4.459   3.600  16.905  0.5495  0.8773 -0.2506
14215TIP3    H164136   4.387   3.663  16.899 -0.1601  0.3244  1.5917
14215TIP3    H264137   4.441   3.551  16.986  3.5094  1.3458  0.8245
14216TIP3   OH264138   0.567   5.296  12.493  0.3985 -0.1265  0.2497
14216TIP3    H164139   0.561   5.205  12.465  2.2989  0.5883 -3.0526
14216TIP3    H264140   0.627   5.294  12.568  1.3931 -1.5299 -0.5156
14217TIP3   OH264141   4.531   6.007  12.464  0.0300  0.5798  0.2313
14217TIP3    H164142   4.546   6.044  12.551 -0.0650  0.8574  0.1291
14217TIP3    H264143   4.437   5.991  12.460  0.2476 -1.1196  0.8534
14218TIP3   OH264144   0.357   3.343   2.300 -0.3403  0.2807  0.5288
14218TIP3    H164145   0.297   3.404   2.257 -1.6922 -1.0323  0.4908
14218TIP3    H264146   0.375   3.277   2.233 -0.4259 -0.4038  1.1820
14219TIP3   OH264147   4.740   4.264   4.367 -0.1709  0.7917  0.3214
14219TIP3    H164148   4.812   4.326   4.355  0.9411 -0.3922  0.5007
14219TIP3    H264149   4.738   4.247   4.461 -1.3135  1.4976  0.4402
14220TIP3   OH264150   3.866   0.711  15.874  0.8966  0.5180  0.0684
14220TIP3    H164151   3.943   0.712  15.931  0.8880 -2.1795  0.2235
14220TIP3    H264152   3.793   0.731  15.933  1.1296 -0.0730  0.5643
14221TIP3   OH264153   6.405   6.393  14.698  0.2264  0.2993 -0.2437
14221TIP3    H164154   6.429   6.482  14.673 -0.1148  0.9714  1.6421
14221TIP3    H264155   6.333   6.405  14.761  1.4927 -1.1634  1.5841
14222TIP3   OH264156   0.089   0.697  14.836 -0.2120  0.0119 -0.4732
14222TIP3    H164157  -0.006   0.708  14.825 -0.1675  0.1366 -0.7334
14222TIP3    H264158   0.099   0.608  14.869 -0.4759  0.2484  0.2617
14223TIP3   OH264159   0.273   5.662   4.567 -0.3446 -0.4678 -0.7192
14223TIP3    H164160   0.251   5.575   4.600 -1.2896  0.1097  0.2500
14223TIP3    H264161   0.236   5.722   4.632  0.1547  0.6621 -1.4487
14224TIP3   OH264162   1.841   5.110  14.716 -0.0337  0.3622 -0.2986
14224TIP3    H164163   1.768   5.165  14.744 -0.8278 -0.9756  0.3708
14224TIP3    H264164   1.919   5.161  14.739 -0.7206  0.8273  1.1459
14225TIP3   OH264165   0.708   3.095  12.099  0.6275 -0.0315 -0.2679
14225TIP3    H164166   0.700   3.190  12.107 -0.2664 -0.1313  0.2219
14225TIP3    H264167   0.651   3.061  12.168  2.1302 -0.9245  0.5932
14226TIP3   OH264168   4.212   0.726  15.416  0.2791 -0.1364 -0.1199
14226TIP3    H164169   4.211   0.808  15.368 -0.2179 -0.1348 -0.1132
14226TIP3    H264170   4.136   0.731  15.474  0.7115 -0.2574  0.4657
14227TIP3   OH264171   1.500   4.999  11.306 -0.0255 -0.3612 -0.0736
14227TIP3    H164172   1.469   4.935  11.370 -1.5917 -0.6293 -1.0677
14227TIP3    H264173   1.440   5.073  11.314 -0.7009 -0.6888 -1.6922
14228TIP3   OH264174   2.184   2.483  11.295  0.0398  0.0982  0.6223
14228TIP3    H164175   2.170   2.447  11.208 -0.0084  0.2153  0.5808
14228TIP3    H264176   2.097   2.507  11.326  0.2821  2.6336 -0.4263
14229TIP3   OH264177   5.721   3.840   2.093 -0.3391 -0.2808 -0.6981
14229TIP3    H164178   5.776   3.910   2.058  0.1022  0.2884  1.0282
14229TIP3    H264179   5.631   3.867   2.073 -0.1315  0.3562 -0.7815
14230TIP3   OH264180   6.297   1.064   6.003 -0.0310 -0.2423 -0.6142
14230TIP3    H164181   6.233   1.001   5.970  0.6677  0.0082 -2.5852
14230TIP3    H264182   6.244   1.134   6.040 -0.8399 -1.2049  0.0979
14231TIP3   OH264183   4.926   0.577   6.074  0.2879  0.0366  0.4829
14231TIP3    H164184   5.009   0.618   6.101  0.1160  2.1995 -1.8728
14231TIP3    H264185   4.858   0.635   6.109 -0.1541 -0.4727  0.4862
14232TIP3   OH264186   4.389   6.680  14.125  0.2678  1.3306 -0.1022
14232TIP3    H164187   4.422   6.770  14.136  0.3870  1.0739  2.1117
14232TIP3    H264188   4.296   6.691  14.104  0.6598  1.9701 -1.6453
14233TIP3   OH264189   2.379   5.298  11.569  0.9482 -0.2604 -0.2037
14233TIP3    H164190   2.362   5.376  11.623 -0.3907 -1.3644  1.0320
14233TIP3    H264191   2.365   5.328  11.480 -1.2504  0.5302  0.3551
14234TIP3   OH264192   0.085   5.556  15.202 -0.3331  0.5678  0.3841
14234TIP3    H164193   0.158   5.578  15.261  0.6545 -2.2777  0.3745
14234TIP3    H264194   0.018   5.519  15.259  0.1734 -1.1476 -0.0615
14235TIP3   OH264195   1.093   2.434   4.144 -0.4771 -0.5977 -0.5378
14235TIP3    H164196   1.135   2.398   4.223 -0.0128  1.1590  0.0561
14235TIP3    H264197   1.127   2.379   4.073  0.4856 -1.1053  0.2762
14236TIP3   OH264198   6.025   3.067   2.275  0.3828  0.1180  0.0681
14236TIP3    H164199   6.049   3.092   2.186  0.7432  1.0722  0.4261
14236TIP3    H264200   5.959   3.130   2.301  0.6017  0.1198  0.6359
14237TIP3   OH264201   1.794   1.959  14.822  0.2650 -0.2025  0.0213
14237TIP3    H164202   1.793   1.884  14.763 -0.6229  1.0312 -1.5881
14237TIP3    H264203   1.872   2.009  14.797 -0.3113  0.5174 -0.3836
14238TIP3   OH264204   2.789   4.168   0.884 -0.0056  0.1289  0.0318
14238TIP3    H164205   2.808   4.112   0.959 -4.4217  1.2522  2.2854
14238TIP3    H264206   2.851   4.241   0.893  1.1691 -0.9443  1.0814
14239TIP3   OH264207   2.740   4.109  16.060  0.3078 -0.3455 -0.0627
14239TIP3    H164208   2.812   4.063  16.017  1.6106 -0.1531  1.7511
14239TIP3    H264209   2.783   4.183  16.104 -1.4106  1.3421 -1.1033
14240TIP3   OH264210   4.086   4.655  13.768 -0.5580  0.1632 -0.1297
14240TIP3    H164211   4.135   4.736  13.783  3.5824 -2.2438  1.1062
14240TIP3    H264212   4.022   4.653  13.839  0.4737  1.5546  0.9214
14241TIP3   OH264213   4.741   6.765  14.242 -0.0989 -0.3370  0.6225
14241TIP3    H164214   4.658   6.745  14.286 -0.2131 -0.1562  0.4910
14241TIP3    H264215   4.798   6.794  14.312 -0.3252  0.0854  0.6346
14242TIP3   OH264216   3.801   0.284  17.020 -0.3892 -0.4466 -0.1738
14242TIP3    H164217   3.799   0.223  17.095  1.8554  0.4884  0.7119
14242TIP3    H264218   3.849   0.237  16.952 -0.8460 -0.5935 -0.4031
14243TIP3   OH264219   1.448   2.889  15.455 -0.1409 -0.0184  0.1627
14243TIP3    H164220   1.493   2.973  15.464 -0.8292  0.2870  0.8813
14243TIP3    H264221   1.394   2.899  15.377  1.2735 -0.5153 -0.9255
14244TIP3   OH264222   4.732   0.838   3.198  0.5143  0.7213 -0.4041
14244TIP3    H164223   4.679   0.905   3.242 -1.7134 -0.5503 -0.9858
14244TIP3    H264224   4.700   0.837   3.108 -0.6515 -2.1192 -0.0685
14245TIP3   OH264225   4.781   1.103  11.710  0.0531  0.3096  0.2759
14245TIP3    H164226   4.812   1.108  11.620  0.0542 -1.5949  0.1282
14245TIP3    H264227   4.834   1.167  11.757 -0.6945  2.1460 -1.2404
14246TIP3   OH264228   3.501   2.299   5.743  0.4554  0.7279 -0.3879
14246TIP3    H164229   3.556   2.290   5.821  0.8159 -0.6860 -0.7673
14246TIP3    H264230   3.512   2.389   5.715 -1.3254  1.9602  2.3983
14247TIP3   OH264231   5.636   4.367  15.271 -0.0497  0.1384  0.3397
14247TIP3    H164232   5.603   4.313  15.199  1.1084 -4.5169  2.8983
14247TIP3    H264233   5.705   4.421  15.231 -0.4813 -1.0878 -2.2589
14248TIP3   OH264234   2.659   1.027  12.593 -0.3136 -0.2680 -0.4182
14248TIP3    H164235   2.640   1.008  12.685 -0.3791 -2.0835 -0.7699
14248TIP3    H264236   2.608   0.963  12.544 -0.5549  0.9006 -1.7556
14249TIP3   OH264237   0.964   4.622   3.782 -0.5875  0.0884  0.5766
14249TIP3    H164238   0.886   4.676   3.790  0.2847  1.5409 -0.2733
14249TIP3    H264239   0.985   4.595   3.871 -1.5487  0.4146  0.9094
14250TIP3   OH264240   5.175   5.551  10.890  0.1025  0.1073  0.2113
14250TIP3    H164241   5.220   5.467  10.901  1.2273  0.5914 -0.5786
14250TIP3    H264242   5.244   5.612  10.864 -0.1603  1.9286  3.2666
14251TIP3   OH264243   3.299   0.327   1.384 -0.4190 -0.4644  0.3286
14251TIP3    H164244   3.374   0.382   1.404 -1.5200  0.9783  0.7067
14251TIP3    H264245   3.273   0.353   1.295 -0.2073 -1.2658  0.0291
14252TIP3   OH264246   0.956   2.388   4.408  0.1819  0.2800 -0.3687
14252TIP3    H164247   0.885   2.447   4.436 -2.2634 -3.2679  1.6560
14252TIP3    H264248   0.914   2.328   4.347  1.6226 -1.4915  0.3100
14253TIP3   OH264249   6.411   1.260  17.045  0.2029 -0.3949 -0.0038
14253TIP3    H164250   6.385   1.323  17.113 -1.6410 -1.3339  0.2027
14253TIP3    H264251   6.506   1.252  17.056  0.1051  0.3128  1.7289
14254TIP3   OH264252   5.453   2.946   5.054  0.0871  0.5739 -0.2973
14254TIP3    H164253   5.541   2.908   5.057  0.1386  0.6844 -0.3728
14254TIP3    H264254   5.458   3.023   5.110 -0.3695 -0.2295  0.8696
14255TIP3   OH264255   5.866   6.612  17.162  0.2967  0.5142  0.7036
14255TIP3    H164256   5.812   6.670  17.109  1.5754 -0.6698 -2.0978
14255TIP3    H264257   5.926   6.670  17.208 -1.2266  1.6213  1.3940
14256TIP3   OH264258   2.734   2.430  12.247  0.3874  0.0937  0.1120
14256TIP3    H164259   2.699   2.374  12.178  1.9174 -0.0611 -0.5954
14256TIP3    H264260   2.742   2.516  12.205 -2.1141  0.9764  1.2389
14257TIP3   OH264261   3.176   6.405   1.859  0.5593  0.7070 -0.9998
14257TIP3    H164262   3.269   6.393   1.881  0.2207 -1.0072 -0.4364
14257TIP3    H264263   3.134   6.429   1.941  0.4801  1.5769 -1.2730
14258TIP3   OH264264   0.240   1.644  14.108  0.5311 -0.7097  0.8915
14258TIP3    H164265   0.149   1.634  14.135  0.4294 -1.7571  0.2035
14258TIP3    H264266   0.271   1.721  14.156 -0.6909 -0.3848  1.1824
14259TIP3   OH264267   3.644   1.422  12.425 -0.5049  0.0923  0.0013
14259TIP3    H164268   3.666   1.406  12.334 -2.0450 -0.4793 -0.2896
14259TIP3    H264269   3.631   1.517  12.431  1.1168  0.3398  0.0055
14260TIP3   OH264270   5.612   3.284   3.288  0.3018 -0.3105 -0.4759
14260TIP3    H164271   5.646   3.195   3.276  1.3611  0.1369 -0.9328
14260TIP3    H264272   5.552   3.297   3.215 -0.1305 -0.7634 -0.2114
14261TIP3   OH264273   0.586   4.119  11.998  0.0397  0.0710 -0.1405
14261TIP3    H164274   0.615   4.137  11.908  0.9809 -1.0524 -0.0752
14261TIP3    H264275   0.500   4.160  12.003  0.1367  0.4956 -1.4345
14262TIP3   OH264276   4.996   4.238  15.103 -0.2167 -0.7480  0.6390
14262TIP3    H164277   4.939   4.290  15.159 -1.0019 -0.9545  0.0359
14262TIP3    H264278   4.978   4.147  15.127  1.1240 -0.7783  1.6658
14263TIP3   OH264279   3.288   5.943   5.441  0.0249  0.0508  0.6320
14263TIP3    H164280   3.345   5.961   5.516  2.3435  2.9878 -1.5506
14263TIP3    H264281   3.318   5.859   5.407  0.8299  0.0078  1.4187
14264TIP3   OH264282   1.274   1.284  11.665 -0.1661  0.0719  0.3887
14264TIP3    H164283   1.354   1.234  11.652 -1.4831 -2.3405  1.0905
14264TIP3    H264284   1.262   1.287  11.760  0.4029  2.7089  0.4532
14265TIP3   OH264285   6.490   5.899  15.082 -0.8429  0.0376 -0.5987
14265TIP3    H164286   6.497   5.921  15.174  0.0805 -0.0723 -0.6384
14265TIP3    H264287   6.504   5.804  15.079  1.0692  0.3081 -1.0438
14266TIP3   OH264288   0.315   1.153  16.812 -0.4200  0.1322 -0.2345
14266TIP3    H164289   0.352   1.217  16.873 -1.7875  0.6541  0.0630
14266TIP3    H264290   0.306   1.200  16.729  0.1367 -0.1782 -0.4782
14267TIP3   OH264291   3.469   5.940  13.234  0.3370  0.3875  0.3855
14267TIP3    H164292   3.493   6.022  13.278 -0.8913 -0.0976  2.0805
14267TIP3    H264293   3.552   5.905  13.202  1.1835  1.2575  1.5246
14268TIP3   OH264294   1.175   4.713  12.839 -0.1093  0.0020 -0.5068
14268TIP3    H164295   1.101   4.734  12.896  0.8974  1.5858  0.2890
14268TIP3    H264296   1.208   4.630  12.873 -1.5875 -0.8110 -0.9779
14269TIP3   OH264297   1.430   1.003  12.726 -0.2160  0.4621  0.5080
14269TIP3    H164298   1.440   0.944  12.651  0.7260 -1.0164  1.7362
14269TIP3    H264299   1.335   1.006  12.741 -0.2471 -1.8258  1.1845
14270TIP3   OH264300   1.080   3.012   2.516 -0.0949  0.1196  0.1432
14270TIP3    H164301   1.092   2.918   2.501 -0.3465  0.0827  0.1729
14270TIP3    H264302   1.086   3.051   2.429  1.0360  0.1954  0.2349
14271TIP3   OH264303   6.805   2.877   2.661 -0.0385  0.3291  0.2782
14271TIP3    H164304   6.734   2.845   2.604  0.1804 -2.0547  1.2108
14271TIP3    H264305   6.874   2.811   2.652  0.8156  0.9762  1.7323
14272TIP3   OH264306   4.683   2.901   6.004  0.6885  0.1942  0.0047
14272TIP3    H164307   4.588   2.886   6.001  0.6611  0.2335 -2.8983
14272TIP3    H264308   4.694   2.981   6.056 -0.9892  0.7555 -0.4409
14273TIP3   OH264309   5.506   2.904  11.749  0.3465 -0.6684  0.0837
14273TIP3    H164310   5.546   2.834  11.800 -1.5237 -0.3087  2.1570
14273TIP3    H264311   5.525   2.984  11.798  1.1777  0.1510 -1.4731
14274TIP3   OH264312   3.153   5.861  15.993 -0.0169 -0.2272 -0.1353
14274TIP3    H164313   3.060   5.874  15.977  0.1416 -0.4811 -1.3155
14274TIP3    H264314   3.197   5.916  15.929  0.6887  1.3190  1.5678
14275TIP3   OH264315   0.599   1.794  12.385 -0.5702 -0.2205  0.1627
14275TIP3    H164316   0.667   1.742  12.427 -0.2486  0.5238  0.5811
14275TIP3    H264317   0.547   1.829  12.457 -0.1681  0.8620 -0.0528
14276TIP3   OH264318   4.168   4.226  15.817  0.3109 -0.0032 -0.1291
14276TIP3    H164319   4.085   4.229  15.865 -1.1493  2.4193 -2.4942
14276TIP3    H264320   4.168   4.307  15.765  4.6627  0.5804  0.4562
14277TIP3   OH264321   4.658   5.229  16.450 -0.6004  0.7764 -0.1146
14277TIP3    H164322   4.655   5.320  16.420 -1.2212  0.5367 -0.8157
14277TIP3    H264323   4.751   5.211  16.462 -0.4789  1.5326  0.1084
14278TIP3   OH264324   2.228   5.855   3.268  0.0615 -0.4691 -0.3679
14278TIP3    H164325   2.192   5.894   3.348 -0.2834 -0.5709 -0.4698
14278TIP3    H264326   2.168   5.884   3.199  0.2583 -0.5259 -0.5646
14279TIP3   OH264327   1.467   2.110   4.140 -0.6625  0.5616  0.2687
14279TIP3    H164328   1.555   2.148   4.139  0.2115 -1.3047 -1.1515
14279TIP3    H264329   1.474   2.034   4.197 -1.6437  0.9707  0.9517
14280TIP3   OH264330   3.802   5.514  13.837  0.2712  0.4357 -0.5972
14280TIP3    H164331   3.871   5.493  13.774  1.2993  2.0039 -0.0430
14280TIP3    H264332   3.808   5.608  13.849 -2.2796  0.7186 -0.8590
14281TIP3   OH264333   0.310   3.611  11.998 -0.7326  0.2469  0.3338
14281TIP3    H164334   0.393   3.620  12.044 -0.9143  1.3192  0.4704
14281TIP3    H264335   0.244   3.644  12.059 -0.8151  3.1741 -1.1622
14282TIP3   OH264336   0.672   0.554  12.756 -0.1340  0.0094  0.1468
14282TIP3    H164337   0.670   0.593  12.843 -4.2221  1.1281 -0.2859
14282TIP3    H264338   0.672   0.459  12.773 -1.2323  0.2047  1.3828
14283TIP3   OH264339   5.512   0.158   2.294 -0.0675 -0.6734  0.0151
14283TIP3    H164340   5.469   0.168   2.379 -0.8017 -1.0826 -0.2982
14283TIP3    H264341   5.606   0.166   2.313 -0.3207  2.6211  0.3918
14284TIP3   OH264342   0.380   4.313   4.775 -0.2569  0.5335 -0.0198
14284TIP3    H164343   0.319   4.239   4.777  1.4125 -0.9793 -1.6740
14284TIP3    H264344   0.454   4.285   4.827  2.0281 -0.6504 -3.5233
14285TIP3   OH264345   0.165   6.344   5.382 -0.2612 -0.2886 -0.1267
14285TIP3    H164346   0.133   6.314   5.297 -0.1570  1.8009 -0.9741
14285TIP3    H264347   0.094   6.400   5.416  0.2054 -0.1115  0.5783
14286TIP3   OH264348   0.779   3.091  14.617  0.1725  0.6046  0.2805
14286TIP3    H164349   0.781   3.178  14.577  0.0094  0.1749 -0.6807
14286TIP3    H264350   0.711   3.044  14.569 -0.7424  0.3819  1.7499
14287TIP3   OH264351   4.699   5.803  16.431  0.0632 -0.7535 -0.3975
14287TIP3    H164352   4.768   5.823  16.494 -0.1389 -0.6407 -0.2113
14287TIP3    H264353   4.639   5.746  16.479  0.1883 -1.1066 -0.6544
14288TIP3   OH264354   2.083   2.774  12.944 -0.4035 -0.1416 -0.0418
14288TIP3    H164355   2.069   2.689  12.903 -0.5516 -0.1025 -0.0755
14288TIP3    H264356   2.010   2.828  12.912 -0.8067 -0.2554  0.6561
14289TIP3   OH264357   4.591   1.266  14.140  0.2472 -0.0369  0.0773
14289TIP3    H164358   4.543   1.349  14.142 -0.5462 -0.4881  0.7937
14289TIP3    H264359   4.681   1.290  14.162 -0.1984  0.5128  1.4718
14290TIP3   OH264360   0.672   2.315   3.349  0.0546  0.0132  0.0463
14290TIP3    H164361   0.753   2.278   3.316  0.9790  2.4545 -0.7068
14290TIP3    H264362   0.668   2.402   3.309 -1.9177  0.7477  1.6544
14291TIP3   OH264363   0.863   0.519  11.239  0.1537 -0.0407  0.1756
14291TIP3    H164364   0.909   0.512  11.322 -0.9852 -1.0828  0.7551
14291TIP3    H264365   0.840   0.612  11.233  0.4902  0.1002  0.8825
14292TIP3   OH264366   5.999   2.459  12.029 -0.2808  0.4286 -0.4120
14292TIP3    H164367   5.925   2.502  11.987 -0.0773  1.0980 -0.0982
14292TIP3    H264368   6.076   2.506  11.996 -0.0363  0.1318 -0.2733
14293TIP3   OH264369   6.441   1.901   5.371 -0.5899 -0.1615  0.0488
14293TIP3    H164370   6.485   1.986   5.358 -0.0884 -0.2481  1.0303
14293TIP3    H264371   6.441   1.861   5.285 -1.6148  1.1992 -0.6229
14294TIP3   OH264372   0.685   3.111  12.482 -0.5187  0.2333 -0.4144
14294TIP3    H164373   0.656   3.095  12.393  1.3846 -0.6608 -0.9369
14294TIP3    H264374   0.732   3.031  12.506  0.1652  0.9846  0.8743
14295TIP3   OH264375   0.871   2.202  13.500 -0.1678 -0.0534 -0.8071
14295TIP3    H164376   0.841   2.264  13.566 -0.4641 -0.6061 -0.4145
14295TIP3    H264377   0.814   2.126  13.511  1.2619 -1.0779 -0.1561
14296TIP3   OH264378   4.950   6.305  11.545  0.7405  0.1634  0.0281
14296TIP3    H164379   5.025   6.270  11.594 -0.0664 -1.3953  0.2126
14296TIP3    H264380   4.926   6.235  11.485  0.8387  1.5333 -1.6635
14297TIP3   OH264381   4.281   5.675   2.573 -0.0901 -0.1336 -0.1350
14297TIP3    H164382   4.205   5.705   2.525 -0.4825 -1.1405 -0.1742
14297TIP3    H264383   4.250   5.663   2.663 -0.0607 -0.8095 -0.2088
14298TIP3   OH264384   2.656   4.394   6.197  0.4006 -0.1645 -0.9374
14298TIP3    H164385   2.625   4.332   6.131 -1.2778 -1.7064  1.1475
14298TIP3    H264386   2.726   4.348   6.243 -0.6697 -0.5032  0.4484
14299TIP3   OH264387   5.770   3.700  13.223  0.1725 -0.5071 -0.5388
14299TIP3    H164388   5.805   3.613  13.244 -1.1913 -1.1572 -0.8660
14299TIP3    H264389   5.681   3.683  13.192 -0.6508  1.1472  0.7906
14300TIP3   OH264390   4.421   3.664   2.545  1.0248  0.9236 -0.2568
14300TIP3    H164391   4.411   3.721   2.621  4.1274 -1.1006  1.9313
14300TIP3    H264392   4.392   3.578   2.575 -0.1639  0.5451 -2.2968
14301TIP3   OH264393   0.118   0.867  14.043 -0.5853 -0.1950 -0.0409
14301TIP3    H164394   0.197   0.836  13.997 -0.5368 -1.5881  0.9258
14301TIP3    H264395   0.045   0.829  13.994 -0.7075  1.3582 -1.1277
14302TIP3   OH264396   2.075   6.314   5.292 -0.0679  0.5183 -0.1519
14302TIP3    H164397   2.032   6.240   5.336 -0.3688  0.1889 -0.9786
14302TIP3    H264398   2.129   6.354   5.360 -0.1428 -0.2761  0.3910
14303TIP3   OH264399   1.586   2.108  15.917 -0.3151  0.3158  0.6026
14303TIP3    H164400   1.631   2.074  15.840  1.6435  0.7067  1.4916
14303TIP3    H264401   1.602   2.202  15.914 -0.1533  0.3284  1.4836
14304TIP3   OH264402   4.078   5.911   2.447  0.3791  0.5479  0.1610
14304TIP3    H164403   4.112   5.966   2.517 -2.1365  2.4917  0.0281
14304TIP3    H264404   4.054   5.973   2.378  1.7080 -1.2016 -1.9940
14305TIP3   OH264405   1.243   1.187   0.290  0.7504 -0.0116  0.2970
14305TIP3    H164406   1.292   1.268   0.307 -0.2407  0.7007 -0.1539
14305TIP3    H264407   1.281   1.124   0.351  0.4359  1.2328  1.8572
14306TIP3   OH264408   1.184   1.390   2.414  0.8412 -0.1834 -0.1469
14306TIP3    H164409   1.256   1.354   2.363  0.6970 -1.4897  0.5356
14306TIP3    H264410   1.200   1.359   2.504  0.2448  0.7654  0.3042
14307TIP3   OH264411   6.677   1.203  10.843 -0.1031 -0.0107  0.3523
14307TIP3    H164412   6.679   1.265  10.916  0.9568 -0.4777  0.7368
14307TIP3    H264413   6.676   1.257  10.765  0.3184  0.4980  0.6920
14308TIP3   OH264414   0.865   5.263   5.223  0.7729 -0.2301  0.1426
14308TIP3    H164415   0.859   5.298   5.312  0.6103  1.7357 -0.6108
14308TIP3    H264416   0.779   5.282   5.184  0.7683 -1.2697 -0.3878
14309TIP3   OH264417   3.984   2.307  16.869 -0.3184 -0.6728  0.4686
14309TIP3    H164418   3.993   2.341  16.958  1.3277 -0.5163  0.2579
14309TIP3    H264419   4.006   2.215  16.876 -0.8518 -0.8159  0.3270
14310TIP3   OH264420   1.702   4.121   1.698  0.4343 -0.7173  0.1786
14310TIP3    H164421   1.674   4.210   1.675  1.7457 -0.4593 -0.4812
14310TIP3    H264422   1.623   4.081   1.736 -0.0789  0.8331  0.8449
14311TIP3   OH264423   0.982   5.676  13.034  0.3565  0.8209  0.7337
14311TIP3    H164424   1.074   5.667  13.059  1.0544  1.1208 -1.5695
14311TIP3    H264425   0.984   5.707  12.944 -2.0117 -1.3085 -0.1630
14312TIP3   OH264426   2.504   0.051  13.855  0.2474  0.7705 -0.9833
14312TIP3    H164427   2.439   0.086  13.795 -0.3152  0.7835 -0.3754
14312TIP3    H264428   2.516   0.120  13.921 -0.1020  0.2501 -0.3603
14313TIP3   OH264429   6.550   0.603  15.802 -0.2238 -0.3975  0.2689
14313TIP3    H164430   6.640   0.592  15.834 -0.7378 -0.1790  1.8462
14313TIP3    H264431   6.550   0.559  15.717  1.5826  0.2911 -0.1386
14314TIP3   OH264432   3.859   1.256   0.481 -0.5197 -0.1701  0.1611
14314TIP3    H164433   3.841   1.301   0.564 -0.3235 -0.1273  0.1818
14314TIP3    H264434   3.932   1.306   0.443 -0.7153 -0.0921 -0.1124
14315TIP3   OH264435   4.300   1.487   5.320 -0.7241 -0.4722  0.0063
14315TIP3    H164436   4.365   1.529   5.265 -1.0350  0.9507  0.6717
14315TIP3    H264437   4.242   1.441   5.259  0.6729 -1.4826 -0.6133
14316TIP3   OH264438   4.492   4.041   5.272  0.0063 -0.3745  0.4750
14316TIP3    H164439   4.558   3.989   5.318 -0.1107 -1.8646 -0.9788
14316TIP3    H264440   4.539   4.121   5.247  1.1515 -1.1952 -0.0989
14317TIP3   OH264441   6.245   0.333   5.703  0.1870 -0.2390  0.2658
14317TIP3    H164442   6.156   0.324   5.735  0.0118 -0.3144 -0.2365
14317TIP3    H264443   6.250   0.275   5.627  0.7131 -0.3704  0.3927
14318TIP3   OH264444   5.206   0.891  13.752  0.1708 -0.2215  0.5074
14318TIP3    H164445   5.255   0.853  13.826 -1.4635 -0.1148  1.6925
14318TIP3    H264446   5.178   0.976  13.784  0.1350  0.1797 -0.5654
14319TIP3   OH264447   6.020   3.309   1.416  0.1488 -0.0874  0.2874
14319TIP3    H164448   6.034   3.287   1.508  2.0361  1.3332  0.3963
14319TIP3    H264449   6.034   3.403   1.411  2.9978 -0.4753 -1.8672
14320TIP3   OH264450   6.760   5.649  14.490  0.0291  0.3468 -1.1212
14320TIP3    H164451   6.669   5.618  14.496  0.0594  0.4334 -0.1294
14320TIP3    H264452   6.805   5.605  14.562  0.9303 -0.1769 -1.9696
14321TIP3   OH264453   6.386   5.192  13.780 -0.0749 -0.0164 -0.6862
14321TIP3    H164454   6.398   5.257  13.849 -0.3536  1.7262 -2.1925
14321TIP3    H264455   6.292   5.176  13.778  0.1635 -1.9292  0.8935
14322TIP3   OH264456   3.565   3.832  12.692  0.2411 -0.0966 -0.0048
14322TIP3    H164457   3.544   3.771  12.762  1.8389  0.5413  1.0820
14322TIP3    H264458   3.577   3.777  12.615 -0.0718 -0.9584  0.5439
14323TIP3   OH264459   5.122   3.074  12.657 -0.0454 -0.1207  0.2475
14323TIP3    H164460   5.112   2.999  12.597 -1.4943  0.9953 -1.0164
14323TIP3    H264461   5.215   3.094  12.655  0.6403 -2.7101  1.7234
14324TIP3   OH264462   4.155   6.769   6.336 -0.0165  0.0129 -0.1572
14324TIP3    H164463   4.199   6.853   6.326  0.1428 -0.0208  0.2380
14324TIP3    H264464   4.140   6.760   6.430 -0.0979 -0.3640 -0.2032
14325TIP3   OH264465   1.482   5.391  15.007 -0.3407 -0.4473 -0.5115
14325TIP3    H164466   1.410   5.333  14.983 -0.2110 -1.1040  0.6605
14325TIP3    H264467   1.546   5.334  15.050 -1.0952  0.8365  2.5287
14326TIP3   OH264468   5.067   1.217  15.235  0.0831  0.0301 -0.7190
14326TIP3    H164469   5.075   1.154  15.164 -0.9929  0.1739 -0.9859
14326TIP3    H264470   4.992   1.272  15.210 -0.4289 -0.0299  0.6074
14327TIP3   OH264471   3.331   3.054   4.053  0.0082 -0.3085  0.0793
14327TIP3    H164472   3.419   3.023   4.032  0.5983  1.8307 -0.7788
14327TIP3    H264473   3.288   3.065   3.968 -1.3925 -2.0157  0.5028
14328TIP3   OH264474   2.907   1.046   5.324  0.1306  0.1018 -0.9429
14328TIP3    H164475   2.959   1.109   5.275 -0.4808 -0.1931 -2.0143
14328TIP3    H264476   2.857   1.099   5.386  2.0217  0.3432  0.4571
14329TIP3   OH264477   2.659   0.760  13.244 -0.3619  0.0961  0.1652
14329TIP3    H164478   2.721   0.773  13.316  1.3968 -0.5978 -1.1491
14329TIP3    H264479   2.623   0.673  13.259  2.3557 -1.4236 -1.3697
14330TIP3   OH264480   2.407   3.279   1.142  0.2940  0.1221 -0.4275
14330TIP3    H164481   2.418   3.332   1.221  0.0843 -0.4796  0.0114
14330TIP3    H264482   2.360   3.201   1.171  1.3191 -0.6947 -0.8994
14331TIP3   OH264483   4.762   6.403  14.706 -0.5031 -0.0168 -0.5007
14331TIP3    H164484   4.743   6.409  14.612  0.6179 -0.0376 -0.7421
14331TIP3    H264485   4.823   6.475  14.723 -1.5505  0.6816  0.4591
14332TIP3   OH264486   6.819   6.623   5.046  0.7315 -0.2958  0.2723
14332TIP3    H164487   6.801   6.667   5.129 -2.4432  1.4054 -1.1540
14332TIP3    H264488   6.880   6.681   5.000 -0.4093  0.7039 -0.0272
14333TIP3   OH264489   1.426   2.572  15.710  0.4572  0.2817  0.1268
14333TIP3    H164490   1.350   2.545  15.658  2.2629  0.3680 -2.7665
14333TIP3    H264491   1.420   2.668  15.713  0.3013  0.2714  0.1641
14334TIP3   OH264492   1.649   3.557   5.125  1.0507 -0.2990 -0.1637
14334TIP3    H164493   1.651   3.465   5.101  1.4260 -0.2864 -0.1798
14334TIP3    H264494   1.730   3.571   5.173  1.7614  0.3895 -1.5091
14335TIP3   OH264495   0.583   1.302   1.757 -0.0704 -0.4614 -0.0413
14335TIP3    H164496   0.549   1.259   1.678  1.9900  0.9021 -1.8081
14335TIP3    H264497   0.642   1.237   1.795 -0.3745 -0.7973 -0.1322
14336TIP3   OH264498   6.518   2.800  15.645 -0.0993  0.4284 -0.3965
14336TIP3    H164499   6.569   2.801  15.564  3.2653 -1.7862  1.5005
14336TIP3    H264500   6.521   2.890  15.677  1.8802  0.5531 -0.8409
14337TIP3   OH264501   0.892   1.743   6.413 -0.2116 -0.3195  0.0964
14337TIP3    H164502   0.817   1.726   6.355  1.8017 -0.6371 -2.6615
14337TIP3    H264503   0.857   1.798   6.483 -3.1476 -1.0867 -0.6394
14338TIP3   OH264504   2.776   5.598  15.921 -0.4802  0.0699 -0.2773
14338TIP3    H164505   2.841   5.553  15.974  0.3007 -0.2457 -1.4468
14338TIP3    H264506   2.801   5.691  15.926  0.7554 -0.1439 -1.5441
14339TIP3   OH264507   5.829   3.562  14.305  0.1448 -0.0282 -0.5935
14339TIP3    H164508   5.773   3.579  14.230  0.9057  2.7752 -0.6387
14339TIP3    H264509   5.810   3.633  14.366  0.4861 -1.5141  1.3210
14340TIP3   OH264510   3.309   4.937  12.495 -0.2784  0.2831  0.2168
14340TIP3    H164511   3.218   4.933  12.526  0.2015  0.1841  1.6629
14340TIP3    H264512   3.360   4.894  12.563  0.5350 -2.6091 -2.0136
14341TIP3   OH264513   1.689   6.810  10.469  0.1827  0.1511  0.0243
14341TIP3    H164514   1.750   6.883  10.461 -0.4139  0.8023  1.1297
14341TIP3    H264515   1.673   6.782  10.378  2.0756 -0.0452 -0.2883
14342TIP3   OH264516   2.291   0.549  11.768 -0.1774  0.1333  0.2247
14342TIP3    H164517   2.224   0.601  11.723 -0.7785 -1.5769 -0.9584
14342TIP3    H264518   2.247   0.466  11.788  1.6189 -1.1629 -0.8512
14343TIP3   OH264519   6.605   5.329  14.696  0.0389  0.1399 -0.7772
14343TIP3    H164520   6.565   5.249  14.730 -0.0904  0.4298 -0.2238
14343TIP3    H264521   6.548   5.399  14.728  1.0716  0.5783  0.1754
14344TIP3   OH264522   1.406   4.068   3.721  0.2285  0.5685  0.4763
14344TIP3    H164523   1.374   4.151   3.687 -1.3424  0.0335  0.5618
14344TIP3    H264524   1.364   4.059   3.807  1.4150  0.2818  1.0545
14345TIP3   OH264525   2.365   2.682   4.908  0.0484  0.0585 -0.0219
14345TIP3    H164526   2.317   2.715   4.832 -0.3802 -0.7549 -0.1215
14345TIP3    H264527   2.421   2.613   4.872 -0.0460 -0.2276  0.3764
14346TIP3   OH264528   2.894   1.570  13.626 -0.0563  0.6731  0.1091
14346TIP3    H164529   2.866   1.612  13.545  0.7148 -1.7895 -1.5354
14346TIP3    H264530   2.989   1.584  13.629 -0.0690  0.6844  0.5370
14347TIP3   OH264531   0.015   3.996   4.253  0.1296 -0.1566 -0.1759
14347TIP3    H164532   0.066   4.077   4.246 -0.0013 -0.0885 -0.3468
14347TIP3    H264533  -0.023   3.999   4.340 -1.5661  0.9679 -0.9110
14348TIP3   OH264534   1.375   6.036  13.112  0.0075  0.1871 -0.1956
14348TIP3    H164535   1.306   5.969  13.114  0.9343 -0.7853  0.5225
14348TIP3    H264536   1.440   6.001  13.050  1.0743 -0.1925  1.1027
14349TIP3   OH264537   3.410   0.509  15.125 -0.4985 -0.0935 -0.0335
14349TIP3    H164538   3.484   0.569  15.111  1.5391 -1.9835  1.8947
14349TIP3    H264539   3.345   0.563  15.170  0.0775  1.3897 -0.8868
14350TIP3   OH264540   0.554   0.502  17.127 -0.5454 -0.3336  0.5155
14350TIP3    H164541   0.552   0.406  17.137  1.1374 -0.6037 -1.1522
14350TIP3    H264542   0.479   0.522  17.072  0.4173 -1.0441 -1.1402
14351TIP3   OH264543   4.105   1.503   4.747 -0.5586 -0.6962  0.2006
14351TIP3    H164544   4.013   1.528   4.759 -0.9555 -2.2221  0.5203
14351TIP3    H264545   4.104   1.437   4.678  0.0470 -2.0875  1.4720
14352TIP3   OH264546   1.679   6.436  15.769  0.2051  0.2901  0.0377
14352TIP3    H164547   1.689   6.421  15.863  1.7317  0.7950 -0.0118
14352TIP3    H264548   1.678   6.348  15.731 -0.8548  0.0684  0.5488
14353TIP3   OH264549   4.806   0.930   3.936  0.3415  0.3526 -0.1508
14353TIP3    H164550   4.872   0.946   3.868 -0.2251  0.3592 -0.7155
14353TIP3    H264551   4.835   0.981   4.011  1.6002 -0.5642  0.0203
14354TIP3   OH264552   1.461   1.779  11.962 -0.6184 -0.2744  0.4943
14354TIP3    H164553   1.463   1.758  12.055  0.9081 -0.9301  0.3318
14354TIP3    H264554   1.382   1.735  11.929 -0.2275 -1.4801  1.1403
14355TIP3   OH264555   5.392   0.940  12.598 -0.4304  0.0998 -0.0210
14355TIP3    H164556   5.412   0.965  12.508  0.5738  0.6929  0.3445
14355TIP3    H264557   5.365   0.848  12.592 -0.0669  0.0380 -0.8915
14356TIP3   OH264558   3.571   3.159   4.697 -0.3579 -0.8103 -0.1207
14356TIP3    H164559   3.621   3.079   4.710 -2.6056 -1.9446  2.3736
14356TIP3    H264560   3.512   3.139   4.625  0.5533 -0.5622 -0.9639
14357TIP3   OH264561   5.872   1.187   3.717  0.1900 -0.0788 -0.1619
14357TIP3    H164562   5.856   1.281   3.709 -1.3216 -0.2513  0.4680
14357TIP3    H264563   5.795   1.153   3.762 -0.6204 -2.0530 -2.7582
14358TIP3   OH264564   0.651   6.187   4.256  0.2212  0.2693 -0.1517
14358TIP3    H164565   0.642   6.280   4.275 -0.3002  0.2770 -0.4348
14358TIP3    H264566   0.667   6.183   4.162 -0.4204  0.0344 -0.2565
14359TIP3   OH264567   2.068   1.003  12.248  0.3334 -0.2567  0.1742
14359TIP3    H164568   2.025   0.937  12.192  1.4091 -0.9069  0.0865
14359TIP3    H264569   2.105   1.066  12.187  0.4693 -0.3109  0.2003
14360TIP3   OH264570   1.166   6.774   0.002 -0.0015  0.1032  0.3848
14360TIP3    H164571   1.113   6.705  -0.039 -0.3797  0.3699  0.4189
14360TIP3    H264572   1.218   6.810  -0.070  3.0174 -2.6707  0.9361
14361TIP3   OH264573   3.988   5.373  14.594 -0.0255  0.7695  0.2958
14361TIP3    H164574   4.068   5.374  14.647  0.8749 -2.1542 -0.7641
14361TIP3    H264575   3.938   5.299  14.627  0.4762 -1.0578 -2.5912
14362TIP3   OH264576   1.955   4.493   4.112  0.2577  0.2304  0.6291
14362TIP3    H164577   1.975   4.462   4.024 -2.8040  0.2945 -0.2087
14362TIP3    H264578   2.039   4.523   4.147  1.3218  1.9844 -2.9634
14363TIP3   OH264579   6.822   3.727  13.713  0.5786 -0.2908  0.5674
14363TIP3    H164580   6.729   3.741  13.735  0.7251  0.0064  1.0134
14363TIP3    H264581   6.859   3.687  13.791  1.2805  1.4836  1.1793
14364TIP3   OH264582   6.234   5.298   4.183 -0.2805 -0.0388 -0.1871
14364TIP3    H164583   6.171   5.280   4.252  0.7613  0.7952  1.0181
14364TIP3    H264584   6.244   5.214   4.138 -0.0925 -0.9205  1.4270
14365TIP3   OH264585   1.880   1.664  14.381 -0.2195 -0.1656 -0.5607
14365TIP3    H164586   1.886   1.735  14.317 -1.2071 -0.8091 -1.3744
14365TIP3    H264587   1.865   1.709  14.465  2.0698  0.7370 -0.5655
14366TIP3   OH264588   3.959   4.773   2.276  0.2235  0.0179  0.3886
14366TIP3    H164589   3.892   4.788   2.210  1.1667 -1.0228 -0.8545
14366TIP3    H264590   4.037   4.816   2.242  0.3907  0.6268  1.4876
14367TIP3   OH264591   0.774   6.523   1.112 -0.2798 -0.9057 -0.0396
14367TIP3    H164592   0.790   6.616   1.097 -4.3796 -0.2853 -1.6230
14367TIP3    H264593   0.763   6.486   1.025  1.4526 -3.0299  0.5443
14368TIP3   OH264594   5.285   2.063   3.942  0.1388 -0.3133 -0.3759
14368TIP3    H164595   5.270   2.157   3.946  1.3103 -0.0898 -0.7583
14368TIP3    H264596   5.334   2.050   3.861 -0.7545 -1.3706 -0.7681
14369TIP3   OH264597   2.401   0.448   5.660  0.3642  0.4125 -0.0892
14369TIP3    H164598   2.496   0.459   5.665  0.4272  0.1173 -0.5717
14369TIP3    H264599   2.369   0.530   5.623  0.4432  0.4566 -0.0592
14370TIP3   OH264600   1.443   6.262  16.677  0.0074  0.3893 -0.3724
14370TIP3    H164601   1.528   6.278  16.636 -0.7975  2.0420 -1.5356
14370TIP3    H264602   1.386   6.239  16.604 -0.1836 -2.6084  0.6104
14371TIP3   OH264603   3.889   3.410   2.110 -0.0763  0.1684  0.0994
14371TIP3    H164604   3.854   3.469   2.044 -1.3290  0.1017  0.6653
14371TIP3    H264605   3.927   3.338   2.060 -3.0847 -1.0658 -0.6249
14372TIP3   OH264606   2.793   0.508  14.774 -0.5732  0.2900  0.2978
14372TIP3    H164607   2.737   0.457  14.716 -2.0949  2.1007  0.0961
14372TIP3    H264608   2.764   0.598  14.763  1.7855  1.1968  0.8950
14373TIP3   OH264609   4.924   1.293   1.097  0.2193  0.9315  0.9980
14373TIP3    H164610   4.867   1.312   1.023 -2.9620 -2.4963  2.2186
14373TIP3    H264611   4.893   1.350   1.167 -0.3688  0.5041  1.0916
14374TIP3   OH264612   0.176   5.760   1.842 -0.3037 -0.6719 -0.0699
14374TIP3    H164613   0.114   5.766   1.914 -0.7847  1.4834 -0.5912
14374TIP3    H264614   0.128   5.792   1.766  1.0601 -0.1541 -0.7531
14375TIP3   OH264615   2.473   6.529  14.358 -0.1736 -0.1734 -0.6038
14375TIP3    H164616   2.545   6.488  14.406  0.7932 -0.4471 -2.2133
14375TIP3    H264617   2.515   6.580  14.289 -1.4435  2.0309  0.1559
14376TIP3   OH264618   6.523   3.873   5.710  0.2645  0.0149  0.0829
14376TIP3    H164619   6.544   3.897   5.620  1.3995 -1.0947  0.0278
14376TIP3    H264620   6.495   3.782   5.705 -1.2587  0.4176  0.6611
14377TIP3   OH264621   2.831   5.201  13.687  0.0324  0.1813  0.5309
14377TIP3    H164622   2.794   5.113  13.691 -0.9388  0.6037  1.4277
14377TIP3    H264623   2.755   5.258  13.678  0.6900  0.9041 -0.6368
14378TIP3   OH264624   0.090   2.769  14.451 -0.0637  0.7059 -0.0496
14378TIP3    H164625   0.121   2.843  14.399 -0.0057  0.1716 -0.7959
14378TIP3    H264626   0.139   2.694  14.416 -0.8869  0.1508 -0.0199
14379TIP3   OH264627   2.268   5.972   3.958  0.8236  0.0688  0.2151
14379TIP3    H164628   2.177   5.957   3.935  1.1626 -0.6904 -0.6990
14379TIP3    H264629   2.265   6.025   4.037 -0.4165  1.8177 -0.9437
14380TIP3   OH264630   5.941   5.268   3.325  0.0646 -0.1741 -0.8737
14380TIP3    H164631   5.987   5.338   3.278 -0.9777  0.3017 -1.2185
14380TIP3    H264632   5.851   5.274   3.294 -0.2934 -0.9150 -0.0173
14381TIP3   OH264633   4.140   5.071  14.587 -0.3752  0.0815 -0.0588
14381TIP3    H164634   4.194   5.004  14.545  0.8590 -0.0525  1.6227
14381TIP3    H264635   4.097   5.117  14.515 -1.0877 -2.3382 -1.2764
14382TIP3   OH264636   6.076   5.819  16.202  0.4174 -0.2174 -0.2397
14382TIP3    H164637   5.983   5.837  16.188  0.9059  0.5867 -3.0384
14382TIP3    H264638   6.092   5.738  16.154  0.8329 -1.4862  1.9047
14383TIP3   OH264639   1.389   6.019  12.788  0.3036  0.1282 -0.0381
14383TIP3    H164640   1.359   5.928  12.784 -0.1022  0.1991  1.1051
14383TIP3    H264641   1.312   6.069  12.813  0.5763  0.7728 -0.4549
14384TIP3   OH264642   5.644   0.704   2.627  0.6886  0.2763 -0.1236
14384TIP3    H164643   5.656   0.701   2.722 -0.4045  1.3446  0.0658
14384TIP3    H264644   5.582   0.633   2.609  0.6470  0.2828 -0.0075
14385TIP3   OH264645   6.741   3.259   0.543  0.1745  0.2529  0.8698
14385TIP3    H164646   6.752   3.305   0.460 -0.1364 -0.9065  0.1656
14385TIP3    H264647   6.651   3.226   0.541  0.8075 -1.5665  0.7080
14386TIP3   OH264648   3.299   0.706   1.067 -0.0568 -0.2420 -0.1564
14386TIP3    H164649   3.288   0.792   1.026  1.5797 -0.7406 -1.7909
14386TIP3    H264650   3.219   0.694   1.119 -0.3491  2.2244  0.0948
14387TIP3   OH264651   6.779   4.123   2.408  0.5997 -0.8465 -0.1580
14387TIP3    H164652   6.761   4.217   2.415  1.7261 -0.7317  1.8309
14387TIP3    H264653   6.873   4.118   2.394  0.3432 -1.6767 -1.7964
14388TIP3   OH264654   2.403   4.047   1.118 -0.3591 -0.2396 -0.0063
14388TIP3    H164655   2.427   3.990   1.191 -0.4968  1.5362  1.5103
14388TIP3    H264656   2.308   4.055   1.124 -0.3648 -0.0392 -0.3400
14389TIP3   OH264657   2.637   1.952  16.585 -0.6634  0.0598 -0.0056
14389TIP3    H164658   2.606   2.043  16.584  0.4716  0.4766  0.8618
14389TIP3    H264659   2.560   1.900  16.610 -0.8627  0.9794  1.3765
14390TIP3   OH264660   2.269   2.400   0.746  0.4843  0.4545  0.0830
14390TIP3    H164661   2.289   2.427   0.836  1.8218 -0.3367  0.0594
14390TIP3    H264662   2.176   2.417   0.736  0.3044  0.5506  1.6247
14391TIP3   OH264663   0.800   5.229  14.911 -0.0968 -0.6137 -0.2051
14391TIP3    H164664   0.805   5.188  14.997  1.5343 -0.1745 -0.0518
14391TIP3    H264665   0.797   5.323  14.931 -0.3950 -0.5377 -0.6147
14392TIP3   OH264666   2.530   4.934  11.900  0.2071 -0.2306 -0.3488
14392TIP3    H164667   2.591   4.864  11.924 -0.4633 -0.7405 -0.1019
14392TIP3    H264668   2.562   4.965  11.816  1.0798 -0.1724 -0.0097
14393TIP3   OH264669   5.496   2.076   2.779  0.6998  0.2093  0.2788
14393TIP3    H164670   5.562   2.060   2.712 -0.0229 -1.1747 -0.1499
14393TIP3    H264671   5.497   1.997   2.833 -0.1905  0.4157  0.6173
14394TIP3   OH264672   1.625   2.228  11.905  0.1242 -0.3080 -0.6181
14394TIP3    H164673   1.604   2.138  11.878 -0.0699  0.3601 -2.8748
14394TIP3    H264674   1.540   2.271  11.912  0.2411 -0.1763  0.0789
14395TIP3   OH264675   4.396   5.160   6.592 -0.2957 -0.7756  0.0648
14395TIP3    H164676   4.425   5.083   6.544  0.2070  0.6999 -2.1690
14395TIP3    H264677   4.393   5.230   6.526 -2.5049  0.7095  1.5847
14396TIP3   OH264678   5.002   4.899  13.922 -0.0524 -0.1221 -0.5248
14396TIP3    H164679   5.087   4.940  13.935 -0.3715  0.5348 -0.4789
14396TIP3    H264680   5.011   4.812  13.962  0.5603 -0.0222 -0.4384
14397TIP3   OH264681   1.055   1.484  14.649  0.2709  0.1022 -0.2288
14397TIP3    H164682   0.977   1.430  14.657  0.2071  0.1890 -0.2663
14397TIP3    H264683   1.053   1.515  14.559  1.3670 -1.4670 -0.8505
14398TIP3   OH264684   1.983   0.653  13.807  0.3057 -0.0505 -0.0426
14398TIP3    H164685   1.947   0.741  13.805  0.7470  0.1252 -0.4360
14398TIP3    H264686   1.945   0.609  13.730  3.2732  1.1042 -2.4205
14399TIP3   OH264687   3.449   2.163   4.277 -0.6123 -0.5263  0.0134
14399TIP3    H164688   3.451   2.250   4.238  0.5169 -0.1182  0.9183
14399TIP3    H264689   3.399   2.175   4.358  0.6688 -0.4072  0.8047
14400TIP3   OH264690   4.559   1.005   4.603 -0.1903  0.5859 -0.1293
14400TIP3    H164691   4.503   0.942   4.649 -0.3905  1.6609  1.1542
14400TIP3    H264692   4.520   1.090   4.622  0.6982  1.1940 -0.9407
14401TIP3   OH264693   4.302   4.808   4.037 -0.1373  0.4975 -0.6289
14401TIP3    H164694   4.335   4.770   4.118 -2.1762 -0.3206 -0.1421
14401TIP3    H264695   4.332   4.748   3.968 -0.3246 -0.0473 -0.2361
14402TIP3   OH264696   1.364   3.231  13.382  0.1812 -0.2492 -0.0208
14402TIP3    H164697   1.422   3.265  13.314  0.0599 -0.9175 -0.4743
14402TIP3    H264698   1.394   3.140  13.395 -0.2161 -0.3287  0.3526
14403TIP3   OH264699   4.173   2.076   4.656 -0.2889 -0.1874 -0.0526
14403TIP3    H164700   4.231   2.144   4.623 -0.0748  0.0709  0.8214
14403TIP3    H264701   4.086   2.102   4.626  0.0049 -0.4401 -1.1513
14404TIP3   OH264702   5.423   3.048  16.537  0.0071  0.1435 -0.1018
14404TIP3    H164703   5.401   3.049  16.631 -0.7647 -0.4339 -0.2712
14404TIP3    H264704   5.444   3.139  16.517 -0.1793  0.3379  0.5475
14405TIP3   OH264705   6.100   4.275  16.600 -0.6425 -0.5029  0.1140
14405TIP3    H164706   6.035   4.323  16.653  0.1730  0.4188  0.3280
14405TIP3    H264707   6.159   4.235  16.665  0.5263  0.8615 -0.0433
14406TIP3   OH264708   1.300   2.133   5.555  0.4099  0.0029 -0.2438
14406TIP3    H164709   1.336   2.131   5.466  0.5292 -1.0650 -0.1914
14406TIP3    H264710   1.376   2.115   5.611  0.3630  0.8196  0.0885
14407TIP3   OH264711   1.209   3.127   0.785 -0.1186 -0.2263 -0.1146
14407TIP3    H164712   1.169   3.144   0.700  0.7863 -1.6024 -0.8422
14407TIP3    H264713   1.277   3.062   0.768  0.5337 -0.0426  1.5556
14408TIP3   OH264714   5.595   6.124  10.936  0.0490 -0.1521  0.5514
14408TIP3    H164715   5.521   6.185  10.939 -0.5700 -0.8957  0.7910
14408TIP3    H264716   5.569   6.058  10.872 -0.2810 -1.3770  1.8797
14409TIP3   OH264717   6.447   0.827   1.970 -0.9821  0.6949  0.5254
14409TIP3    H164718   6.368   0.777   1.992  1.5411 -2.9708  2.3618
14409TIP3    H264719   6.448   0.899   2.034 -1.1420 -1.3475  2.9827
14410TIP3   OH264720   1.453   0.419  11.309 -0.2905 -0.1346  0.4156
14410TIP3    H164721   1.391   0.361  11.353  0.6777 -0.5816  1.2241
14410TIP3    H264722   1.538   0.398  11.347  0.7260 -1.0089 -2.0763
14411TIP3   OH264723   0.689   2.976   4.469  0.2543 -0.0152 -0.4853
14411TIP3    H164724   0.687   2.882   4.451  0.7194  0.2150 -1.8247
14411TIP3    H264725   0.781   3.001   4.454  0.7991  0.1760  2.5783
14412TIP3   OH264726   0.489   3.765   6.070  0.1023  0.3604 -0.0407
14412TIP3    H164727   0.439   3.847   6.066  1.8141  1.4493 -0.0079
14412TIP3    H264728   0.574   3.787   6.031  1.4439 -0.7566  2.0958
14413TIP3   OH264729   3.733   6.526  15.532  0.2879  0.1711 -0.1458
14413TIP3    H164730   3.653   6.536  15.480  1.1928  1.5765 -1.3766
14413TIP3    H264731   3.730   6.599  15.594  0.0993 -0.4325  0.5703
14414TIP3   OH264732   5.121   5.236  15.776 -0.2394  0.5904  0.6295
14414TIP3    H164733   5.038   5.251  15.731  0.2525 -0.2750 -0.5999
14414TIP3    H264734   5.178   5.307  15.746  0.1723 -0.1408 -0.3495
14415TIP3   OH264735   0.699   5.018  12.990 -0.1079  0.3472 -0.5285
14415TIP3    H164736   0.697   4.969  12.907 -3.2296 -1.0339  0.2124
14415TIP3    H264737   0.770   4.978  13.040  1.6092  0.9785 -2.3273
14416TIP3   OH264738   6.265   0.453  12.547 -0.5030 -0.3160 -0.7532
14416TIP3    H164739   6.336   0.411  12.596  0.6568  1.1847 -1.0719
14416TIP3    H264740   6.192   0.392  12.553  0.6585 -1.6807  0.0156
14417TIP3   OH264741   2.494   5.577   2.671 -0.1983 -0.2120  0.2762
14417TIP3    H164742   2.439   5.528   2.731 -0.9675 -0.9599 -1.0037
14417TIP3    H264743   2.579   5.534   2.675 -1.2719 -2.8378 -2.0595
14418TIP3   OH264744   2.285   3.756   2.801 -0.3659  0.6064  0.1570
14418TIP3    H164745   2.206   3.755   2.856 -0.1681 -1.3829  0.4516
14418TIP3    H264746   2.326   3.671   2.815  2.2784  1.8487  0.5976
14419TIP3   OH264747   0.041   3.334  14.849 -0.0915 -0.4033 -0.3313
14419TIP3    H164748  -0.017   3.409  14.836  0.4392  0.2877  1.0865
14419TIP3    H264749   0.054   3.330  14.943  0.7883 -1.6096 -0.4816
14420TIP3   OH264750   2.387   0.352  17.209  0.2118  0.2567  0.0612
14420TIP3    H164751   2.321   0.295  17.248  0.2540 -1.0656 -1.6939
14420TIP3    H264752   2.388   0.430  17.265 -0.2870 -1.1844  2.1746
14421TIP3   OH264753   2.833   3.318   1.844  0.0080  0.1306 -0.6587
14421TIP3    H164754   2.801   3.341   1.756 -0.7736  2.1177  0.0897
14421TIP3    H264755   2.821   3.398   1.895 -1.5147 -1.5393  1.8062
14422TIP3   OH264756   4.148   2.256   0.181 -0.0749  0.0280  0.4572
14422TIP3    H164757   4.143   2.168   0.145 -0.5358 -0.0202  0.6373
14422TIP3    H264758   4.230   2.257   0.231  0.5499  0.0815 -0.5362
14423TIP3   OH264759   1.253   5.444   5.976 -0.1868 -0.3720  0.3988
14423TIP3    H164760   1.281   5.358   5.944 -0.3508 -0.4204  0.3861
14423TIP3    H264761   1.183   5.470   5.916 -1.0867 -0.8434  1.2118
14424TIP3   OH264762   5.335   0.476  14.794  0.2220 -0.0473 -0.3057
14424TIP3    H164763   5.310   0.568  14.789  0.5230 -0.0041 -1.1527
14424TIP3    H264764   5.297   0.437  14.715 -0.6571 -0.8435  0.4890
14425TIP3   OH264765   2.713   6.689  11.431  0.6355  0.5525 -0.2533
14425TIP3    H164766   2.791   6.732  11.467  1.9928 -3.0377  1.5789
14425TIP3    H264767   2.720   6.702  11.337  3.7907  0.0224 -0.2022
14426TIP3   OH264768   2.571   2.388  15.257  0.1021  0.0841 -0.0648
14426TIP3    H164769   2.554   2.481  15.243  1.4133  0.2125 -0.9692
14426TIP3    H264770   2.525   2.345  15.185 -0.4266  0.0366  0.2991
14427TIP3   OH264771   4.924   6.475  14.094  0.2451 -0.1625 -0.3564
14427TIP3    H164772   4.908   6.562  14.059 -0.4043  0.2401  0.8839
14427TIP3    H264773   4.987   6.489  14.165  0.8725 -0.8377 -0.7677
14428TIP3   OH264774   6.365   4.600   2.838  0.1342 -0.0581  0.1174
14428TIP3    H164775   6.276   4.634   2.832  0.9547  2.6040  1.2805
14428TIP3    H264776   6.359   4.529   2.901 -1.0429  0.7309  0.9473
14429TIP3   OH264777   4.176   6.671   2.220  0.1953  0.4806  0.4152
14429TIP3    H164778   4.097   6.639   2.176  0.2849  0.9448 -0.1024
14429TIP3    H264779   4.214   6.594   2.262  0.1093  0.0192 -0.3346
14430TIP3   OH264780   1.105   4.218  12.282 -0.2111 -0.1393 -0.3641
14430TIP3    H164781   1.081   4.269  12.205 -0.7031  1.3568  0.7332
14430TIP3    H264782   1.177   4.162  12.253  2.0506  2.9254 -1.0440
14431TIP3   OH264783   5.362   1.833   1.867  0.1803 -0.3324 -0.3232
14431TIP3    H164784   5.445   1.786   1.863 -0.7016 -1.8220 -2.6701
14431TIP3    H264785   5.343   1.857   1.777 -1.8284  0.2023  0.1896
14432TIP3   OH264786   6.067   1.900  14.510 -0.5645 -0.0144 -0.5001
14432TIP3    H164787   6.095   1.908  14.601  0.1298 -0.8111 -0.6271
14432TIP3    H264788   6.141   1.933  14.459 -0.2053 -1.2512 -0.8117
14433TIP3   OH264789   0.162   5.516   0.652 -0.2509  0.4521  0.4310
14433TIP3    H164790   0.073   5.486   0.671  0.0065 -1.6548 -1.3073
14433TIP3    H264791   0.217   5.439   0.669  0.9763  1.1222 -0.4028
14434TIP3   OH264792   4.627   6.317  13.775  0.4618  0.2457 -0.0570
14434TIP3    H164793   4.661   6.336  13.688 -0.4148 -1.4326 -0.8075
14434TIP3    H264794   4.693   6.352  13.835  2.5460 -1.1649 -1.4185
14435TIP3   OH264795   0.829   0.450   5.374  0.6751  0.0672  0.1928
14435TIP3    H164796   0.898   0.453   5.308 -1.0621  0.3502 -1.7203
14435TIP3    H264797   0.748   0.462   5.324 -0.9192 -1.9132  2.0958
14436TIP3   OH264798   5.873   4.050  13.325 -0.4449  0.5399 -0.5715
14436TIP3    H164799   5.876   3.992  13.249  0.5826  0.5942 -0.5884
14436TIP3    H264800   5.817   4.005  13.387  0.5735 -0.6327 -0.4685
14437TIP3   OH264801   3.573   1.622  12.894  0.0866 -0.8634 -0.3455
14437TIP3    H164802   3.541   1.579  12.814 -1.0008  0.7634 -0.8436
14437TIP3    H264803   3.511   1.694  12.908  0.2362 -1.1176  1.9958
14438TIP3   OH264804   1.294   1.307  15.591  0.6444 -0.1669 -0.3955
14438TIP3    H164805   1.292   1.399  15.619 -1.6033 -0.4103  0.4905
14438TIP3    H264806   1.372   1.271  15.632  0.1914  0.7677  1.3909
14439TIP3   OH264807   5.422   6.473  12.707 -0.2837 -0.4138 -0.5077
14439TIP3    H164808   5.473   6.466  12.626 -1.3541 -2.2667 -1.0670
14439TIP3    H264809   5.483   6.511  12.770  1.0943 -0.5133 -1.7261
14440TIP3   OH264810   2.020   4.290  17.236  0.5120 -0.1786  0.2384
14440TIP3    H164811   2.067   4.208  17.220 -1.2122 -0.9203 -1.3684
14440TIP3    H264812   1.932   4.263  17.263  0.4625  1.1667  1.5369
14441TIP3   OH264813   1.376   0.102  14.160  0.0225 -0.8446 -0.3310
14441TIP3    H164814   1.330   0.166  14.106  1.2971  0.2493 -0.1609
14441TIP3    H264815   1.329   0.103  14.244  1.0113  1.1784  0.2749
14442TIP3   OH264816   3.225   1.293  15.994 -0.1735  0.0017  0.2414
14442TIP3    H164817   3.207   1.219  15.936 -1.9726  0.0734  0.6561
14442TIP3    H264818   3.317   1.282  16.019  0.6203 -0.1429 -2.4293
14443TIP3   OH264819   4.637   2.351  13.440  0.1463  0.3717  0.2198
14443TIP3    H164820   4.592   2.279  13.484  1.0211 -0.1075  0.3356
14443TIP3    H264821   4.714   2.368  13.494  0.0168  1.3233  0.1294
14444TIP3   OH264822   6.128   4.078   3.955  0.0774  0.0965  0.1687
14444TIP3    H164823   6.221   4.098   3.951  0.1438 -0.3853 -1.5416
14444TIP3    H264824   6.092   4.143   4.014  1.1599  1.6792 -0.8342
14445TIP3   OH264825   3.038   6.140   4.889  0.1285 -0.0942 -0.2800
14445TIP3    H164826   3.086   6.058   4.902 -0.2602 -0.4107 -0.8049
14445TIP3    H264827   3.026   6.146   4.795 -0.7697  0.0321 -0.1680
14446TIP3   OH264828   1.331   1.090   5.321  0.3535  0.4446 -0.3271
14446TIP3    H164829   1.337   1.143   5.400  0.3448 -1.8007  1.2558
14446TIP3    H264830   1.318   1.001   5.352 -0.2322 -0.4548 -2.8891
14447TIP3   OH264831   4.724   2.753  10.918 -0.1882 -0.5572  0.1585
14447TIP3    H164832   4.698   2.780  10.830 -1.1038 -1.7325  0.0487
14447TIP3    H264833   4.809   2.795  10.932 -0.5089  0.4814 -0.8705
14448TIP3   OH264834   6.599   5.527   1.341 -0.1089 -0.3249  0.0000
14448TIP3    H164835   6.620   5.499   1.252 -1.7106  2.4581 -1.3944
14448TIP3    H264836   6.682   5.556   1.378  0.3213  0.1111 -1.2720
14449TIP3   OH264837   4.162   2.701   6.389 -0.2408  0.1079  0.5867
14449TIP3    H164838   4.212   2.726   6.467 -1.7246 -2.0626  2.3753
14449TIP3    H264839   4.132   2.612   6.407 -1.5748 -0.0774 -2.0227
14450TIP3   OH264840   6.017   3.656   2.691 -0.3521 -0.3958  0.4402
14450TIP3    H164841   6.067   3.708   2.629 -1.0933 -0.2508 -0.0523
14450TIP3    H264842   6.081   3.597   2.730  0.0212 -0.9386 -0.9394
14451TIP3   OH264843   0.372   4.810  16.015 -0.1058  0.6752  0.2501
14451TIP3    H164844   0.342   4.896  16.045 -2.7702 -0.6277  1.6466
14451TIP3    H264845   0.332   4.748  16.076  0.3000 -1.7010 -1.7402
14452TIP3   OH264846   2.163   1.680  17.077 -0.1888  0.2383  0.7269
14452TIP3    H164847   2.214   1.650  17.001 -1.0515  2.3324 -0.7951
14452TIP3    H264848   2.227   1.726  17.131 -0.0134  0.9587 -0.0627
14453TIP3   OH264849   0.319   4.660   0.566 -0.0326 -0.0524 -0.0339
14453TIP3    H164850   0.371   4.601   0.512  1.6513  2.1444 -0.9980
14453TIP3    H264851   0.381   4.693   0.631 -1.1256  0.0859  0.9641
14454TIP3   OH264852   6.377   3.638  11.847  0.1267  0.6453 -0.1811
14454TIP3    H164853   6.444   3.570  11.837 -0.4180  0.1263 -0.3975
14454TIP3    H264854   6.359   3.641  11.941 -0.8366 -0.4993 -0.3113
14455TIP3   OH264855   2.635   5.793   2.343  0.4269  0.4845 -0.3059
14455TIP3    H164856   2.644   5.884   2.370  0.7646  0.0654  1.0818
14455TIP3    H264857   2.673   5.789   2.255  3.0575  1.1259  0.7118
14456TIP3   OH264858   5.858   4.712  13.727  0.3360 -0.7124  0.0533
14456TIP3    H164859   5.944   4.719  13.768 -0.2725  2.1486  1.1009
14456TIP3    H264860   5.822   4.630  13.760  1.4778 -0.4719  2.1049
14457TIP3   OH264861   3.848   2.821   2.992  0.3563 -0.0247 -0.4490
14457TIP3    H164862   3.887   2.757   3.051  1.5017  0.8832 -0.1830
14457TIP3    H264863   3.755   2.796   2.988  0.5469 -0.9918  0.5462
14458TIP3   OH264864   6.426   0.151   0.854  0.1837  0.0133 -0.0265
14458TIP3    H164865   6.470   0.233   0.877 -1.4506  0.4336  1.8548
14458TIP3    H264866   6.478   0.083   0.897 -0.3078  0.4093  1.2580
14459TIP3   OH264867   3.232   0.326  11.705  0.5088  0.3533  0.0281
14459TIP3    H164868   3.240   0.354  11.797 -0.8973 -0.3804  0.4075
14459TIP3    H264869   3.164   0.259  11.707  0.8678 -0.0722 -1.4849
14460TIP3   OH264870   3.609   0.748  13.715  0.0587  0.2461 -0.2540
14460TIP3    H164871   3.661   0.709  13.785 -0.4607  2.2005  1.3338
14460TIP3    H264872   3.608   0.682  13.646  1.3321 -1.4254  1.2196
14461TIP3   OH264873   1.856   5.644  15.291  0.2974 -0.8934 -0.5092
14461TIP3    H164874   1.916   5.658  15.365  0.4374  0.5811 -0.8844
14461TIP3    H264875   1.774   5.619  15.332 -0.0003  1.1696  0.2630
14462TIP3   OH264876   6.642   5.990  13.021  0.4159  0.3758  0.1153
14462TIP3    H164877   6.719   5.971  12.967  0.2073 -1.4796  0.3774
14462TIP3    H264878   6.668   5.963  13.109  0.1554  1.7212  0.6269
14463TIP3   OH264879   1.407   3.964   5.601  0.0500  0.5729 -0.0548
14463TIP3    H164880   1.454   3.900   5.548 -2.3350 -0.8536 -0.5756
14463TIP3    H264881   1.392   3.920   5.685  1.1846  1.7085  0.7890
14464TIP3   OH264882   3.797   1.400   0.716  0.8886  0.3957 -0.1265
14464TIP3    H164883   3.853   1.412   0.792  1.1282  0.4788 -0.3162
14464TIP3    H264884   3.772   1.489   0.690  2.0433  0.4602 -1.0686
14465TIP3   OH264885   1.268   2.793   1.114  0.2714 -0.4742 -0.0312
14465TIP3    H164886   1.182   2.803   1.155  0.6396 -0.2152  0.7003
14465TIP3    H264887   1.249   2.764   1.024 -0.5633 -0.6556  0.1966
14466TIP3   OH264888   5.121   4.146   4.820 -0.3811 -0.2234  0.2563
14466TIP3    H164889   5.031   4.125   4.845 -0.6978  0.5607 -0.2133
14466TIP3    H264890   5.161   4.179   4.901 -0.9149  0.7255  0.1352
14467TIP3   OH264891   2.208   3.646  12.802  0.6682  0.1805  0.1207
14467TIP3    H164892   2.130   3.607  12.764 -1.9395  1.6877  3.3773
14467TIP3    H264893   2.245   3.700  12.733 -0.5132 -1.4066 -1.8413
14468TIP3   OH264894   1.297   3.111   3.745 -0.0360  0.3576  0.3863
14468TIP3    H164895   1.260   3.198   3.732 -1.8855 -0.3996  0.3257
14468TIP3    H264896   1.233   3.051   3.707  1.4275 -1.0313 -0.0464
14469TIP3   OH264897   1.473   6.467   2.693  0.5046 -0.1801 -0.4244
14469TIP3    H164898   1.505   6.377   2.685  0.3033 -0.3002  0.0971
14469TIP3    H264899   1.426   6.483   2.611  1.6269 -0.1087 -1.0678
14470TIP3   OH264900   2.111   3.191   4.959  0.3803 -0.0084 -0.4018
14470TIP3    H164901   2.168   3.244   5.014  1.1270 -1.7178  0.5656
14470TIP3    H264902   2.027   3.237   4.959  0.1690 -0.1970  2.6978
14471TIP3   OH264903   2.817   5.959  11.192 -0.4317  0.2943  0.1130
14471TIP3    H164904   2.851   5.910  11.267  1.5895 -0.0058 -0.9236
14471TIP3    H264905   2.754   5.899  11.150  1.7392 -1.4068 -0.9409
14472TIP3   OH264906   6.519   0.090   6.137 -0.5566  0.6799 -0.3365
14472TIP3    H164907   6.588   0.049   6.190 -0.6431  0.1251 -0.6414
14472TIP3    H264908   6.499   0.172   6.182 -0.3101  0.4290  0.2332
14473TIP3   OH264909   4.849   1.246   5.625  0.5877  0.2709  0.0794
14473TIP3    H164910   4.887   1.197   5.698 -0.6676 -0.7512  0.0878
14473TIP3    H264911   4.918   1.250   5.560  0.8358 -1.2552  0.2192
14474TIP3   OH264912   1.291   3.447  14.180  0.3074 -0.0718 -0.2281
14474TIP3    H164913   1.224   3.453  14.112  0.6811  2.0214 -0.4550
14474TIP3    H264914   1.357   3.388  14.142 -0.5760 -0.8164 -0.6770
14475TIP3   OH264915   3.682   4.243   4.380 -0.1728  0.5200  0.0093
14475TIP3    H164916   3.642   4.220   4.464 -0.4411  0.1853 -0.2063
14475TIP3    H264917   3.674   4.338   4.374 -0.6883  0.4838  0.0956
14476TIP3   OH264918   5.545   2.144  13.204  0.1474 -0.1194 -0.1075
14476TIP3    H164919   5.539   2.197  13.125  0.2439 -2.4608 -1.7874
14476TIP3    H264920   5.634   2.107  13.201  0.0078 -0.5711  0.8735
14477TIP3   OH264921   5.769   2.928   4.132  0.1532 -0.0469 -0.0252
14477TIP3    H164922   5.691   2.889   4.093 -0.4974 -0.8899  2.0142
14477TIP3    H264923   5.843   2.885   4.089 -0.5404 -1.1194 -0.1558
14478TIP3   OH264924   2.832   1.265   1.528 -0.0070 -0.1762  0.3872
14478TIP3    H164925   2.925   1.257   1.504 -0.6098 -2.1093 -1.5780
14478TIP3    H264926   2.805   1.349   1.489  0.5499 -0.3611 -0.4314
14479TIP3   OH264927   2.210   6.090  15.723  0.0879 -0.0857  0.5668
14479TIP3    H164928   2.138   6.107  15.663  0.3511 -0.2775  0.1917
14479TIP3    H264929   2.168   6.060  15.803 -0.2577  0.0077  0.4228
14480TIP3   OH264930   2.249   6.658   4.716  0.1470  0.0093  0.2765
14480TIP3    H164931   2.196   6.578   4.720  0.0866 -0.0652 -1.3684
14480TIP3    H264932   2.185   6.728   4.727 -0.5244 -0.0444 -2.5964
14481TIP3   OH264933   4.150   3.738   4.192 -0.9209  0.1150  0.0147
14481TIP3    H164934   4.112   3.822   4.167  0.6122  0.1440 -2.5116
14481TIP3    H264935   4.156   3.689   4.111 -1.4935 -2.3969  1.3787
14482TIP3   OH264936   0.286   0.986   6.225  0.5472  0.2459  0.0572
14482TIP3    H164937   0.379   1.008   6.222  0.4792  0.4711 -0.7613
14482TIP3    H264938   0.264   0.960   6.135 -0.1989  0.2742  0.2181
14483TIP3   OH264939   6.607   2.132   5.364 -0.1675 -0.6634  0.2582
14483TIP3    H164940   6.639   2.098   5.280 -1.2563 -1.4909  0.1479
14483TIP3    H264941   6.626   2.225   5.362 -0.4007 -0.6290 -1.0271
14484TIP3   OH264942   3.024   0.958  15.131 -0.2135  0.0300 -0.1708
14484TIP3    H164943   3.055   0.871  15.157  1.4590  0.5659 -0.2223
14484TIP3    H264944   3.026   0.956  15.035  0.9202  0.4576 -0.1735
14485TIP3   OH264945   6.313   3.919  14.197 -0.2531  0.3579  0.4170
14485TIP3    H164946   6.290   3.922  14.104  0.8605 -0.3287  0.1014
14485TIP3    H264947   6.235   3.952  14.242 -1.4337 -0.8308 -0.6502
14486TIP3   OH264948   6.721   1.684  12.661  0.2257  0.4011  0.5508
14486TIP3    H164949   6.737   1.632  12.741  1.3286  4.3798  3.2030
14486TIP3    H264950   6.679   1.764  12.693 -1.2607  1.3083 -3.2336
14487TIP3   OH264951   2.566   3.905  15.689  0.0527  0.3975  0.0300
14487TIP3    H164952   2.617   3.978  15.725  0.8622 -0.1410  0.0057
14487TIP3    H264953   2.556   3.844  15.763  1.3479 -0.5107 -0.5044
14488TIP3   OH264954   2.374   3.684   2.014 -0.4077  0.5894 -0.1252
14488TIP3    H164955   2.294   3.732   2.036 -1.2670 -0.1892 -1.3992
14488TIP3    H264956   2.388   3.624   2.087 -2.2976 -0.8568 -0.8812
14489TIP3   OH264957   4.140   5.715  11.367 -0.0184 -0.3207 -0.3518
14489TIP3    H164958   4.227   5.677  11.356 -0.0323 -0.1988 -0.8952
14489TIP3    H264959   4.134   5.782  11.299 -0.5606 -0.3760 -0.3668
14490TIP3   OH264960   1.845   6.742   0.692  0.5576  0.3091 -0.4348
14490TIP3    H164961   1.756   6.756   0.660  0.1340  0.0177  0.6016
14490TIP3    H264962   1.849   6.649   0.714  0.2799  0.8043  1.9602
14491TIP3   OH264963   0.205   6.408  13.891  0.1349 -0.5129 -0.4082
14491TIP3    H164964   0.203   6.446  13.804  2.0203 -1.7319 -1.0525
14491TIP3    H264965   0.201   6.313  13.877 -2.5482 -0.7218  1.0419
14492TIP3   OH264966   4.505   3.864  13.868 -0.0881  0.0277  0.0783
14492TIP3    H164967   4.462   3.783  13.841 -1.6343  1.0037 -0.5031
14492TIP3    H264968   4.576   3.834  13.925  0.0566 -1.7836 -0.9606
14493TIP3   OH264969   3.418   1.235   2.512  0.0460 -0.1446  0.4489
14493TIP3    H164970   3.410   1.215   2.418  0.3710 -0.6398  0.5219
14493TIP3    H264971   3.367   1.315   2.524  1.1287  0.6862 -0.4006
14494TIP3   OH264972   0.316   4.734   2.633  0.6311  0.0647  0.0148
14494TIP3    H164973   0.292   4.661   2.690 -0.0283  0.0421 -0.2854
14494TIP3    H264974   0.274   4.714   2.549  2.0327 -0.1849 -0.6671
14495TIP3   OH264975   3.746   5.570   3.690  0.0371  0.2518  0.0818
14495TIP3    H164976   3.748   5.631   3.764 -0.2185 -0.4027  0.6497
14495TIP3    H264977   3.689   5.612   3.625 -0.9044  0.1997  0.8469
14496TIP3   OH264978   2.402   3.531   0.433 -0.0934  0.6860  0.2305
14496TIP3    H164979   2.370   3.545   0.522  1.7200 -0.5928  1.1560
14496TIP3    H264980   2.448   3.447   0.437 -0.9321  0.0295 -2.2064
14497TIP3   OH264981   6.175   1.641   3.920  0.0234  0.3328  0.1528
14497TIP3    H164982   6.096   1.608   3.876  0.4732 -0.8834  0.2158
14497TIP3    H264983   6.169   1.607   4.009  0.0412  1.2420  0.5137
14498TIP3   OH264984   1.219   2.079   0.786  0.0260 -0.0940  0.3750
14498TIP3    H164985   1.283   2.013   0.762 -0.1857 -0.0836 -0.2519
14498TIP3    H264986   1.192   2.117   0.702  0.1174  0.7560  0.7188
14499TIP3   OH264987   3.526   0.863   0.724 -0.6289  0.8427  0.1386
14499TIP3    H164988   3.491   0.817   0.648  0.7657  0.3961 -0.2502
14499TIP3    H264989   3.613   0.827   0.737 -1.4170 -0.2838  2.9803
14500TIP3   OH264990   2.381   5.836   2.710  0.5422  0.4363 -0.7523
14500TIP3    H164991   2.377   5.744   2.684 -1.0741  0.2747 -0.0243
14500TIP3    H264992   2.458   5.841   2.766 -0.3975 -0.9210  0.7536
14501TIP3   OH264993   6.653   1.736  11.802  0.0273 -0.0122  0.3190
14501TIP3    H164994   6.640   1.823  11.765 -1.8918  0.4439  1.8571
14501TIP3    H264995   6.692   1.753  11.888  1.0373 -0.7986  0.0346
14502TIP3   OH264996   0.606   2.969   5.444  0.0727  0.3262 -0.4969
14502TIP3    H164997   0.681   2.983   5.386  0.1616  1.8182 -0.0680
14502TIP3    H264998   0.540   2.927   5.388  0.4028  1.1214 -1.5140
14503TIP3   OH264999   4.053   5.225   1.343  0.4920 -0.2639 -0.2090
14503TIP3    H165000   3.993   5.299   1.331  0.1488 -0.2548  1.3503
14503TIP3    H265001   4.013   5.173   1.412  0.6312 -2.0458 -1.4092
14504TIP3   OH265002   5.348   4.220  14.014 -0.4280 -0.1709  0.3805
14504TIP3    H165003   5.312   4.202  13.927  3.3586 -2.0268 -1.0045
14504TIP3    H265004   5.360   4.134  14.054  2.1698  0.2897  0.7729
14505TIP3   OH265005   5.177   1.567   2.645  0.4122  0.0155 -0.2341
14505TIP3    H165006   5.207   1.538   2.559 -1.2261 -0.7195 -0.6059
14505TIP3    H265007   5.257   1.594   2.691  1.2965  0.7541 -2.0844
14506TIP3   OH265008   0.598   4.075   1.823 -0.2652  0.5350  0.4440
14506TIP3    H165009   0.671   4.133   1.801 -0.9126  0.9246 -0.7537
14506TIP3    H265010   0.521   4.116   1.782 -0.8605 -0.7947  0.1716
14507TIP3   OH265011   3.450   3.210   5.896 -0.5036  0.1642  0.4029
14507TIP3    H165012   3.403   3.221   5.813 -0.5040  0.1156  0.3969
14507TIP3    H265013   3.491   3.296   5.911  1.0586 -0.3634 -0.6145
14508TIP3   OH265014   5.742   4.150  12.471  0.8879  0.2316  0.3646
14508TIP3    H165015   5.764   4.067  12.514  0.5235 -0.1808 -0.2175
14508TIP3    H265016   5.757   4.217  12.538  0.2501 -0.3972  1.1698
14509TIP3   OH265017   2.846   2.597  15.179  0.6404  0.1865  0.0437
14509TIP3    H165018   2.840   2.525  15.116 -2.7688  0.8623 -0.6021
14509TIP3    H265019   2.876   2.671  15.127 -0.8304  0.4106 -0.5290
14510TIP3   OH265020   0.398   2.232  14.569 -0.0884  0.0416 -0.7239
14510TIP3    H165021   0.423   2.187  14.649  0.6086  1.0945 -0.3222
14510TIP3    H265022   0.330   2.177  14.530  0.0083 -0.7998  0.2652
14511TIP3   OH265023   4.175   5.873  10.731 -0.0423 -0.0770  0.6714
14511TIP3    H165024   4.251   5.911  10.688 -0.8433 -1.4446 -2.2364
14511TIP3    H265025   4.212   5.810  10.793  1.1657  1.8319  2.0056
14512TIP3   OH265026   2.322   6.746   5.221  0.1474  0.6223 -0.4935
14512TIP3    H165027   2.363   6.826   5.254  0.9041  0.7921 -1.7621
14512TIP3    H265028   2.240   6.775   5.181 -1.0858  0.3341  1.7041
14513TIP3   OH265029   5.538   4.849   0.044  0.2999 -0.4291 -0.0977
14513TIP3    H165030   5.609   4.847   0.107  0.5376 -1.6288 -0.3825
14513TIP3    H265031   5.482   4.774   0.067 -0.3279 -0.0984 -0.4916
14514TIP3   OH265032   0.335   6.417   0.951  0.0945  0.3577  0.0695
14514TIP3    H165033   0.394   6.474   0.902  0.7482 -1.4939 -1.4312
14514TIP3    H265034   0.366   6.422   1.041  1.0662  1.2090 -0.2843
14515TIP3   OH265035   0.159   1.459   2.711 -0.1716 -0.0115  0.3021
14515TIP3    H165036   0.210   1.417   2.642 -0.5583  0.8525 -0.5328
14515TIP3    H265037   0.115   1.533   2.668 -1.2973 -0.1028  1.2241
14516TIP3   OH265038   1.265   2.952   4.248  0.6003  0.3807 -0.2318
14516TIP3    H165039   1.323   2.885   4.284  0.2371 -0.1683 -0.6667
14516TIP3    H265040   1.220   2.988   4.325  0.0748 -0.5601 -0.0896
14517TIP3   OH265041   4.324   4.312   3.732 -0.1205 -0.4325  0.9316
14517TIP3    H165042   4.386   4.265   3.787  0.7418  0.4185  0.7164
14517TIP3    H265043   4.312   4.397   3.775  0.2725  0.0981  0.0195
14518TIP3   OH265044   0.965   5.118   3.667  0.4882  0.0001  0.1682
14518TIP3    H165045   1.037   5.103   3.729  0.2068  0.5747  0.6376
14518TIP3    H265046   0.992   5.196   3.618  0.8705 -0.6549 -0.6742
14519TIP3   OH265047   0.664   0.632   3.638  0.4034 -0.0074 -0.2810
14519TIP3    H165048   0.630   0.567   3.700  1.5072 -1.2590 -0.9225
14519TIP3    H265049   0.594   0.646   3.575  0.2597 -0.8338 -0.3098
14520TIP3   OH265050   6.822   1.196  15.170  0.1723  0.1946 -0.1696
14520TIP3    H165051   6.899   1.205  15.114  0.6768 -2.4430  0.0159
14520TIP3    H265052   6.753   1.243  15.122  0.2459 -2.9806 -3.8083
14521TIP3   OH265053   6.414   5.439  12.040  0.1006 -0.6006 -0.4436
14521TIP3    H165054   6.487   5.500  12.056 -0.7529  0.7696 -1.5267
14521TIP3    H265055   6.433   5.364  12.095  1.1493  0.7037  1.0572
14522TIP3   OH265056   3.948   2.172  11.222 -0.0536  0.0028 -0.3822
14522TIP3    H165057   3.987   2.161  11.135 -1.0819  1.0093 -1.0149
14522TIP3    H265058   3.890   2.096  11.232 -1.6689  0.9927 -1.6064
14523TIP3   OH265059   5.506   2.390  13.373  0.1716 -0.2293 -0.1548
14523TIP3    H165060   5.523   2.313  13.319  0.6076 -0.5538  0.4309
14523TIP3    H265061   5.539   2.464  13.321 -0.8454 -0.3470 -0.9990
14524TIP3   OH265062   5.359   2.766  13.828 -0.3365 -0.3922 -0.9550
14524TIP3    H165063   5.268   2.781  13.800 -0.2132  1.9707 -0.3590
14524TIP3    H265064   5.402   2.733  13.749 -1.3463  0.1698 -1.7877
14525TIP3   OH265065   1.906   4.372   3.509 -0.4016 -0.2099 -0.3416
14525TIP3    H165066   1.887   4.451   3.458  2.0004  0.4522 -0.3314
14525TIP3    H265067   1.821   4.345   3.544 -1.2069  2.9310  0.4554
14526TIP3   OH265068   5.817   4.418   5.508 -0.4703 -0.3337  0.3439
14526TIP3    H165069   5.778   4.336   5.539 -1.7978 -0.3299 -1.1880
14526TIP3    H265070   5.807   4.479   5.581 -0.7570 -1.1389  0.9823
14527TIP3   OH265071   5.978   2.822  11.616  0.6024  0.2052 -0.3344
14527TIP3    H165072   6.070   2.807  11.637  0.4467 -0.6583 -0.2329
14527TIP3    H265073   5.960   2.763  11.543  0.8108  2.2826 -2.1839
14528TIP3   OH265074   0.564   2.074   4.943 -0.1720  0.4656  0.3000
14528TIP3    H165075   0.551   2.160   4.904  0.6425  0.2970 -0.3820
14528TIP3    H265076   0.527   2.013   4.880  0.2198  0.2554  0.2676
14529TIP3   OH265077   1.301   0.698   1.650 -0.6460  0.0824 -0.2621
14529TIP3    H165078   1.279   0.696   1.556  1.9543 -1.5990 -0.9537
14529TIP3    H265079   1.396   0.686   1.652 -0.1501  3.2632  2.5210
14530TIP3   OH265080   1.244   6.810  16.570  0.1561 -0.0017  0.3786
14530TIP3    H165081   1.339   6.810  16.578  0.0851 -1.9492  1.8292
14530TIP3    H265082   1.225   6.886  16.514  2.5446  0.3167 -0.1160
14531TIP3   OH265083   0.609   4.338  14.019 -0.0202 -0.2117 -0.3006
14531TIP3    H165084   0.546   4.284  13.972 -1.0957 -0.1471  1.0106
14531TIP3    H265085   0.633   4.406  13.957  0.2938 -1.3798 -1.4998
14532TIP3   OH265086   6.149   1.277   4.087 -0.4723  0.0680 -0.0290
14532TIP3    H165087   6.223   1.293   4.028  1.5707 -0.7068  2.1812
14532TIP3    H265088   6.166   1.335   4.161 -1.4281 -1.0198  1.0659
14533TIP3   OH265089   3.921   3.476   2.831  0.3276 -0.2442 -0.8022
14533TIP3    H165090   3.954   3.388   2.812 -1.7641 -0.6852 -3.0274
14533TIP3    H265091   3.920   3.520   2.745 -0.5828  1.2216 -0.0845
14534TIP3   OH265092   4.897   5.922   5.189  0.5510 -0.3051 -0.0261
14534TIP3    H165093   4.985   5.933   5.153  1.1884  2.1076  1.9861
14534TIP3    H265094   4.910   5.866   5.266  0.6719  1.4161  1.2495
14535TIP3   OH265095   0.296   2.948  12.917 -0.0772 -0.5791  1.4054
14535TIP3    H165096   0.214   2.966  12.870  1.0012  0.9659 -0.0029
14535TIP3    H265097   0.296   3.012  12.988 -0.0924 -0.5724  1.3991
14536TIP3   OH265098   5.219   0.983  15.683 -0.0535 -0.3959 -0.2039
14536TIP3    H165099   5.194   0.904  15.731 -1.0949 -0.4819 -0.8613
14536TIP3    H265100   5.199   1.055  15.744  2.4672 -0.6485  1.0739
14537TIP3   OH265101   3.670   4.870  12.897 -0.3039  0.0128 -0.3005
14537TIP3    H165102   3.671   4.946  12.840  0.0095  1.5732  1.6755
14537TIP3    H265103   3.581   4.868  12.933 -0.0856 -0.0587  0.2524
14538TIP3   OH265104   1.668   0.102   4.890  0.2147 -0.2484 -0.2481
14538TIP3    H165105   1.590   0.153   4.869 -0.2333 -0.5905  0.5326
14538TIP3    H265106   1.730   0.122   4.820 -0.9036 -0.7139 -1.4154
14539TIP3   OH265107   1.284   2.729   2.355  0.1639 -0.2305  0.0465
14539TIP3    H165108   1.276   2.720   2.260  1.1750 -2.5008  0.1012
14539TIP3    H265109   1.195   2.718   2.388 -0.1526  0.2878 -0.6165
14540TIP3   OH265110   1.376   4.068  14.845 -0.0674 -0.2598  0.4734
14540TIP3    H165111   1.306   4.060  14.910  0.4001 -0.1255  0.9981
14540TIP3    H265112   1.379   3.982  14.802 -2.2204  0.4603 -1.2878
14541TIP3   OH265113   2.176   2.404   5.975  0.5578 -0.0494  0.2101
14541TIP3    H165114   2.139   2.450   6.050  0.7152 -0.5928  0.6246
14541TIP3    H265115   2.268   2.390   5.998  0.7719  0.3587 -0.3647
14542TIP3   OH265116   3.971   2.353  15.450  0.2480  0.5045 -0.0221
14542TIP3    H165117   3.949   2.310  15.533  1.5990 -1.5634 -0.6590
14542TIP3    H265118   3.897   2.336  15.393  0.7545 -1.0171 -0.2528
14543TIP3   OH265119   1.953   2.591   5.828 -0.0935  0.1968  0.3331
14543TIP3    H165120   2.029   2.607   5.883 -0.6123 -1.0010  1.4678
14543TIP3    H265121   1.974   2.509   5.783 -0.5787  0.0017  0.4525
14544TIP3   OH265122   1.468   2.538   2.942  0.1763 -0.4313  0.3605
14544TIP3    H165123   1.500   2.551   3.032  1.7323  2.3583 -0.4641
14544TIP3    H265124   1.376   2.567   2.946  0.2990 -0.0856  1.0278
14545TIP3   OH265125   1.599   6.357  16.020  0.0030  0.1283  0.7338
14545TIP3    H165126   1.514   6.337  15.981  0.2536 -1.2998  0.8617
14545TIP3    H265127   1.582   6.361  16.114  0.0333  0.0796  0.7415
14546TIP3   OH265128   1.451   4.170  15.546  0.3578  0.0823 -0.5407
14546TIP3    H165129   1.424   4.245  15.493  0.2739  0.5562  0.1610
14546TIP3    H265130   1.453   4.097  15.485  0.2018  0.6079 -1.1841
14547TIP3   OH265131   4.381   4.711  14.194 -0.2796  0.0746 -0.1735
14547TIP3    H165132   4.441   4.681  14.262  0.1488 -0.9395 -0.9797
14547TIP3    H265133   4.335   4.632  14.166 -0.4453  0.4769 -1.0652
14548TIP3   OH265134   4.573   6.525  11.169 -0.0446 -0.7687  0.1080
14548TIP3    H165135   4.654   6.550  11.124  1.0697 -2.2771  1.1346
14548TIP3    H265136   4.527   6.469  11.106 -0.6112  0.5541 -0.6946
14549TIP3   OH265137   0.894   6.584   2.316 -0.5539  0.2611  0.1745
14549TIP3    H165138   0.937   6.638   2.249  0.2685 -1.1647 -0.4746
14549TIP3    H265139   0.801   6.595   2.299 -0.3663  0.4378 -0.7800
14550TIP3   OH265140   0.934   3.618  14.131  0.5059 -0.1135 -0.1544
14550TIP3    H165141   0.894   3.703  14.110 -1.4042 -0.5444  1.4176
14550TIP3    H265142   0.981   3.594  14.051 -0.7278  1.4050 -1.4294
14551TIP3   OH265143   1.468   3.930   4.828 -0.9203 -0.6313 -0.3763
14551TIP3    H165144   1.401   3.949   4.894 -1.0469 -0.5850 -0.5189
14551TIP3    H265145   1.424   3.945   4.744  0.2948  3.1401 -0.5355
14552TIP3   OH265146   3.110   6.293   4.332 -0.2552  0.0256  0.4446
14552TIP3    H165147   3.028   6.259   4.366 -1.5065  0.5721 -1.7864
14552TIP3    H265148   3.135   6.363   4.393 -1.4285 -0.1804  1.1872
14553TIP3   OH265149   2.160   0.545  16.764  0.6223  0.4139  0.5612
14553TIP3    H165150   2.203   0.479  16.709  1.7293  1.8851 -0.4052
14553TIP3    H265151   2.093   0.496  16.812  3.4051 -2.1351  2.2937
14554TIP3   OH265152   5.928   2.222   5.784 -0.1503  0.4400  0.0619
14554TIP3    H165153   5.877   2.279   5.841 -0.6880  1.1360 -1.0696
14554TIP3    H265154   5.874   2.144   5.774 -0.1268  0.3824  0.3661
14555TIP3   OH265155   3.832   0.606  12.288 -0.0916 -0.4727 -0.3611
14555TIP3    H165156   3.743   0.591  12.320 -0.3888  1.2876 -0.2244
14555TIP3    H265157   3.836   0.700  12.270  2.0466 -0.2942  0.6283
14556TIP3   OH265158   6.545   0.708   5.516  0.2064 -0.2896 -0.2171
14556TIP3    H165159   6.589   0.791   5.497 -1.2013  0.2005 -1.5175
14556TIP3    H265160   6.606   0.641   5.485  0.2254  0.3598 -1.6759
14557TIP3   OH265161   5.800   3.025   5.821  0.1290  0.6818 -0.0454
14557TIP3    H165162   5.741   2.958   5.854  0.9499 -0.0519 -0.0278
14557TIP3    H265163   5.787   3.099   5.880 -1.5514  0.9449 -0.6911
14558TIP3   OH265164   3.743   2.981  16.943 -0.0212 -0.3151  0.4228
14558TIP3    H165165   3.697   3.030  16.875 -0.1120  0.5715  1.1179
14558TIP3    H265166   3.675   2.929  16.986 -0.1116 -0.1876  0.4331
14559TIP3   OH265167   4.268   0.997  15.891 -0.1988  0.1966  0.5184
14559TIP3    H165168   4.307   1.083  15.876  0.6853 -0.0630  1.2423
14559TIP3    H265169   4.209   1.009  15.965  0.3710  0.0590  1.0007
14560TIP3   OH265170   2.539   2.224   4.322 -0.2615 -0.1016  0.3325
14560TIP3    H165171   2.557   2.302   4.269 -0.6411  0.4851  1.0371
14560TIP3    H265172   2.621   2.175   4.322  0.1309  0.5459  0.2715
14561TIP3   OH265173   0.238   3.984  13.891  0.3364  0.3943 -0.4471
14561TIP3    H165174   0.205   4.071  13.867  1.4075  0.8333 -0.4057
14561TIP3    H265175   0.307   4.002  13.954 -1.1380 -0.6464  1.5681
14562TIP3   OH265176   1.024   5.860   1.371 -0.3875 -0.0655  0.4357
14562TIP3    H165177   1.114   5.879   1.396 -0.1913  0.6367 -0.7147
14562TIP3    H265178   0.993   5.941   1.329 -1.3096 -0.5373  0.1715
14563TIP3   OH265179   2.122   3.882   6.101 -0.5909 -0.0868 -0.2556
14563TIP3    H165180   2.135   3.836   6.184  0.2573 -0.5573 -0.6384
14563TIP3    H265181   2.156   3.822   6.034  1.3937  1.4306 -0.7055
14564TIP3   OH265182   4.824   1.087  13.004 -0.2655  0.1248  0.5810
14564TIP3    H165183   4.884   1.126  13.067 -0.6467 -0.2612  1.2025
14564TIP3    H265184   4.740   1.084  13.050 -0.1671 -1.7648  0.7136
14565TIP3   OH265185   1.967   6.193  16.754 -0.1531 -0.1223  0.0531
14565TIP3    H165186   2.032   6.165  16.689 -0.0735 -0.0834  0.1167
14565TIP3    H265187   1.886   6.201  16.704 -0.2767 -0.9027  0.1235
14566TIP3   OH265188   3.116   2.135   1.599  0.0437  0.2999 -0.3539
14566TIP3    H165189   3.130   2.176   1.685 -0.3694  0.0070 -0.1374
14566TIP3    H265190   3.054   2.064   1.617  0.8639 -0.5161 -0.6937
14567TIP3   OH265191   0.605   2.486   4.245 -0.1912  0.7593 -0.1081
14567TIP3    H165192   0.527   2.442   4.278  1.0053 -0.7629  0.8877
14567TIP3    H265193   0.671   2.416   4.241  0.9397  1.8523 -1.5420
14568TIP3   OH265194   6.541   0.175  11.891 -0.3350 -0.1246 -0.5433
14568TIP3    H165195   6.504   0.262  11.873 -1.9692 -0.9185 -1.2031
14568TIP3    H265196   6.570   0.144  11.805 -0.4678 -0.5562 -0.4305
14569TIP3   OH265197   5.540   1.129   2.562 -0.0202 -0.4096  0.2461
14569TIP3    H165198   5.470   1.105   2.502 -0.1345  0.3870  0.0553
14569TIP3    H265199   5.510   1.095   2.647 -0.6285 -0.0933  0.1652
14570TIP3   OH265200   1.517   4.530   0.644  0.9314  0.2629 -0.0548
14570TIP3    H165201   1.569   4.459   0.681  1.7111  0.7236 -0.2455
14570TIP3    H265202   1.462   4.489   0.578 -0.0829 -0.4856  1.1977
14571TIP3   OH265203   5.642   1.799   1.425  0.2263  0.2257  0.2280
14571TIP3    H165204   5.574   1.761   1.369  1.0883 -1.4113  0.2330
14571TIP3    H265205   5.710   1.827   1.364  0.6955 -0.5792  0.3672
14572TIP3   OH265206   2.370   3.651  11.134 -0.0907 -0.0775  0.4293
14572TIP3    H165207   2.338   3.734  11.097 -1.8180 -0.7541  0.3572
14572TIP3    H265208   2.292   3.603  11.158  0.9202 -0.6523  2.9107
14573TIP3   OH265209   4.932   1.783  15.236  0.0914 -0.3721 -0.1529
14573TIP3    H165210   4.984   1.810  15.312 -0.2134 -0.7793  0.2016
14573TIP3    H265211   4.918   1.864  15.187  3.1150 -0.5737 -1.5769
14574TIP3   OH265212   0.735   0.135  11.635 -1.1739 -1.0162 -0.2347
14574TIP3    H165213   0.649   0.110  11.601 -0.7359 -0.1761 -2.1303
14574TIP3    H265214   0.795   0.118  11.562  0.1129 -0.6753  0.7125
14575TIP3   OH265215   4.591   3.168   6.095 -0.4655  0.0777  0.0115
14575TIP3    H165216   4.537   3.242   6.122 -0.7551 -0.3974  0.7795
14575TIP3    H265217   4.681   3.198   6.108 -0.5888  0.0987  0.9067
14576TIP3   OH265218   0.196   3.661   1.525 -0.1904  0.4881 -0.4894
14576TIP3    H165219   0.258   3.719   1.481  0.2365  0.8762  0.5678
14576TIP3    H265220   0.247   3.583   1.548 -0.5438  0.0556 -1.1472
14577TIP3   OH265221   4.918   5.819  16.593 -0.5429  0.2450  0.0570
14577TIP3    H165222   4.957   5.903  16.616 -0.4385  0.4970 -1.0271
14577TIP3    H265223   4.936   5.764  16.670  1.7466  0.4299 -0.2517
14578TIP3   OH265224   4.261   3.075  13.186 -0.4124  0.7545  0.5843
14578TIP3    H165225   4.183   3.021  13.197  0.2775 -0.3750  0.2200
14578TIP3    H265226   4.308   3.034  13.113 -0.1999  2.2923 -0.1782
14579TIP3   OH265227   3.651   3.995   5.302 -0.0341  0.6408 -0.1484
14579TIP3    H165228   3.563   4.027   5.282 -0.0991  1.3789  1.1510
14579TIP3    H265229   3.706   4.032   5.233 -0.6292  0.7953 -0.5510
14580TIP3   OH265230   3.512   5.367  12.949  0.0236 -0.0487  0.1532
14580TIP3    H165231   3.461   5.445  12.967  0.7260  0.3673  0.4018
14580TIP3    H265232   3.567   5.390  12.874 -1.2680 -1.0198 -1.1448
14581TIP3   OH265233   3.128   3.429  10.504  0.4538  0.2718  0.1629
14581TIP3    H165234   3.038   3.441  10.536  0.5770 -0.5483  0.8457
14581TIP3    H265235   3.158   3.517  10.485  0.1564  0.7407  1.7405
14582TIP3   OH265236   1.168   6.358   0.992 -0.0592  0.5357 -0.2376
14582TIP3    H165237   1.194   6.450   0.985  0.6715  0.3017 -0.6816
14582TIP3    H265238   1.118   6.353   1.074  1.3525  0.9943  0.6787
14583TIP3   OH265239   2.929   5.571   2.180 -0.0846  0.0596 -0.8976
14583TIP3    H165240   2.941   5.651   2.129  0.7753  0.0048 -0.7986
14583TIP3    H265241   2.866   5.520   2.130 -0.4651  0.6997 -1.0803
14584TIP3   OH265242   6.488   2.036  15.771  0.1104 -0.2463  0.3323
14584TIP3    H165243   6.571   2.059  15.814  1.0335 -1.2682 -0.8360
14584TIP3    H265244   6.438   2.117  15.770  1.0979  0.3916  1.0506
14585TIP3   OH265245   6.532   3.829   0.290 -0.1092  0.7861  0.4390
14585TIP3    H165246   6.480   3.829   0.209  0.4180  0.5480  0.0954
14585TIP3    H265247   6.522   3.918   0.325 -0.9004  0.6894  0.4804
14586TIP3   OH265248   2.059   2.144  17.154 -0.3551  0.1817  0.0524
14586TIP3    H165249   2.007   2.094  17.091 -0.4205 -0.7408  0.7990
14586TIP3    H265250   2.150   2.126  17.130 -0.3831  0.3004 -0.1376
14587TIP3   OH265251   2.057   6.536  13.931 -0.1598  0.1589 -0.2457
14587TIP3    H165252   2.004   6.457  13.945  1.0845 -0.5536  0.6365
14587TIP3    H265253   2.070   6.540  13.837 -1.2771  0.0236 -0.4249
14588TIP3   OH265254   0.137   5.618  12.265  0.6542 -0.2758 -0.2396
14588TIP3    H165255   0.157   5.529  12.295 -0.0169  0.0997  1.4870
14588TIP3    H265256   0.061   5.607  12.208 -0.7128 -0.6816  1.5471
14589TIP3   OH265257   6.039   2.284  11.160  0.3909  0.3238  0.1402
14589TIP3    H165258   6.067   2.196  11.183 -3.5560 -1.6391 -1.6808
14589TIP3    H265259   5.982   2.311  11.231  1.4562  1.4449  0.6125
14590TIP3   OH265260   5.201   0.396  16.709  1.0095 -0.5547 -0.1665
14590TIP3    H165261   5.246   0.370  16.790  2.0818 -0.4441 -0.7024
14590TIP3    H265262   5.248   0.474  16.680  0.7643 -0.7057 -0.9958
14591TIP3   OH265263   4.161   6.143   0.102 -0.7493  0.0413  0.0152
14591TIP3    H165264   4.243   6.098   0.124  0.3775  1.7338 -0.5986
14591TIP3    H265265   4.178   6.235   0.122 -2.7813  0.3409  0.6047
14592TIP3   OH265266   6.553   2.063  13.701 -0.3399 -0.6224 -0.5654
14592TIP3    H165267   6.625   2.000  13.691  0.3558  0.1301 -0.4621
14592TIP3    H265268   6.478   2.021  13.658 -0.0148 -1.7043 -0.1206
14593TIP3   OH265269   5.066   0.321   5.125  0.3122 -0.4521  0.5096
14593TIP3    H165270   5.059   0.417   5.126  1.1902 -0.2618 -2.4799
14593TIP3    H265271   4.978   0.292   5.103  0.1396 -0.3476  1.0257
14594TIP3   OH265272   1.094   2.749   2.890  0.7655 -0.3210 -0.1017
14594TIP3    H165273   1.185   2.779   2.884  0.3616  0.8594 -0.5882
14594TIP3    H265274   1.099   2.667   2.941  1.9254  0.5138  1.2066
14595TIP3   OH265275   3.501   2.198  12.781  0.3827  0.1939  0.1281
14595TIP3    H165276   3.553   2.122  12.806  1.6190  1.1976  0.7035
14595TIP3    H265277   3.489   2.247  12.863  2.2940  2.2046 -0.6946
14596TIP3   OH265278   1.337   5.381   3.154  0.0572  0.1892  0.6229
14596TIP3    H165279   1.308   5.387   3.063 -2.1913 -0.8512  1.2118
14596TIP3    H265280   1.284   5.446   3.200  2.6107  2.2038  0.9583
14597TIP3   OH265281   2.413   6.298  11.312  0.0574  0.1187  0.0881
14597TIP3    H165282   2.328   6.291  11.269  0.6330 -0.3212 -1.0259
14597TIP3    H265283   2.405   6.375  11.368 -0.1731  1.8621 -2.1781
14598TIP3   OH265284   1.416   1.676  16.864 -0.0856 -0.3309 -0.2054
14598TIP3    H165285   1.479   1.671  16.935 -1.6474 -0.1860  1.2676
14598TIP3    H265286   1.453   1.740  16.803  0.7205  0.4839  1.0937
14599TIP3   OH265287   4.118   1.453  12.847 -0.6228 -0.4695  0.3838
14599TIP3    H165288   4.063   1.408  12.782  1.1036 -0.1207 -1.4285
14599TIP3    H265289   4.201   1.405  12.846 -0.0407  0.4716  1.2222
14600TIP3   OH265290   4.389   3.491   3.889  0.6894  0.2084 -0.3096
14600TIP3    H165291   4.428   3.573   3.920  1.2301  0.1993 -0.9308
14600TIP3    H265292   4.331   3.517   3.818 -0.7884  0.2623  0.8615
14601TIP3   OH265293   1.962   4.251  14.987  0.2921 -0.4689 -0.0359
14601TIP3    H165294   1.888   4.264  15.046 -0.6263  0.3636 -1.3082
14601TIP3    H265295   2.000   4.338  14.976  0.1276 -0.5057 -1.0371
14602TIP3   OH265296   2.251   4.604   5.209 -0.4605 -0.2426 -0.6063
14602TIP3    H165297   2.331   4.579   5.256 -0.2678  1.8122  0.2509
14602TIP3    H265298   2.250   4.547   5.131  1.2592 -1.0350 -0.0936
14603TIP3   OH265299   5.817   3.238  11.395  0.2542  0.5260 -0.2054
14603TIP3    H165300   5.902   3.224  11.436  0.8308 -0.1998 -1.6008
14603TIP3    H265301   5.754   3.201  11.458  0.9263  1.2281  0.9110
14604TIP3   OH265302   2.278   6.350  15.717  0.3612 -0.2029 -0.2167
14604TIP3    H165303   2.207   6.399  15.759 -0.0300 -0.1913 -0.8879
14604TIP3    H265304   2.261   6.259  15.739 -0.8206 -0.3742 -1.7735
14605TIP3   OH265305   1.023   0.659  10.909 -0.1975 -0.1625  0.0260
14605TIP3    H165306   1.103   0.706  10.886 -0.5598  2.1922  2.9536
14605TIP3    H265307   1.052   0.589  10.967 -0.1028 -0.8119 -0.7766
14606TIP3   OH265308   2.169   5.655   4.163  0.4992  0.6714 -0.0864
14606TIP3    H165309   2.203   5.646   4.074 -0.9688  0.3190 -0.6297
14606TIP3    H265310   2.207   5.581   4.211  0.3656  0.1890 -0.7175
14607TIP3   OH265311   2.370   6.343  15.321  0.2411 -0.3586  0.4140
14607TIP3    H165312   2.362   6.405  15.248 -1.5718 -1.4942 -0.4440
14607TIP3    H265313   2.341   6.392  15.397 -1.7257 -0.2223 -0.3446
14608TIP3   OH265314   1.832   6.240   1.566 -0.0865 -0.0180  0.1545
14608TIP3    H165315   1.778   6.243   1.645  1.0790  1.0328  0.9578
14608TIP3    H265316   1.788   6.300   1.505  0.2853  1.0391  0.8967
14609TIP3   OH265317   5.364   5.444  12.004 -0.0949  0.1956  0.4127
14609TIP3    H165318   5.381   5.358  12.042  0.8367  0.7426  1.2622
14609TIP3    H265319   5.269   5.456  12.015  0.1082  0.2717  2.4575
14610TIP3   OH265320   1.688   5.660   3.098 -0.4069  0.5030  0.2576
14610TIP3    H165321   1.677   5.607   3.019 -0.2189 -1.3559  1.4105
14610TIP3    H265322   1.660   5.748   3.072  2.3657  0.6986 -2.6775
14611TIP3   OH265323   6.590   2.585   6.976 -0.1275  0.5372  0.3900
14611TIP3    H165324   6.584   2.548   6.888  3.6701 -1.1956  0.7044
14611TIP3    H265325   6.656   2.654   6.969 -0.2567  0.8372  1.7672
14612TIP3   OH265326   4.004   4.881   2.892 -0.2221 -0.0414 -0.3955
14612TIP3    H165327   4.060   4.951   2.928 -1.6507  1.2775 -0.6265
14612TIP3    H265328   4.024   4.805   2.946  3.5950 -0.3884 -1.9972
14613TIP3   OH265329   0.108   6.594   2.956 -0.1082 -0.3421  0.7539
14613TIP3    H165330   0.194   6.624   2.926 -0.9327  1.8293  0.3733
14613TIP3    H265331   0.082   6.657   3.023 -0.8495 -1.7631  1.8727
14614TIP3   OH265332   0.434   3.443   2.009  0.5149 -0.7236  0.5590
14614TIP3    H165333   0.446   3.348   2.003 -0.3560 -0.8466  0.6181
14614TIP3    H265334   0.476   3.477   1.930 -1.0519 -1.3572 -0.6154
14615TIP3   OH265335   2.143   4.324   5.583 -0.1893  0.6512  0.0711
14615TIP3    H165336   2.160   4.289   5.670 -1.4988  0.7072  0.3794
14615TIP3    H265337   2.098   4.407   5.599 -0.5188  0.6176 -0.6514
14616TIP3   OH265338   4.273   1.383   2.739 -0.2875  0.2014  0.4131
14616TIP3    H165339   4.189   1.362   2.779  0.3039 -1.9215  0.6269
14616TIP3    H265340   4.333   1.315   2.770  1.2465  1.0193 -0.6190
14617TIP3   OH265341   2.564   3.233   5.788 -0.0461 -0.2358 -0.9431
14617TIP3    H165342   2.580   3.279   5.870  0.6043 -0.1128 -1.1327
14617TIP3    H265343   2.649   3.195   5.765 -0.2321 -0.3073 -1.5346
14618TIP3   OH265344   1.393   3.912   1.538  0.4603  0.7853 -0.1510
14618TIP3    H165345   1.383   3.856   1.461 -0.6494 -0.7723  1.0749
14618TIP3    H265346   1.465   3.874   1.587 -0.6351  0.0844  0.9494
14619TIP3   OH265347   0.158   5.006  14.369  0.0140  0.1594  0.3956
14619TIP3    H165348   0.115   5.053  14.440  1.8134  1.4104  0.7449
14619TIP3    H265349   0.094   5.007  14.297 -2.1945 -1.9256  2.1694
14620TIP3   OH265350   2.648   5.874   3.242 -0.2824  0.0306 -0.7156
14620TIP3    H165351   2.593   5.881   3.320  1.2882  1.7343  0.3221
14620TIP3    H265352   2.682   5.963   3.229 -0.0438 -0.3361 -3.0407
14621TIP3   OH265353   2.987   1.784   5.626 -0.4138  0.0126 -0.1386
14621TIP3    H165354   2.974   1.815   5.715 -1.1579  1.6179 -0.7775
14621TIP3    H265355   2.900   1.757   5.597  0.0773 -1.9637  0.1087
14622TIP3   OH265356   3.017   6.011  13.655  0.6798  0.4456 -0.3361
14622TIP3    H165357   3.055   6.072  13.718  0.4629  1.0594 -0.7951
14622TIP3    H265358   2.946   6.059  13.613 -2.1126 -1.3296  1.9689
14623TIP3   OH265359   0.699   3.879  15.152 -0.1236  0.2141  0.3126
14623TIP3    H165360   0.681   3.973  15.157  0.0268  0.3542 -1.2892
14623TIP3    H265361   0.623   3.838  15.193 -2.0015  0.9410 -2.2254
14624TIP3   OH265362   1.844   0.012  15.673 -0.7565 -0.4046 -0.2652
14624TIP3    H165363   1.786   0.072  15.720 -0.4816 -0.3950  0.0700
14624TIP3    H265364   1.928   0.020  15.718 -0.6868 -0.9588 -0.2922
14625TIP3   OH265365   5.186   4.605  12.920 -0.2386  0.4212 -0.2410
14625TIP3    H165366   5.095   4.635  12.919 -1.0323 -1.8237 -0.2084
14625TIP3    H265367   5.231   4.667  12.978 -1.5261  2.0527 -0.8949
14626TIP3   OH265368   5.836   2.593   1.865  0.2990  0.2720 -0.9414
14626TIP3    H165369   5.743   2.614   1.875  0.3513  1.2430 -2.2485
14626TIP3    H265370   5.879   2.649   1.929 -0.0380 -0.5798  0.0545
14627TIP3   OH265371   2.953   5.497   4.485 -0.9873  0.1436  0.7209
14627TIP3    H165372   2.865   5.535   4.483 -1.4666 -0.9304 -0.4461
14627TIP3    H265373   2.946   5.419   4.431  0.4753 -0.4657  1.3577
14628TIP3   OH265374   5.320   5.252   0.840  0.4333 -0.6028 -0.5538
14628TIP3    H165375   5.292   5.343   0.839  0.8831 -0.4535 -2.3759
14628TIP3    H265376   5.399   5.252   0.895  0.4309  0.1158 -0.5390
14629TIP3   OH265377   4.064   0.977  15.562  0.0647 -0.6079  0.0729
14629TIP3    H165378   4.153   1.008  15.581  0.4569 -1.8618  0.3765
14629TIP3    H265379   4.062   0.967  15.467 -0.2361  0.8081 -0.0820
14630TIP3   OH265380   2.345   2.673  16.189  0.2719 -0.2765  1.0433
14630TIP3    H165381   2.411   2.735  16.157  0.8697 -1.2801  0.2417
14630TIP3    H265382   2.261   2.713  16.166  0.6525  0.1361  0.3308
14631TIP3   OH265383   5.635   6.526  12.944 -0.2767 -0.1387 -0.1663
14631TIP3    H165384   5.621   6.559  13.033 -0.2980 -0.9364  0.1311
14631TIP3    H265385   5.693   6.452  12.954 -1.0172 -0.8150 -0.7160
14632TIP3   OH265386   3.830   4.353   3.653 -0.1807 -0.3999  0.4729
14632TIP3    H165387   3.744   4.392   3.660 -0.0173 -0.2470  1.8581
14632TIP3    H265388   3.888   4.425   3.630 -0.4977 -0.6140 -1.0660
14633TIP3   OH265389   4.395   6.708  10.997 -0.0389 -0.9763  0.4389
14633TIP3    H165390   4.468   6.754  10.956  0.7624 -1.2431  1.5200
14633TIP3    H265391   4.409   6.616  10.976  0.9470 -1.2425  2.0798
14634TIP3   OH265392   5.320   5.148   4.841  0.1352  0.1773 -0.2498
14634TIP3    H165393   5.415   5.134   4.839  0.3055  0.8356  1.6230
14634TIP3    H265394   5.303   5.187   4.926 -2.0530 -1.5147  0.1968
14635TIP3   OH265395   0.144   1.763   4.618 -0.9468  0.1145 -0.5879
14635TIP3    H165396   0.095   1.791   4.695 -1.3948  0.7508 -1.0938
14635TIP3    H265397   0.227   1.810   4.623 -1.5588  1.3192 -1.2538
14636TIP3   OH265398   2.078   0.987   3.764 -0.2933  0.5414 -0.7322
14636TIP3    H165399   2.117   0.902   3.783 -0.2455  0.0810 -2.6195
14636TIP3    H265400   2.079   1.034   3.847  2.4800 -0.1583 -0.2683
14637TIP3   OH265401   5.176   1.512   0.416  0.1042 -0.4121 -0.8447
14637TIP3    H165402   5.267   1.485   0.425  0.1967  0.2064  0.2256
14637TIP3    H265403   5.144   1.462   0.341  1.1208 -1.1527 -0.8122
14638TIP3   OH265404   1.058   6.633   1.360 -0.3161  0.3153  0.6381
14638TIP3    H165405   1.079   6.693   1.289 -3.0553 -1.3624 -1.8589
14638TIP3    H265406   0.991   6.678   1.411 -0.5219  0.3737  0.3186
14639TIP3   OH265407   1.467   3.619   4.151 -0.5254 -0.0206  0.3070
14639TIP3    H165408   1.517   3.617   4.233 -1.7384 -0.0820  1.0729
14639TIP3    H265409   1.449   3.528   4.131  1.8555 -0.2079 -1.4098
14640TIP3   OH265410   3.820   6.271  15.601  0.0373  0.2923  0.1545
14640TIP3    H165411   3.805   6.366  15.593  0.5717  0.3498 -0.2383
14640TIP3    H265412   3.733   6.233  15.587 -0.1849  0.7248  0.3172
14641TIP3   OH265413   0.284   4.496  16.720 -0.6513  0.0214 -0.3218
14641TIP3    H165414   0.314   4.409  16.747 -0.2644 -0.1850 -1.3687
14641TIP3    H265415   0.358   4.554  16.737 -0.2186 -0.1973 -1.3463
14642TIP3   OH265416   0.504   1.782   3.701  0.3548  0.1464  0.4382
14642TIP3    H165417   0.457   1.792   3.618  0.5416  1.1570  0.4497
14642TIP3    H265418   0.440   1.804   3.768  0.8175  1.5546  0.4535
14643TIP3   OH265419   4.148   4.646   4.735  0.6874  0.1045 -0.3756
14643TIP3    H165420   4.159   4.630   4.828  1.9161  0.4307 -0.4520
14643TIP3    H265421   4.111   4.564   4.701 -0.4421  0.2255  0.4881
14644TIP3   OH265422   4.389   2.450   1.053 -0.4715  0.1303  0.0275
14644TIP3    H165423   4.437   2.401   0.986 -0.2854  1.1471 -0.6063
14644TIP3    H265424   4.441   2.441   1.132 -0.0963 -0.1469 -0.2507
14645TIP3   OH265425   2.010   4.528   5.718  0.3078 -0.2221 -0.4551
14645TIP3    H165426   2.041   4.553   5.805 -0.3688 -0.6701 -0.0776
14645TIP3    H265427   1.917   4.551   5.718  0.2791 -0.3240 -1.0230
14646TIP3   OH265428   2.485   6.672  16.192 -0.3251  0.0425  0.5975
14646TIP3    H165429   2.439   6.626  16.121  0.4687  0.3432 -0.1311
14646TIP3    H265430   2.415   6.711  16.244 -0.9386 -0.3580  0.0951
14647TIP3   OH265431   3.576   0.672   2.531 -0.2107 -0.4552 -0.0434
14647TIP3    H165432   3.580   0.704   2.621  1.4551  1.9507 -0.8608
14647TIP3    H265433   3.483   0.664   2.513 -0.5780 -1.9467  2.1560
14648TIP3   OH265434   0.317   1.591  16.416 -0.2660  0.8415 -0.2079
14648TIP3    H165435   0.279   1.579  16.329  1.3441 -1.9130 -0.6208
14648TIP3    H265436   0.388   1.654  16.403 -0.4205  0.9044 -0.7624
14649TIP3   OH265437   0.496   4.031  17.100  0.1295 -0.4300 -0.0043
14649TIP3    H165438   0.576   4.051  17.050 -2.1790  1.0001 -3.5109
14649TIP3    H265439   0.479   3.939  17.081  1.5012 -1.1441  1.8536
14650TIP3   OH265440   2.841   4.805   3.557  0.3350  0.1213  0.0623
14650TIP3    H165441   2.783   4.754   3.499  0.6293 -1.6366  1.2225
14650TIP3    H265442   2.782   4.865   3.602 -0.3205 -0.4068 -0.0632
14651TIP3   OH265443   6.740   5.254  16.867 -0.8113 -0.3409  0.6988
14651TIP3    H165444   6.713   5.255  16.775  0.6400 -2.1094  0.1889
14651TIP3    H265445   6.758   5.162  16.885  1.6006  0.3062  1.9221
14652TIP3   OH265446   0.919   3.952  10.614 -0.3405  0.2521 -0.1505
14652TIP3    H165447   0.906   4.011  10.540 -1.2967  0.8348  0.4653
14652TIP3    H265448   0.837   3.955  10.662  0.9598  1.6080  2.1835
14653TIP3   OH265449   3.847   1.556  14.355 -0.2792 -0.4177 -0.0612
14653TIP3    H165450   3.857   1.617  14.282  1.6694 -1.4203 -0.6982
14653TIP3    H265451   3.904   1.591  14.424 -1.4645  0.0694  0.7032
14654TIP3   OH265452   0.905   0.591  13.539  0.0867  0.2574  0.2163
14654TIP3    H165453   0.946   0.628  13.618  1.5167  0.8971 -0.7781
14654TIP3    H265454   0.964   0.615  13.468 -0.7172 -1.0556 -0.9512
14655TIP3   OH265455   1.756   1.615   5.680 -0.2630  0.4989 -0.3324
14655TIP3    H165456   1.758   1.523   5.704 -0.7278  0.0456 -1.9166
14655TIP3    H265457   1.712   1.658   5.754  1.0461 -0.3214  0.9778
14656TIP3   OH265458   1.837   0.250  15.478  0.0937  0.1105 -0.0751
14656TIP3    H165459   1.851   0.239  15.572 -0.7723  1.2030  0.2056
14656TIP3    H265460   1.767   0.188  15.457 -0.3074  0.4666  0.1872
14657TIP3   OH265461   5.666   5.384   1.581 -0.2671  0.2278  0.9681
14657TIP3    H165462   5.724   5.450   1.543 -0.4358  0.0191  0.3413
14657TIP3    H265463   5.655   5.412   1.672 -1.1260  1.6172  0.4733
14658TIP3   OH265464   5.418   3.691  15.207  0.5224  0.4664 -0.2408
14658TIP3    H165465   5.458   3.608  15.232 -0.6609  0.6111  2.4514
14658TIP3    H265466   5.478   3.758  15.239  0.2575  0.6632 -0.1559
14659TIP3   OH265467   0.162   4.985  10.935  0.3796 -0.0445 -0.2291
14659TIP3    H165468   0.201   4.994  10.849  0.5173  0.7109 -0.0976
14659TIP3    H265469   0.067   4.981  10.918  0.4551 -1.0388 -0.4840
14660TIP3   OH265470   0.666   2.311   6.698 -0.2384  0.3158  0.4213
14660TIP3    H165471   0.730   2.345   6.636  2.1817 -2.1069  1.3837
14660TIP3    H265472   0.692   2.346   6.782 -0.4811 -0.2829  0.7560
14661TIP3   OH265473   0.545   2.842  16.296 -0.7660  0.1806  0.0767
14661TIP3    H165474   0.503   2.791  16.366  0.0224  0.4913  0.7956
14661TIP3    H265475   0.580   2.919  16.340 -0.8629  0.7413 -0.7948
14662TIP3   OH265476   4.755   4.229  15.941  0.0363  0.1955  0.0497
14662TIP3    H165477   4.758   4.134  15.952  1.1525  0.0171 -1.4022
14662TIP3    H265478   4.811   4.264  16.011  0.1913 -0.2680  0.1590
14663TIP3   OH265479   4.520   4.173   2.250 -0.1039 -0.2735 -0.0623
14663TIP3    H165480   4.584   4.236   2.217  0.0579 -0.6828 -0.5513
14663TIP3    H265481   4.440   4.193   2.201 -0.2915  0.0992  0.3942
14664TIP3   OH265482   1.350   4.407  13.680 -0.0526 -0.1974 -0.0870
14664TIP3    H165483   1.313   4.329  13.640  1.0352 -0.3668 -0.8079
14664TIP3    H265484   1.302   4.480  13.641 -2.2734 -0.5169  1.8585
14665TIP3   OH265485   5.574   0.032  11.362 -0.2320  0.1349  0.2142
14665TIP3    H165486   5.607   0.075  11.441  0.9943 -1.9075  0.8799
14665TIP3    H265487   5.643   0.047  11.297  0.8934 -1.9057  0.8541
14666TIP3   OH265488   6.556   5.352  16.272 -0.2523  0.0585  0.3080
14666TIP3    H165489   6.523   5.386  16.190 -0.9313 -0.5009  0.3434
14666TIP3    H265490   6.607   5.274  16.248 -0.9401 -0.4465  0.4598
14667TIP3   OH265491   4.360   0.205   2.894 -0.2037  0.6036 -0.0202
14667TIP3    H165492   4.444   0.214   2.848 -0.0855  0.1014  0.0926
14667TIP3    H265493   4.295   0.234   2.831 -0.1133 -0.7906 -0.7919
14668TIP3   OH265494   2.808   5.762   2.558  0.4155  0.3285 -0.5572
14668TIP3    H165495   2.874   5.813   2.510 -0.7171  1.4316 -0.9976
14668TIP3    H265496   2.741   5.743   2.493 -0.6394  0.9342  0.3376
14669TIP3   OH265497   0.657   3.689  11.772  0.1055  0.4107  0.4486
14669TIP3    H165498   0.590   3.621  11.778  0.6751 -0.0512  2.0599
14669TIP3    H265499   0.619   3.755  11.715 -0.0314 -1.7246 -2.1632
14670TIP3   OH265500   1.882   1.634  11.800  0.2397 -0.0337 -0.4017
14670TIP3    H165501   1.868   1.633  11.895  2.8830  0.0238  0.0876
14670TIP3    H265502   1.825   1.565  11.766  1.8009 -2.5601  1.7225
14671TIP3   OH265503   1.836   4.571  11.643 -0.2635 -0.0627  0.2498
14671TIP3    H165504   1.773   4.512  11.600 -0.8684  1.8719 -1.6719
14671TIP3    H265505   1.920   4.549  11.603 -0.3845 -0.0421 -0.0208
14672TIP3   OH265506   6.443   4.028   4.482  0.3238 -1.0061 -0.0419
14672TIP3    H165507   6.352   4.058   4.474  0.0250 -2.2067 -1.7057
14672TIP3    H265508   6.495   4.101   4.449 -0.0548 -0.4583  0.5528
14673TIP3   OH265509   3.812   5.854  16.545 -0.3779  0.1962 -0.5003
14673TIP3    H165510   3.808   5.944  16.577  0.0094 -1.0245  3.5662
14673TIP3    H265511   3.903   5.827  16.560 -1.2717 -1.8613  1.8871
14674TIP3   OH265512   4.329   5.738   4.575 -0.0064  0.4651  0.6286
14674TIP3    H165513   4.287   5.823   4.565  0.0065  0.7998  3.0101
14674TIP3    H265514   4.309   5.711   4.665  0.2428 -1.9184  0.0471
14675TIP3   OH265515   0.653   0.279   1.816  0.4619 -0.1958 -0.0333
14675TIP3    H165516   0.688   0.251   1.731  1.9541  1.4611 -0.0366
14675TIP3    H265517   0.718   0.249   1.879 -1.3546 -2.7255  0.7729
14676TIP3   OH265518   6.501   5.348  11.469  0.1308  0.1278  0.1096
14676TIP3    H165519   6.427   5.361  11.528 -1.2322 -0.6109 -1.3723
14676TIP3    H265520   6.477   5.395  11.389  2.4435  2.0648  0.4582
14677TIP3   OH265521   3.165   4.495  13.158  0.1910  0.0319 -0.0455
14677TIP3    H165522   3.141   4.576  13.114 -1.0550 -0.8628 -1.1020
14677TIP3    H265523   3.094   4.434  13.136  0.3267 -0.9294  1.9219
14678TIP3   OH265524   5.686   2.441  14.276 -0.8285  0.3307  0.5715
14678TIP3    H165525   5.695   2.475  14.365 -3.0159  0.9096  0.6325
14678TIP3    H265526   5.593   2.420  14.267 -0.3931 -1.1365 -1.0997
14679TIP3   OH265527   3.548   4.207   4.600 -0.0848  0.0843  0.0996
14679TIP3    H165528   3.575   4.133   4.655 -2.1753 -0.3560  0.5971
14679TIP3    H265529   3.542   4.280   4.661  0.3741  0.2902 -0.0951
14680TIP3   OH265530   1.454   4.995  15.385  0.0359  0.1962  0.3158
14680TIP3    H165531   1.469   5.088  15.404  1.5131  0.2553 -0.9445
14680TIP3    H265532   1.416   4.994  15.297  1.4264 -0.4357 -0.3025
14681TIP3   OH265533   1.937   3.579   5.223  0.6039 -0.4298  0.3758
14681TIP3    H165534   2.014   3.631   5.246  0.2159  0.2956  0.0836
14681TIP3    H265535   1.952   3.494   5.264  1.6815 -0.3881  0.1054
14682TIP3   OH265536   0.985   3.771  15.458 -0.4717  0.0258  0.1329
14682TIP3    H165537   0.904   3.751  15.505 -0.6122  1.0072  0.3362
14682TIP3    H265538   0.962   3.763  15.365 -1.2936  1.9029  0.1238
14683TIP3   OH265539   4.107   3.078  16.910 -0.0476 -0.6593 -0.3138
14683TIP3    H165540   4.192   3.056  16.946 -0.6375 -0.4983  1.2393
14683TIP3    H265541   4.091   3.168  16.937  0.0862 -0.0079 -2.2311
14684TIP3   OH265542   4.005   6.005  11.447 -0.0325  0.2419  0.0946
14684TIP3    H165543   4.031   6.093  11.472 -1.0131  0.8347 -0.8949
14684TIP3    H265544   4.078   5.972  11.393  0.0518  0.6854 -0.0598
14685TIP3   OH265545   5.633   1.725   4.793 -0.0433  0.2791  0.0225
14685TIP3    H165546   5.642   1.633   4.820 -0.4243  0.6536  1.5244
14685TIP3    H265547   5.551   1.754   4.833 -0.4530  1.0164 -1.2738
14686TIP3   OH265548   4.933   0.239   6.077 -0.1717 -0.5551  0.7052
14686TIP3    H165549   4.869   0.230   6.148  0.6024  0.1431  1.5132
14686TIP3    H265550   4.906   0.319   6.031  0.6923  0.3469  1.6944
14687TIP3   OH265551   2.671   5.839   1.045  0.4979 -0.0975 -0.4973
14687TIP3    H165552   2.686   5.923   1.088  1.5387 -0.1009 -0.8294
14687TIP3    H265553   2.682   5.857   0.952  2.1531 -0.8581 -0.4897
14688TIP3   OH265554   3.132   6.400   5.464 -0.0454 -0.5548 -0.1528
14688TIP3    H165555   3.156   6.409   5.372 -1.8486  0.9373 -0.5462
14688TIP3    H265556   3.049   6.352   5.462 -0.2037 -0.3273  0.6718
14689TIP3   OH265557   5.462   4.352  16.631  0.4587 -0.0295 -0.7293
14689TIP3    H165558   5.400   4.375  16.701  2.9016 -0.0634  1.6089
14689TIP3    H265559   5.445   4.259  16.615 -0.2565  0.0135 -0.2726
14690TIP3   OH265560   0.322   2.685   3.481 -1.0737 -0.5026 -0.2733
14690TIP3    H165561   0.336   2.677   3.575 -0.0807 -0.9511 -0.4432
14690TIP3    H265562   0.365   2.608   3.443  0.7264  0.8938 -1.2569
14691TIP3   OH265563   2.428   6.206   1.376  0.1658  0.9870 -0.0357
14691TIP3    H165564   2.426   6.113   1.399  1.1220  0.8693 -0.3761
14691TIP3    H265565   2.459   6.249   1.455 -0.1569  1.0043  0.0823
14692TIP3   OH265566   3.387   1.226   5.943 -0.1341 -0.2030 -0.3065
14692TIP3    H165567   3.356   1.159   6.004 -2.6704  0.4270 -0.7863
14692TIP3    H265568   3.395   1.179   5.859 -1.3446 -0.0693 -0.5142
14693TIP3   OH265569   5.442   4.786  12.419 -0.5026  0.2972 -0.0218
14693TIP3    H165570   5.483   4.864  12.457 -2.4037  0.3036  2.1891
14693TIP3    H265571   5.390   4.749  12.490  0.9550 -3.5264 -0.7183
14694TIP3   OH265572   6.550   5.042  12.513  0.2370  0.2233 -0.4389
14694TIP3    H165573   6.477   5.050  12.452  0.6984 -0.9877 -1.1686
14694TIP3    H265574   6.620   5.093  12.473 -0.2174  1.5516  0.3575
14695TIP3   OH265575   3.739   2.356   4.396  0.5006  0.3211 -0.2231
14695TIP3    H165576   3.718   2.267   4.366  0.9225  0.5006 -1.0792
14695TIP3    H265577   3.745   2.348   4.491 -1.2680 -0.1899 -0.1039
14696TIP3   OH265578   3.722   5.558  16.813  0.3411 -0.3476 -0.0971
14696TIP3    H165579   3.795   5.528  16.758  1.1839  1.7803 -0.2541
14696TIP3    H265580   3.661   5.597  16.751 -0.6359 -1.5013  0.1121
14697TIP3   OH265581   3.046   5.777   3.861  0.0476 -0.4241 -0.0621
14697TIP3    H165582   3.072   5.814   3.946 -0.6526  0.2205 -0.1199
14697TIP3    H265583   3.004   5.849   3.815  1.3973 -0.4614 -1.4231
14698TIP3   OH265584   5.748   0.932  15.159 -0.6134  0.2583 -0.3256
14698TIP3    H165585   5.712   0.987  15.090 -0.5177  0.1947 -0.4275
14698TIP3    H265586   5.703   0.848  15.150 -0.0327 -0.0128 -0.8255
14699TIP3   OH265587   6.509   6.699  11.567 -0.0788 -0.3165 -0.3451
14699TIP3    H165588   6.415   6.680  11.560 -0.1424 -0.0886 -0.1158
14699TIP3    H265589   6.549   6.642  11.502 -0.5327  0.8022 -1.6618
14700TIP3   OH265590   5.604   5.554  13.921  0.0039  0.1861  0.2250
14700TIP3    H165591   5.528   5.520  13.968 -0.1638 -0.2523 -0.3496
14700TIP3    H265592   5.578   5.554  13.829 -0.0394  2.0051  0.2034
14701TIP3   OH265593   4.289   0.906   0.209  0.3156  0.2477  0.0920
14701TIP3    H165594   4.208   0.958   0.212 -0.7004 -1.1219 -1.6908
14701TIP3    H265595   4.266   0.824   0.253  1.0138  0.1746  0.3271
14702TIP3   OH265596   6.814   5.010  14.737 -0.0931 -0.6565 -0.1420
14702TIP3    H165597   6.800   4.916  14.740  1.7355 -0.9608  0.7250
14702TIP3    H265598   6.799   5.039  14.827  0.8370 -0.3924 -0.0608
14703TIP3   OH265599   2.762   4.027  12.560 -0.3149 -0.0865  0.5071
14703TIP3    H165600   2.814   4.048  12.637 -0.9271  0.7945  0.6994
14703TIP3    H265601   2.777   3.934  12.545  3.4334  0.5775 -1.0228
14704TIP3   OH265602   5.557   0.311   4.811  0.1258 -0.3464 -0.5810
14704TIP3    H165603   5.585   0.261   4.888  0.0291 -0.1452 -0.4129
14704TIP3    H265604   5.638   0.351   4.778 -0.1437  1.4369  0.7703
14705TIP3   OH265605   4.983   3.793  16.890  0.3705  0.6328  0.1877
14705TIP3    H165606   5.009   3.844  16.813 -0.5208 -0.1077 -0.6155
14705TIP3    H265607   4.925   3.851  16.938 -1.0888  0.2195 -1.0109
14706TIP3   OH265608   4.310   3.024   6.499  0.1513 -0.0607 -0.1183
14706TIP3    H165609   4.310   2.943   6.549  0.6340 -0.3446 -0.5784
14706TIP3    H265610   4.224   3.027   6.457 -0.2197  0.1272  0.6241
14707TIP3   OH265611   1.291   0.590   4.619 -0.1400 -0.3926  0.4719
14707TIP3    H165612   1.207   0.578   4.663 -0.4010 -2.7567 -0.5577
14707TIP3    H265613   1.324   0.502   4.603  2.6976  0.4367  1.0213
14708TIP3   OH265614   2.731   0.181  13.724 -0.4410  0.7658  0.1518
14708TIP3    H165615   2.646   0.149  13.753 -0.1114  1.5127  2.0991
14708TIP3    H265616   2.711   0.260  13.673 -0.9419  0.5930  0.0803
14709TIP3   OH265617   1.832   3.590  13.437  0.1413  0.1364 -0.0791
14709TIP3    H165618   1.837   3.517  13.498  0.6396  0.3232  0.1047
14709TIP3    H265619   1.922   3.623  13.431  0.1619 -0.0924 -1.1671
14710TIP3   OH265620   5.513   5.332  11.075  0.1771  0.2773  0.0818
14710TIP3    H165621   5.594   5.286  11.053 -2.7352 -4.2910 -2.8107
14710TIP3    H265622   5.490   5.379  10.995 -0.6881  0.3782  0.3861
14711TIP3   OH265623   4.727   1.011  13.461 -0.3641  0.2421  0.1738
14711TIP3    H165624   4.687   0.956  13.528 -1.8922  2.7416  1.4757
14711TIP3    H265625   4.653   1.049  13.414  0.6474  0.4315 -1.3223
14712TIP3   OH265626   6.713   4.204  14.330  0.0267  0.1545  0.3379
14712TIP3    H165627   6.691   4.158  14.411 -3.6257  0.9729 -0.0173
14712TIP3    H265628   6.671   4.152  14.261  0.1114  1.3320 -0.6317
14713TIP3   OH265629   3.295   4.158   6.109  0.3719 -0.5383  0.4171
14713TIP3    H165630   3.281   4.114   6.192 -0.9490  1.5672  1.3980
14713TIP3    H265631   3.228   4.121   6.051  0.4870 -1.1404  0.6658
14714TIP3   OH265632   2.664   6.410  13.569  0.5488 -0.2060  0.1056
14714TIP3    H165633   2.705   6.489  13.603 -0.1750  0.2148  0.0024
14714TIP3    H265634   2.603   6.382  13.638  1.8474 -1.5224  0.7944
14715TIP3   OH265635   6.709   4.267   1.951 -0.3687 -0.4465 -0.6600
14715TIP3    H165636   6.652   4.343   1.963 -1.6491 -1.0875 -2.2886
14715TIP3    H265637   6.726   4.265   1.857  1.0712 -1.2060 -0.4116
14716TIP3   OH265638   3.758   1.902   2.467 -0.0773 -0.1631  0.1768
14716TIP3    H165639   3.806   1.984   2.457  2.2048 -1.3006  1.1445
14716TIP3    H265640   3.679   1.926   2.517 -0.1084  1.6135 -0.6656
14717TIP3   OH265641   2.747   6.311   6.113 -0.2289 -0.2295  0.1927
14717TIP3    H165642   2.809   6.313   6.186 -0.7630 -1.0468  0.6844
14717TIP3    H265643   2.699   6.229   6.125 -1.1383  0.2037 -0.4017
14718TIP3   OH265644   1.737   4.161   5.658  0.5222  0.3046  0.0756
14718TIP3    H165645   1.709   4.096   5.723 -0.8356 -0.4606 -1.1897
14718TIP3    H265646   1.675   4.233   5.668 -0.5384 -0.3849 -1.1909
14719TIP3   OH265647   1.977   5.254  13.291  0.6955 -0.0506  0.6130
14719TIP3    H165648   1.959   5.343  13.320 -1.8935 -0.8928  1.8892
14719TIP3    H265649   1.950   5.253  13.199 -1.3262  0.0124  1.1607
14720TIP3   OH265650   5.609   4.259  14.098 -0.1156  0.0746 -0.0291
14720TIP3    H165651   5.518   4.235  14.080 -0.1122 -0.4421  0.6479
14720TIP3    H265652   5.606   4.353  14.116 -0.6162 -0.0673  0.6447
14721TIP3   OH265653   6.384   4.535  11.385  0.0149 -0.4023  0.8802
14721TIP3    H165654   6.313   4.500  11.332  1.6606 -0.2581 -1.6247
14721TIP3    H265655   6.460   4.480  11.364  1.6245  1.9047  0.1172
14722TIP3   OH265656   3.474   3.356   0.484  0.2385 -0.6197 -0.2779
14722TIP3    H165657   3.568   3.376   0.490  0.1277  0.6066 -1.8945
14722TIP3    H265658   3.432   3.421   0.541  0.3932 -1.7262  1.1437
14723TIP3   OH265659   2.761   0.182  15.211  0.3872  0.1495 -0.6292
14723TIP3    H165660   2.723   0.098  15.185  0.2411 -0.2902  0.9029
14723TIP3    H265661   2.784   0.225  15.129 -0.4200 -0.9810 -1.4698
14724TIP3   OH265662   0.786   4.740  14.051  0.2285  0.8407  0.2681
14724TIP3    H165663   0.771   4.722  13.958  0.3725  2.4332 -0.0948
14724TIP3    H265664   0.705   4.782  14.081 -0.4603 -1.0732  1.3167
14725TIP3   OH265665   4.523   1.984  12.320  0.1495 -0.3666 -0.0211
14725TIP3    H165666   4.568   1.902  12.340  0.9713 -0.0327 -0.4754
14725TIP3    H265667   4.552   2.007  12.232  0.4306  0.7350  0.3433
14726TIP3   OH265668   6.490   1.717  16.107 -0.6341  0.2892  0.0382
14726TIP3    H165669   6.424   1.783  16.126  0.9687  1.9346  0.2119
14726TIP3    H265670   6.532   1.700  16.192  0.9780  1.3730 -0.4944
14727TIP3   OH265671   5.370   1.281  11.286 -0.9666  0.4919 -0.4230
14727TIP3    H165672   5.362   1.318  11.198 -0.7280  0.4658 -0.4544
14727TIP3    H265673   5.464   1.276  11.303 -0.9922  3.1178  0.9484
14728TIP3   OH265674   3.668   2.826   2.341  0.1761  0.0846  0.1947
14728TIP3    H165675   3.755   2.805   2.307  0.1746  1.2807 -0.6102
14728TIP3    H265676   3.638   2.744   2.381  0.7183 -1.0273 -1.5471
14729TIP3   OH265677   4.162   4.016  10.213  0.6501 -0.3045 -0.1758
14729TIP3    H165678   4.133   4.072  10.285  0.2323 -0.5600 -0.1389
14729TIP3    H265679   4.091   3.952  10.203  1.1085 -0.8057 -0.2334
14730TIP3   OH265680   1.342   2.917  12.338  0.0195 -0.3622 -0.4672
14730TIP3    H165681   1.294   2.923  12.421  0.5824  0.1318 -0.1648
14730TIP3    H265682   1.311   2.992  12.287 -0.4700 -0.7768 -0.7874
14731TIP3   OH265683   6.167   5.567   1.600  0.2116  0.3013 -0.8764
14731TIP3    H165684   6.255   5.543   1.570  0.0852 -2.0203  0.3230
14731TIP3    H265685   6.122   5.483   1.611 -1.9191  1.3902 -0.7096
14732TIP3   OH265686   6.084   0.158  13.976  0.0937 -0.3094  0.1047
14732TIP3    H165687   6.056   0.226  14.037  1.1987  0.3325 -0.0743
14732TIP3    H265688   6.030   0.172  13.898  1.1334  1.1486 -0.3840
14733TIP3   OH265689   0.655   3.604  14.651 -0.1912 -0.3348  0.2700
14733TIP3    H165690   0.679   3.683  14.602  1.1768 -0.1889  1.1314
14733TIP3    H265691   0.583   3.632  14.707 -1.1606 -0.2726 -0.9634
14734TIP3   OH265692   5.457   0.375   1.519  0.3569 -0.2666 -0.6138
14734TIP3    H165693   5.368   0.350   1.497  1.0128 -1.7662 -1.7200
14734TIP3    H265694   5.509   0.296   1.504  1.7979  0.4177  0.5343
14735TIP3   OH265695   6.220   6.052  16.176  0.2097 -0.5107  0.1119
14735TIP3    H165696   6.181   5.967  16.192 -0.8907 -0.5296 -2.3052
14735TIP3    H265697   6.157   6.115  16.212  0.1299 -0.6431  0.2040
14736TIP3   OH265698   4.520   2.955   5.023  0.1806  0.1429 -0.0627
14736TIP3    H165699   4.463   2.987   4.953 -0.2547 -1.3159 -0.3977
14736TIP3    H265700   4.537   3.032   5.077 -0.5197  1.0148 -1.0546
14737TIP3   OH265701   6.378   3.662   5.462  0.5746  0.1078  1.0501
14737TIP3    H165702   6.296   3.677   5.414  0.3688  0.9266  1.6510
14737TIP3    H265703   6.446   3.662   5.394  0.1261 -0.2311  0.5898
14738TIP3   OH265704   6.117   0.204   3.432 -0.8318 -0.1245 -0.5361
14738TIP3    H165705   6.174   0.163   3.497 -3.4025 -0.5377  1.6441
14738TIP3    H265706   6.056   0.135   3.406  0.0678  0.0460 -3.4914
14739TIP3   OH265707   1.658   4.965   0.057 -0.4919  0.2202  0.1776
14739TIP3    H165708   1.604   5.040   0.082  0.2572  0.1583  2.1100
14739TIP3    H265709   1.743   5.003   0.035 -0.4902  0.0526 -0.1079
14740TIP3   OH265710   3.840   1.084  12.442 -0.5083 -0.5765 -0.0822
14740TIP3    H165711   3.788   1.127  12.510  0.4744  2.3506 -1.0351
14740TIP3    H265712   3.871   1.156  12.386  2.6303 -2.3737 -0.9121
14741TIP3   OH265713   1.883   1.598   4.322  0.2382  0.2501  0.4053
14741TIP3    H165714   1.903   1.649   4.244  1.4613  1.8216  1.6845
14741TIP3    H265715   1.880   1.507   4.291  1.1493  0.7860 -1.3697
14742TIP3   OH265716   0.320   2.619   3.121 -1.0779  0.0781 -0.2286
14742TIP3    H165717   0.239   2.579   3.089 -0.2035 -0.1489 -2.2644
14742TIP3    H265718   0.291   2.700   3.163 -2.4965 -0.8325  0.6652
14743TIP3   OH265719   4.925   4.723  12.491 -0.0689  0.4499  0.2258
14743TIP3    H165720   4.979   4.652  12.525  0.9659  0.9994 -0.2351
14743TIP3    H265721   4.868   4.680  12.427 -0.0269 -0.0978  0.5452
14744TIP3   OH265722   5.841   2.162  13.373 -0.0287  0.1722  0.1292
14744TIP3    H165723   5.892   2.153  13.293  1.3654 -1.6674  1.1574
14744TIP3    H265724   5.786   2.083  13.376 -0.3322  0.4001  0.8139
14745TIP3   OH265725   5.240   0.628   4.186  0.1118 -0.1576 -0.2215
14745TIP3    H165726   5.154   0.658   4.218 -0.9268 -1.8240 -1.2868
14745TIP3    H265727   5.303   0.682   4.233 -1.5624  3.1631 -1.4768
14746TIP3   OH265728   4.595   5.201  15.941 -0.3235  0.0899 -0.2041
14746TIP3    H165729   4.656   5.244  16.001 -1.1864  0.4024  0.4657
14746TIP3    H265730   4.551   5.272  15.896  0.7212 -0.1442 -1.6705
14747TIP3   OH265731   4.441   6.412  14.382 -0.0679 -0.0462  0.3750
14747TIP3    H165732   4.382   6.483  14.408  0.0537 -0.4642  1.9266
14747TIP3    H265733   4.384   6.343  14.349 -0.2726  0.3505 -0.1011
14748TIP3   OH265734   0.635   6.065  14.735 -0.1281 -0.6316 -0.1478
14748TIP3    H165735   0.615   6.100  14.648  0.3842  0.6956  0.2398
14748TIP3    H265736   0.716   6.015  14.722  1.0167  1.1426 -0.1107
14749TIP3   OH265737   0.892   4.702  14.979  0.6111  0.3327 -0.1653
14749TIP3    H165738   0.869   4.775  14.922  1.2668 -0.0724 -0.9602
14749TIP3    H265739   0.811   4.682  15.026 -0.1187  0.2690 -1.4084
14750TIP3   OH265740   1.386   1.913  11.577  0.1315 -0.4906 -0.3998
14750TIP3    H165741   1.408   2.005  11.563  0.3557 -0.7483 -1.9178
14750TIP3    H265742   1.314   1.896  11.516 -0.3740 -1.1504  0.3648
14751TIP3   OH265743   5.940   0.171   5.125  0.0973  0.2091 -0.0534
14751TIP3    H165744   5.906   0.205   5.208  3.1611  0.0139  1.4044
14751TIP3    H265745   5.934   0.245   5.065  0.8448  1.4362  1.3054
14752TIP3   OH265746   6.257   1.349  15.042 -0.7762  0.3826 -0.3541
14752TIP3    H165747   6.215   1.291  15.106 -1.2953  0.0701 -0.9683
14752TIP3    H265748   6.299   1.289  14.980  0.6689  0.6841  0.2850
14753TIP3   OH265749   2.665   5.853  13.030 -0.2605 -0.4506 -0.5222
14753TIP3    H165750   2.691   5.821  12.944 -0.0088  2.5402 -1.6973
14753TIP3    H265751   2.747   5.853  13.081 -0.1526 -1.0252 -0.6894
14754TIP3   OH265752   4.876   2.913   2.881  0.2897 -0.3416  0.2145
14754TIP3    H165753   4.952   2.928   2.938 -1.5982  0.3191  2.7729
14754TIP3    H265754   4.880   2.819   2.862 -1.0753 -1.7053  5.0620
14755TIP3   OH265755   2.861   5.349  12.475  0.1134 -0.1190 -0.3581
14755TIP3    H165756   2.765   5.350  12.479  0.1127  1.3189 -0.2711
14755TIP3    H265757   2.881   5.304  12.393 -0.5365 -3.0816  0.9913
14756TIP3   OH265758   2.636   5.941  16.485  0.6263 -0.1159 -0.5308
14756TIP3    H165759   2.618   6.008  16.419  0.1413  2.0596  1.6389
14756TIP3    H265760   2.732   5.941  16.494  0.5397  2.7609  1.6658
14757TIP3   OH265761   3.364   1.497  10.977  0.1470  0.2561  0.6955
14757TIP3    H165762   3.343   1.568  10.916  0.6316 -0.0452  0.1687
14757TIP3    H265763   3.444   1.458  10.942  0.0715 -0.3369  1.1651
14758TIP3   OH265764   6.257   1.607   2.318 -0.0240 -0.6604 -0.2698
14758TIP3    H165765   6.297   1.548   2.382  0.4462 -1.7937 -1.5540
14758TIP3    H265766   6.326   1.668   2.296 -0.3605  0.0973  0.6930
14759TIP3   OH265767   0.682   0.950   4.769  0.0844 -0.4038  0.4365
14759TIP3    H165768   0.703   0.913   4.683  1.5688  0.5351  0.3571
14759TIP3    H265769   0.619   1.019   4.751 -0.9181 -1.3167  0.3229
14760TIP3   OH265770   6.321   4.707  15.974 -0.4824 -0.0217 -0.3155
14760TIP3    H165771   6.261   4.635  15.992  0.6060 -1.0075 -0.5260
14760TIP3    H265772   6.326   4.711  15.878  1.2839 -1.2728 -0.3236
14761TIP3   OH265773   3.338   5.748  12.749  0.4820  0.0690  0.5393
14761TIP3    H165774   3.414   5.794  12.712 -0.9578  0.4931 -2.1430
14761TIP3    H265775   3.352   5.656  12.726 -0.2335  0.2832 -0.8933
14762TIP3   OH265776   0.650   0.569   4.987  0.2088  0.1801  0.7469
14762TIP3    H165777   0.653   0.604   4.898 -0.4553 -0.4503  0.4724
14762TIP3    H265778   0.643   0.646   5.043  1.2461  0.6184  0.2975
14763TIP3   OH265779   0.678   4.644  13.801 -0.0270 -0.1072  0.5866
14763TIP3    H165780   0.678   4.554  13.769 -0.4779 -0.4327  1.4543
14763TIP3    H265781   0.694   4.698  13.724 -0.5861 -0.8829 -0.0813
14764TIP3   OH265782   5.272   5.580   2.442 -0.0872  0.1450 -0.0818
14764TIP3    H165783   5.266   5.675   2.451  3.7094  0.6202 -0.6761
14764TIP3    H265784   5.364   5.561   2.458 -0.7233 -3.4819  0.0056
14765TIP3   OH265785   1.485   3.091  10.823  0.4200  0.1441 -0.0036
14765TIP3    H165786   1.429   3.168  10.809  1.4871  1.0327  0.5266
14765TIP3    H265787   1.464   3.033  10.749  1.8164  2.2677 -2.2144
14766TIP3   OH265788   6.625   2.969   4.148 -0.2906 -0.2880 -0.3825
14766TIP3    H165789   6.538   3.010   4.149  0.2617  0.9178 -0.6106
14766TIP3    H265790   6.684   3.038   4.120  1.3338  0.0193  3.2428
14767TIP3   OH265791   3.845   3.650   6.324  0.2357  0.5393  0.0362
14767TIP3    H165792   3.900   3.718   6.285  0.9255  0.4700  0.8432
14767TIP3    H265793   3.774   3.637   6.261  0.8292  1.0463 -0.7611
14768TIP3   OH265794   0.942   3.815   5.934 -0.0867  0.2171 -0.3548
14768TIP3    H165795   0.924   3.887   5.874  0.5955  1.4874  0.8761
14768TIP3    H265796   0.931   3.854   6.021 -2.0817 -1.8174  0.3892
14769TIP3   OH265797   4.917   2.226   3.434  0.8088 -0.0977  0.6650
14769TIP3    H165798   4.961   2.152   3.476  1.7653  1.0765  1.8161
14769TIP3    H265799   4.981   2.297   3.437 -0.6406  1.2485  1.0501
14770TIP3   OH265800   5.966   3.744   6.199 -0.9009 -0.3823 -0.4690
14770TIP3    H165801   5.897   3.795   6.242 -0.1521  0.1006  0.2115
14770TIP3    H265802   6.010   3.807   6.141 -0.2473 -0.3447  0.0488
14771TIP3   OH265803   1.153   6.088  15.665 -0.2598 -0.4536  0.4856
14771TIP3    H165804   1.174   6.172  15.624  0.8744 -1.0746 -0.2752
14771TIP3    H265805   1.208   6.086  15.744  0.5933 -0.9384 -0.0977
14772TIP3   OH265806   3.454   6.580   5.490  0.7144  0.1953  0.4219
14772TIP3    H165807   3.519   6.518   5.524  1.0487  0.3838  0.1306
14772TIP3    H265808   3.487   6.605   5.403 -1.3611 -2.2123 -1.2132
14773TIP3   OH265809   6.040   5.043   5.424 -0.0665  0.5034  0.2338
14773TIP3    H165810   5.965   5.019   5.370 -0.4735 -0.3536  1.1381
14773TIP3    H265811   6.030   4.991   5.504  1.9385 -0.2529  0.0535
14774TIP3   OH265812   4.620   1.173   6.510 -0.0216  0.1833 -0.4914
14774TIP3    H165813   4.592   1.263   6.492 -0.2593  0.4653  1.0993
14774TIP3    H265814   4.554   1.139   6.571  1.0941 -0.4125  0.4246
14775TIP3   OH265815   5.928   6.169   0.665  0.6395 -0.0237 -0.5699
14775TIP3    H165816   5.841   6.134   0.646  0.2388  1.0903 -0.8065
14775TIP3    H265817   5.917   6.218   0.747  1.5578 -1.7372  0.6544
14776TIP3   OH265818   1.704   0.254   0.726 -0.8660 -0.0516  0.2187
14776TIP3    H165819   1.689   0.173   0.676 -0.0074 -0.4605  0.5925
14776TIP3    H265820   1.714   0.322   0.660 -1.5430 -0.2548 -0.1030
14777TIP3   OH265821   3.012   6.724  16.192  0.0541  0.4365  0.1521
14777TIP3    H165822   2.943   6.742  16.129 -0.3383  0.4168  0.5685
14777TIP3    H265823   3.000   6.632  16.215  0.1106  0.4790  0.3548
14778TIP3   OH265824   6.614   3.395  11.436  0.8662  0.3584 -0.5643
14778TIP3    H165825   6.680   3.409  11.504 -0.7330  0.1352  1.1054
14778TIP3    H265826   6.536   3.439  11.469 -0.7024 -1.9168 -1.0061
14779TIP3   OH265827   3.417   3.503  11.195 -0.3968  0.9321  0.0335
14779TIP3    H165828   3.337   3.461  11.165 -0.3180  0.1227  0.9063
14779TIP3    H265829   3.476   3.501  11.120 -0.3262 -0.7133  0.1067
14780TIP3   OH265830   5.779   3.864   0.453 -0.1442 -0.1378  0.0613
14780TIP3    H165831   5.732   3.892   0.532 -0.2150 -0.1153  0.0104
14780TIP3    H265832   5.712   3.854   0.386 -0.0074  0.5007 -0.1813
14781TIP3   OH265833   1.985   4.536  12.782  0.1718  0.3857  0.0800
14781TIP3    H165834   1.978   4.454  12.732  1.2990  1.1974 -1.4857
14781TIP3    H265835   2.009   4.508  12.870  0.8730 -0.9660 -0.5008
14782TIP3   OH265836   0.457   1.315   1.468 -0.2151 -0.2213 -0.1768
14782TIP3    H165837   0.432   1.311   1.375 -1.5225 -0.4091  0.1590
14782TIP3    H265838   0.552   1.304   1.468 -0.0779  0.7281 -1.5611
14783TIP3   OH265839   0.224   6.354   2.902  0.4163 -1.0636 -0.2109
14783TIP3    H165840   0.252   6.365   2.811 -2.1064 -0.7387 -1.0305
14783TIP3    H265841   0.210   6.443   2.934 -0.7413 -1.2183 -0.2343
14784TIP3   OH265842   5.476   5.502  15.533 -0.2373 -0.6138  0.2549
14784TIP3    H165843   5.542   5.441  15.566 -1.1465 -0.8115  1.8555
14784TIP3    H265844   5.525   5.581  15.509  0.6707 -1.0464  0.6411
14785TIP3   OH265845   4.931   6.429   5.554  0.1654  0.5187  0.3494
14785TIP3    H165846   4.952   6.365   5.486  1.1543  1.3383 -0.1537
14785TIP3    H265847   5.002   6.422   5.617  0.3115  1.1453  0.2616
14786TIP3   OH265848   0.283   4.832  15.206 -0.6757  0.9987 -0.3801
14786TIP3    H165849   0.338   4.800  15.134 -0.8727  0.6032 -0.3558
14786TIP3    H265850   0.302   4.926  15.209  0.2428  0.8193 -0.1596
14787TIP3   OH265851   4.110   5.862   5.074 -0.8608  0.5010 -0.4143
14787TIP3    H165852   4.204   5.844   5.066 -1.2471 -2.0161 -0.1777
14787TIP3    H265853   4.070   5.815   5.001 -2.0757 -0.1766  0.6325
14788TIP3   OH265854   3.780   1.007   5.558  0.2591 -0.2525  0.6248
14788TIP3    H165855   3.738   0.933   5.513  0.1070  0.6946 -0.8488
14788TIP3    H265856   3.853   0.967   5.606 -0.5237 -1.5157  0.8074
14789TIP3   OH265857   6.816   0.927  13.459  0.7074  0.2299  0.2109
14789TIP3    H165858   6.901   0.940  13.417  0.2605 -0.1835 -0.8419
14789TIP3    H265859   6.782   1.015  13.473  0.5507  0.3726 -0.9632
14790TIP3   OH265860   5.813   6.334   5.075 -0.5749 -0.1883  0.3349
14790TIP3    H165861   5.864   6.338   5.156  1.1064 -0.5446 -0.6611
14790TIP3    H265862   5.820   6.421   5.037 -0.8967 -0.1784  0.2929
14791TIP3   OH265863   3.349   6.550  12.212 -0.1512  0.1195  0.1539
14791TIP3    H165864   3.326   6.625  12.267  0.4773  0.5265 -0.1248
14791TIP3    H265865   3.307   6.568  12.128  0.2312  0.3101 -0.0028
14792TIP3   OH265866   6.778   5.197  11.698  0.2029 -0.0106  0.0952
14792TIP3    H165867   6.757   5.113  11.656 -0.8709  0.3017 -0.0057
14792TIP3    H265868   6.712   5.258  11.666  0.5293  0.7073  0.7416
14793TIP3   OH265869   6.551   5.801  17.102  0.5346 -0.5292 -0.2194
14793TIP3    H165870   6.639   5.838  17.109 -0.0557  1.1630 -1.1041
14793TIP3    H265871   6.561   5.726  17.044  1.2361  0.3094 -1.2161
14794TIP3   OH265872   4.950   5.139  13.479 -0.2079 -0.1968  0.3321
14794TIP3    H165873   5.032   5.123  13.432 -0.3649 -1.1371  0.3702
14794TIP3    H265874   4.938   5.234  13.474 -0.7718 -0.3188 -2.4867
14795TIP3   OH265875   0.526   1.587  14.912  0.1824 -0.6662 -0.3814
14795TIP3    H165876   0.490   1.546  14.833 -0.3440  0.1599 -0.5807
14795TIP3    H265877   0.609   1.541  14.928 -1.1041 -2.9286  0.3209
14796TIP3   OH265878   0.071   5.876   1.329 -0.2742 -0.5207 -0.2203
14796TIP3    H165879  -0.018   5.905   1.309 -0.1174 -0.2090 -0.4643
14796TIP3    H265880   0.117   5.880   1.245  0.3931  0.8131  0.1950
14797TIP3   OH265881   5.065   4.699  14.146  0.1816 -0.1610  0.1626
14797TIP3    H165882   5.057   4.787  14.184 -0.0291 -0.6299  1.2267
14797TIP3    H265883   5.105   4.647  14.215 -1.7159 -1.4305  0.3717
14798TIP3   OH265884   3.055   3.507  11.771  0.3505  0.3186 -0.2257
14798TIP3    H165885   3.085   3.545  11.688  1.0687  0.6911  0.2014
14798TIP3    H265886   2.959   3.504  11.761  0.4472  0.0372 -1.1991
14799TIP3   OH265887   0.739   2.024  14.473  0.0730  0.3771 -0.4243
14799TIP3    H165888   0.703   2.107  14.441 -4.8246 -1.4102 -0.3992
14799TIP3    H265889   0.736   2.032  14.569 -0.5461  0.1933 -0.4197
14800TIP3   OH265890   4.321   3.984   1.948  0.1665  0.6788 -0.2886
14800TIP3    H165891   4.377   3.983   1.870  1.3906 -0.4234  0.5742
14800TIP3    H265892   4.338   4.070   1.988  1.1926  0.3934 -0.0879
14801TIP3   OH265893   0.151   6.532   5.948 -0.5489 -0.3220  0.2294
14801TIP3    H165894   0.230   6.521   6.002  1.7187 -0.7129 -2.8668
14801TIP3    H265895   0.137   6.447   5.908 -2.6236 -0.2491  0.6807
14802TIP3   OH265896   4.558   0.389  13.005  0.7313  0.3833 -0.5448
14802TIP3    H165897   4.482   0.357  12.957 -0.2617  1.7761  0.0353
14802TIP3    H265898   4.590   0.463  12.954  0.3229  1.1975  0.3525
14803TIP3   OH265899   5.742   5.806   0.002 -0.4803  0.4496  0.0311
14803TIP3    H165900   5.716   5.722  -0.036 -0.5093  0.4584  0.0319
14803TIP3    H265901   5.813   5.837  -0.054 -0.0403  0.1248  0.3978
14804TIP3   OH265902   3.173   2.550  10.591  0.1914 -0.9506 -0.1508
14804TIP3    H165903   3.170   2.510  10.677  0.2711  0.0465  0.3278
14804TIP3    H265904   3.109   2.502  10.539  0.1489 -1.5568  0.4546
14805TIP3   OH265905   6.762   0.267   6.315 -0.9073 -0.1753  0.7070
14805TIP3    H165906   6.674   0.244   6.342 -1.3712  2.7587  2.0839
14805TIP3    H265907   6.761   0.363   6.308  1.6929 -0.1673 -1.0128
14806TIP3   OH265908   3.975   3.368  15.943 -0.6702 -0.0848  0.7052
14806TIP3    H165909   3.910   3.437  15.956 -0.5818 -0.1894  1.8401
14806TIP3    H265910   4.021   3.363  16.027  1.6147  0.8184 -0.3770
14807TIP3   OH265911   5.309   4.109   1.766  0.2728 -0.1161  0.0671
14807TIP3    H165912   5.245   4.120   1.696  0.1959  1.3287  0.3219
14807TIP3    H265913   5.374   4.178   1.750 -0.0491  0.6396  1.7112
14808TIP3   OH265914   1.424   2.010   5.347 -0.8926 -0.5045 -0.1987
14808TIP3    H165915   1.352   1.972   5.297  0.2489 -0.5000 -1.9112
14808TIP3    H265916   1.434   1.952   5.423 -4.2834  0.8541  1.5152
14809TIP3   OH265917   0.682   4.830  13.593  0.0743 -0.5882  0.0786
14809TIP3    H165918   0.606   4.800  13.543  0.2838 -1.3130  0.1887
14809TIP3    H265919   0.716   4.905  13.544 -1.3810  0.4701  0.6100
14810TIP3   OH265920   4.010   5.662   2.406 -0.4343 -0.2879 -0.2986
14810TIP3    H165921   3.996   5.640   2.314  1.6437 -0.0439 -0.7318
14810TIP3    H265922   4.027   5.756   2.406  1.6279 -0.6123  0.0101
14811TIP3   OH265923   5.512   6.589  13.216  0.3377 -0.2118 -0.1567
14811TIP3    H165924   5.523   6.493  13.215  0.1716 -0.2372  0.2154
14811TIP3    H265925   5.428   6.604  13.173  1.0399 -0.1273 -1.5434
14812TIP3   OH265926   4.932   0.591  13.568  0.0862  0.1161  0.3034
14812TIP3    H165927   4.955   0.593  13.476  0.3269  0.3220  0.3665
14812TIP3    H265928   4.883   0.510  13.580 -0.0307  0.1396 -0.0243
14813TIP3   OH265929   4.244   3.172   1.894 -0.0446  0.7823 -0.4220
14813TIP3    H165930   4.169   3.213   1.936 -1.0990 -1.5163  0.0852
14813TIP3    H265931   4.238   3.199   1.802 -1.4577  0.7224 -0.3698
14814TIP3   OH265932   2.286   1.406   4.902 -0.0341 -0.3211 -0.2032
14814TIP3    H165933   2.327   1.338   4.955  0.1073  0.2170  0.3820
14814TIP3    H265934   2.200   1.419   4.941 -0.3878 -0.7346 -0.8173
14815TIP3   OH265935   5.514   6.539   1.753  0.5845  0.3087 -0.2879
14815TIP3    H165936   5.572   6.604   1.791 -0.6769  1.3626 -0.1079
14815TIP3    H265937   5.519   6.464   1.813 -0.5988  1.5639  1.4573
14816TIP3   OH265938   0.877   5.223  15.433  0.7535  0.2715 -0.0046
14816TIP3    H165939   0.899   5.295  15.492 -1.6471  0.0051  1.3746
14816TIP3    H265940   0.942   5.155  15.451  2.3533  1.6090 -0.4996
14817TIP3   OH265941   3.664   1.382  14.489  0.9187 -0.4599  0.0595
14817TIP3    H165942   3.671   1.297  14.444 -1.0098 -0.1771 -0.8775
14817TIP3    H265943   3.711   1.443  14.432  0.2621 -0.4793 -0.5115
14818TIP3   OH265944   0.797   6.467  12.803  0.1270  0.0121 -0.5523
14818TIP3    H165945   0.740   6.453  12.728 -0.4271  1.4698 -0.4287
14818TIP3    H265946   0.846   6.385  12.811  0.5132 -0.0405 -2.7505
14819TIP3   OH265947   1.515   0.673  16.782  0.1776 -0.6454 -0.0833
14819TIP3    H165948   1.486   0.601  16.726 -2.0012  1.1504 -1.4654
14819TIP3    H265949   1.556   0.735  16.722  0.6107 -0.0535  0.8095
14820TIP3   OH265950   0.310   6.748  14.865 -0.2097 -0.4625 -0.3712
14820TIP3    H165951   0.253   6.820  14.839 -1.1800 -0.8344  0.6727
14820TIP3    H265952   0.333   6.766  14.956  0.6827 -0.7506 -0.5270
14821TIP3   OH265953   0.023   6.515   3.724 -0.2832  0.6515 -0.0324
14821TIP3    H165954   0.116   6.498   3.737 -0.1645  0.5010 -0.9928
14821TIP3    H265955  -0.019   6.430   3.739 -0.1694  0.5205 -0.4476
14822TIP3   OH265956   2.508   0.707  16.319 -0.0192  0.4151 -0.6277
14822TIP3    H165957   2.490   0.747  16.403 -3.1416  0.6774 -1.3235
14822TIP3    H265958   2.495   0.777  16.255  0.4329 -0.2422 -1.4691
14823TIP3   OH265959   0.262   2.093  14.405  0.1512  0.3314  0.2516
14823TIP3    H165960   0.225   2.008  14.381  0.3120  0.3037  0.1064
14823TIP3    H265961   0.300   2.127  14.324  2.6652 -0.7401  0.8856
14824TIP3   OH265962   6.727   1.063  14.211  0.1038  0.6602  0.2840
14824TIP3    H165963   6.821   1.075  14.221  0.1372  0.6389  0.0014
14824TIP3    H265964   6.716   0.968  14.205  0.1837  0.7036 -0.8039
14825TIP3   OH265965   2.912   4.933   1.823  0.4716 -0.3108 -0.3879
14825TIP3    H165966   2.868   4.922   1.739 -0.6429 -0.7225  0.2284
14825TIP3    H265967   3.005   4.932   1.802  0.2137  0.9700 -1.7842
14826TIP3   OH265968   1.944   3.379   2.376  0.0862  0.8353 -0.1645
14826TIP3    H165969   1.908   3.308   2.429  1.4124  0.3332  0.1136
14826TIP3    H265970   1.976   3.443   2.441 -0.3504  1.3098 -0.4045
14827TIP3   OH265971   5.045   4.371  13.630  0.2210 -0.3997  0.0994
14827TIP3    H165972   4.977   4.405  13.688  1.1961 -0.3023  1.2269
14827TIP3    H265973   5.011   4.286  13.600 -0.0565 -0.7207  1.2788
14828TIP3   OH265974   2.601   2.841  17.192 -0.4956 -0.2890  0.3769
14828TIP3    H165975   2.671   2.896  17.226 -1.6111  1.3187  0.1723
14828TIP3    H265976   2.610   2.758  17.240  1.8606 -0.3502 -0.0647
14829TIP3   OH265977   6.759   3.365  12.847  0.0277  0.2725 -0.7597
14829TIP3    H165978   6.683   3.423  12.848 -2.2104 -2.4795 -0.4437
14829TIP3    H265979   6.833   3.423  12.865 -2.1981  2.7653  1.2742
14830TIP3   OH265980   1.746   6.262  16.990  0.1757  0.0578  0.6385
14830TIP3    H165981   1.665   6.298  16.953 -0.7162 -2.1995  0.1986
14830TIP3    H265982   1.723   6.243  17.081  1.2183  2.1913  1.4073
14831TIP3   OH265983   2.685   4.768  15.390 -0.0907  0.3751  0.2482
14831TIP3    H165984   2.756   4.718  15.349 -0.5611 -0.0134 -0.1005
14831TIP3    H265985   2.686   4.739  15.482  1.1367  1.4443  0.6006
14832TIP3   OH265986   0.866   1.256   5.783 -0.0990 -0.0193  0.3806
14832TIP3    H165987   0.810   1.185   5.815  1.0481 -1.1271 -0.0379
14832TIP3    H265988   0.916   1.218   5.711  1.5847  0.7783  1.0694
14833TIP3   OH265989   2.218   0.790  12.989 -0.1079  0.2471  0.2309
14833TIP3    H165990   2.227   0.715  12.930  0.1994  0.1278  0.4286
14833TIP3    H265991   2.153   0.846  12.946 -1.8918 -1.0838  1.0548
14834TIP3   OH265992   1.172   4.236  16.890 -0.3182  0.3622  0.3991
14834TIP3    H165993   1.233   4.309  16.874  0.1300 -0.4496 -2.0286
14834TIP3    H265994   1.222   4.174  16.942  0.3999  0.4216 -0.2023
14835TIP3   OH265995   4.050   0.830   1.994  0.4606  0.0142 -0.2107
14835TIP3    H165996   4.124   0.812   2.052 -1.1265 -0.5631  1.7573
14835TIP3    H265997   4.065   0.774   1.917  2.2688  0.2686 -0.0819
14836TIP3   OH265998   4.587   5.975   5.869 -0.3926  0.4374 -0.0540
14836TIP3    H165999   4.607   5.883   5.851  1.8635  1.0574 -1.0264
14836TIP3    H266000   4.643   5.998   5.944  0.9085  1.5970 -1.3216
14837TIP3   OH266001   5.681   3.542   3.306 -0.2262 -0.2593  0.6175
14837TIP3    H166002   5.775   3.540   3.325  0.1783  0.9178 -1.0700
14837TIP3    H266003   5.659   3.451   3.284  0.5303 -0.5167  0.8942
14838TIP3   OH266004   2.771   5.568  16.371 -0.3591  0.2198 -0.5414
14838TIP3    H166005   2.773   5.655  16.333 -0.2526  0.3303 -0.2787
14838TIP3    H266006   2.859   5.554  16.406 -0.5054  0.1809 -0.1881
14839TIP3   OH266007   3.989   2.149  14.298 -0.4155  0.0420  0.1079
14839TIP3    H166008   3.989   2.081  14.365  1.0198 -0.1223 -0.0282
14839TIP3    H266009   4.028   2.225  14.341 -2.2986  0.9402  0.3631
14840TIP3   OH266010   3.288   0.585   4.554  0.0049 -0.0097 -0.2822
14840TIP3    H166011   3.325   0.517   4.497 -0.8962 -0.4626 -0.3574
14840TIP3    H266012   3.237   0.536   4.619  0.2123  0.5528  0.3088
14841TIP3   OH266013   6.274   3.422  12.323 -0.3586  0.6796  0.1511
14841TIP3    H166014   6.286   3.374  12.405  1.0098  0.6938 -0.0283
14841TIP3    H266015   6.194   3.473  12.337  0.5769  1.7439  1.9806
14842TIP3   OH266016   1.675   4.668   5.509 -0.1058  0.0858  0.1374
14842TIP3    H166017   1.710   4.646   5.422 -0.5755  1.0681 -0.3137
14842TIP3    H266018   1.704   4.596   5.565  1.0914 -0.0475 -0.6077
14843TIP3   OH266019   6.278   5.335   0.946 -0.3353  0.1447 -0.2285
14843TIP3    H166020   6.293   5.337   0.852  0.2778 -2.0945 -0.2322
14843TIP3    H266021   6.198   5.284   0.956 -0.1748  0.0237  0.4773
14844TIP3   OH266022   6.300   4.201  15.768  0.0544  0.4984 -0.0757
14844TIP3    H166023   6.370   4.173  15.709 -0.2699 -0.1656 -0.1528
14844TIP3    H266024   6.219   4.181  15.721 -0.1958  1.0544  0.1075
14845TIP3   OH266025   5.751   0.830   4.314  0.4147 -0.2589 -0.1149
14845TIP3    H166026   5.749   0.758   4.251  0.7584 -0.3454 -0.0297
14845TIP3    H266027   5.831   0.877   4.294  0.7548 -0.5435  0.5329
14846TIP3   OH266028   0.655   1.496   5.749  0.8491  0.2679 -0.1855
14846TIP3    H166029   0.719   1.565   5.734  0.2984  0.7624 -0.3167
14846TIP3    H266030   0.684   1.423   5.694  1.3297  0.4604 -0.1900
14847TIP3   OH266031   1.509   1.668  14.203 -0.3178 -0.2636  0.4724
14847TIP3    H166032   1.427   1.651  14.158 -0.7064  2.4503  0.0058
14847TIP3    H266033   1.571   1.690  14.134  0.2057 -0.1157  0.9752
14848TIP3   OH266034   2.500   1.180   3.814 -0.0781 -0.1257  0.0092
14848TIP3    H166035   2.584   1.204   3.853 -0.0959 -0.0396 -0.0038
14848TIP3    H266036   2.485   1.247   3.747  1.0151 -1.4962 -1.6940
14849TIP3   OH266037   2.716   0.924   3.800 -0.3482  0.2214  0.0708
14849TIP3    H166038   2.625   0.932   3.769 -0.0473  0.3607 -0.8062
14849TIP3    H266039   2.768   0.962   3.730  0.5740 -2.0597 -0.5761
14850TIP3   OH266040   5.355   2.971   5.898  0.8659 -0.2444 -0.6335
14850TIP3    H166041   5.365   3.066   5.909  0.0602 -0.1043 -1.0642
14850TIP3    H266042   5.261   2.958   5.884  1.0213 -1.0685 -0.9729
14851TIP3   OH266043   6.441   6.262  13.749 -0.2046  0.5317 -0.0850
14851TIP3    H166044   6.428   6.270  13.654  0.6588 -0.9211 -0.3597
14851TIP3    H266045   6.469   6.349  13.777 -1.1161  1.1597 -1.0372
14852TIP3   OH266046   0.778   3.345  12.921  0.5128  0.1986 -0.6458
14852TIP3    H166047   0.742   3.325  12.835  1.7894 -0.5442 -1.0271
14852TIP3    H266048   0.852   3.402  12.905 -0.5983  1.9611  0.1612
14853TIP3   OH266049   3.703   4.864   0.019  0.1672  0.4428  0.1813
14853TIP3    H166050   3.696   4.928   0.091 -0.8651 -1.5320  1.9538
14853TIP3    H266051   3.612   4.843  -0.003  0.4635 -0.9533  0.1805
14854TIP3   OH266052   4.757   4.089   1.562 -0.2311 -0.5330  0.5859
14854TIP3    H166053   4.813   4.167   1.557  1.2722 -1.5580  0.4906
14854TIP3    H266054   4.810   4.025   1.610 -0.2746 -2.3667 -1.6097
14855TIP3   OH266055   1.772   6.200   5.163  0.0802  0.5206 -0.7381
14855TIP3    H166056   1.827   6.189   5.086  0.4890  2.2659 -0.7370
14855TIP3    H266057   1.755   6.111   5.193  2.8775 -0.0996 -0.7361
14856TIP3   OH266058   4.586   2.704  16.523 -0.5767 -0.8962  0.1047
14856TIP3    H166059   4.534   2.633  16.485 -1.1129 -1.5673  1.9743
14856TIP3    H266060   4.527   2.779  16.522 -0.7067 -0.9996 -0.0578
14857TIP3   OH266061   4.867   3.128  14.443 -0.1354  0.7769 -0.6380
14857TIP3    H166062   4.872   3.082  14.359 -2.8041  1.9927 -1.5952
14857TIP3    H266063   4.777   3.161  14.447  0.0087  1.1280  2.5478
14858TIP3   OH266064   4.348   2.741   5.074  0.0275 -0.0700  0.2379
14858TIP3    H166065   4.429   2.773   5.114 -0.8635  1.5452  0.8479
14858TIP3    H266066   4.353   2.769   4.983  0.4136 -0.5307  0.1104
14859TIP3   OH266067   2.966   3.322  14.110 -0.3379 -0.2369 -0.2473
14859TIP3    H166068   2.923   3.407  14.099 -1.6063 -0.9373 -0.9710
14859TIP3    H266069   2.904   3.271  14.163  0.6436 -0.5561  0.6235
14860TIP3   OH266070   3.135   1.635  14.203  0.5910 -0.2275  0.3032
14860TIP3    H166071   3.114   1.723  14.233 -0.2075 -1.2641  3.0465
14860TIP3    H266072   3.225   1.620  14.231  0.8757 -0.1536 -0.5423
14861TIP3   OH266073   4.080   2.116   3.141 -0.4792 -0.3772  0.1173
14861TIP3    H166074   4.081   2.033   3.093 -0.8869  0.0548 -0.6678
14861TIP3    H266075   4.033   2.177   3.082  0.4822  0.6064  0.3410
14862TIP3   OH266076   6.474   4.155   4.194  0.7297 -0.5292  0.2487
14862TIP3    H166077   6.465   4.230   4.135 -0.1975 -0.1153  0.8971
14862TIP3    H266078   6.544   4.180   4.255 -0.5660  0.4569  1.3831
14863TIP3   OH266079   4.797   0.465   3.644  0.8454 -0.1046  0.6261
14863TIP3    H166080   4.765   0.545   3.602 -0.8309 -0.7203  0.6441
14863TIP3    H266081   4.729   0.443   3.707  0.6722 -2.1727 -0.2060
14864TIP3   OH266082   6.813   6.365  12.713 -0.4712 -0.2912 -0.4708
14864TIP3    H166083   6.834   6.427  12.643 -1.8303 -1.5782 -2.0803
14864TIP3    H266084   6.886   6.303  12.712  0.0659  0.3140  0.0365
14865TIP3   OH266085   1.340   3.016   5.041 -0.1763  0.4990 -0.0270
14865TIP3    H166086   1.383   3.024   5.126  0.6489  0.2822 -0.4215
14865TIP3    H266087   1.337   2.922   5.023 -0.2638  0.5485 -0.2853
14866TIP3   OH266088   6.107   2.158   5.133  0.1682 -0.4927  0.0788
14866TIP3    H166089   6.112   2.147   5.038 -0.0505  0.5837 -0.0791
14866TIP3    H266090   6.053   2.085   5.164 -0.0052 -0.6811 -0.6613
14867TIP3   OH266091   4.372   1.004  14.915  0.3367 -0.4684 -0.3048
14867TIP3    H166092   4.446   1.038  14.864  0.5474 -0.1657  0.1996
14867TIP3    H266093   4.296   1.052  14.882  0.6093  0.4179  0.3026
14868TIP3   OH266094   4.959   5.759  16.855  0.3731  0.1542 -0.0901
14868TIP3    H166095   5.042   5.750  16.807 -0.3148 -0.8618 -1.1575
14868TIP3    H266096   4.974   5.711  16.937  1.1750  0.8868  0.2055
14869TIP3   OH266097   5.048   0.446   2.357 -0.4295 -0.8803 -0.3024
14869TIP3    H166098   5.050   0.540   2.341  2.7077 -0.8192 -0.2599
14869TIP3    H266099   5.073   0.408   2.272 -1.9564 -1.7444 -0.4016
14870TIP3   OH266100   2.042   3.855  13.938  0.9469 -0.5317  0.0573
14870TIP3    H166101   1.970   3.798  13.966  0.6789 -0.7192 -0.9566
14870TIP3    H266102   2.016   3.884  13.850  1.2245  0.9164  0.4263
14871TIP3   OH266103   6.517   3.790   4.540  0.5315  0.6920  0.2168
14871TIP3    H166104   6.605   3.795   4.577  0.1418  1.2128  1.1154
14871TIP3    H266105   6.502   3.878   4.503  1.7969 -0.4262 -3.3987
14872TIP3   OH266106   5.239   4.305  12.687  0.1930 -0.0570  0.6130
14872TIP3    H166107   5.194   4.246  12.747  0.4554  0.1574  1.0244
14872TIP3    H266108   5.318   4.331  12.733 -0.0753  0.8703  0.5801
14873TIP3   OH266109   0.672   3.209  15.700 -0.5099  0.0112 -0.0632
14873TIP3    H166110   0.745   3.257  15.737 -1.0960  2.5265 -1.8905
14873TIP3    H266111   0.706   3.173  15.618 -0.9308  0.0668 -0.2664
14874TIP3   OH266112   3.149   2.059   5.669  0.2203 -0.2845 -0.4004
14874TIP3    H166113   3.126   2.001   5.741  0.2431  1.2131  0.8943
14874TIP3    H266114   3.071   2.112   5.655  0.2508 -0.5051 -1.4352
14875TIP3   OH266115   1.567   4.233   1.972 -0.5650 -0.2128 -0.0453
14875TIP3    H166116   1.658   4.212   1.994  0.2976  1.9562 -1.2741
14875TIP3    H266117   1.534   4.154   1.929  0.1950 -1.6047  1.7977
14876TIP3   OH266118   6.275   6.710  15.383  0.6808 -0.3718 -0.6156
14876TIP3    H166119   6.310   6.682  15.299  0.4517  0.5044 -1.0127
14876TIP3    H266120   6.272   6.805  15.377  0.4282 -0.3155  0.2926
14877TIP3   OH266121   4.947   5.638   1.364  0.2695 -0.1862 -0.2452
14877TIP3    H166122   4.941   5.543   1.371  0.7789 -0.1712  0.4443
14877TIP3    H266123   5.021   5.662   1.420 -1.0849  0.8096  1.2201
14878TIP3   OH266124   2.619   4.928   5.942 -0.0070  0.2382  0.2442
14878TIP3    H166125   2.683   4.935   6.013  0.5945 -0.8638 -0.1706
14878TIP3    H266126   2.669   4.941   5.862 -0.3785 -0.2004 -0.0657
14879TIP3   OH266127   4.866   0.530   5.816 -0.0325 -0.1369  0.8077
14879TIP3    H166128   4.913   0.575   5.886 -0.5730 -0.8026  1.6237
14879TIP3    H266129   4.796   0.590   5.792 -0.2682 -0.1921  1.3396
14880TIP3   OH266130   2.275   5.199   4.405  0.1163 -0.6363 -0.5441
14880TIP3    H166131   2.249   5.112   4.374 -1.6233 -0.6568  0.7789
14880TIP3    H266132   2.286   5.189   4.500 -0.4542  0.6296 -0.3133
14881TIP3   OH266133   3.734   0.667  16.530  0.3219  0.2662 -0.1270
14881TIP3    H166134   3.721   0.574  16.550  1.8075  0.1272  0.3614
14881TIP3    H266135   3.775   0.703  16.609 -1.1389  1.5828  0.0690
14882TIP3   OH266136   6.124   2.136   5.581 -0.1917  0.2253  0.0637
14882TIP3    H166137   6.068   2.175   5.649 -0.5057  1.4568 -0.8687
14882TIP3    H266138   6.066   2.079   5.531  0.2880 -1.6276  1.4859
14883TIP3   OH266139   3.964   6.573   4.266  0.0264 -0.2629 -0.1866
14883TIP3    H166140   3.918   6.575   4.350  0.4394 -0.9108  0.0619
14883TIP3    H266141   4.044   6.524   4.283 -0.5749 -1.7138 -1.2827
14884TIP3   OH266142   6.601   0.086  13.668 -0.0804  0.3773  0.1167
14884TIP3    H166143   6.569   0.132  13.590 -0.8308 -0.7217 -0.2412
14884TIP3    H266144   6.530   0.095  13.731 -0.7579 -1.2822 -0.3652
14885TIP3   OH266145   3.472   2.454  13.462  0.8096  0.2876  0.1479
14885TIP3    H166146   3.473   2.374  13.515 -1.4434  0.3136  0.3650
14885TIP3    H266147   3.554   2.498  13.482  1.1657 -0.9722  1.6378
14886TIP3   OH266148   5.954   1.967  16.090  0.6154 -0.0849  0.3558
14886TIP3    H166149   5.949   2.050  16.043  1.1275  0.3447  1.0528
14886TIP3    H266150   5.941   1.901  16.022 -1.0116  0.5752 -0.0232
14887TIP3   OH266151   4.524   4.045  16.456  0.2301  0.3089  0.8055
14887TIP3    H166152   4.573   4.087  16.527  1.4586 -0.4678  0.4531
14887TIP3    H266153   4.591   4.026  16.390 -0.6631 -0.2402  0.0435
14888TIP3   OH266154   4.736   5.814  15.928 -0.0267 -0.1597  0.3127
14888TIP3    H166155   4.764   5.729  15.894 -1.8597 -1.1747  1.2212
14888TIP3    H266156   4.705   5.796  16.017 -0.6479  1.4254  0.4543
14889TIP3   OH266157   0.573   3.144   5.647  0.1107 -0.5339 -0.2648
14889TIP3    H166158   0.582   3.092   5.567  0.4156  0.4060 -0.8583
14889TIP3    H266159   0.650   3.120   5.700  1.3599  0.7416 -1.4018
14890TIP3   OH266160   3.190   4.163   5.674  0.0424 -0.4223 -0.4486
14890TIP3    H166161   3.282   4.170   5.647  0.2050  0.6678  0.2911
14890TIP3    H266162   3.159   4.082   5.634  0.6558  0.3611 -2.6816
14891TIP3   OH266163   4.174   6.049   1.233  0.7044 -0.0340  0.0936
14891TIP3    H166164   4.201   6.030   1.143  2.5517  0.2526  0.5477
14891TIP3    H266165   4.092   6.097   1.223  0.6570 -0.3535 -1.4175
14892TIP3   OH266166   4.803   5.353   3.061  0.2493 -0.0135 -0.6117
14892TIP3    H166167   4.846   5.273   3.030 -0.7309 -0.3798 -1.0625
14892TIP3    H266168   4.724   5.323   3.105  0.9687  0.5913  1.1782
14893TIP3   OH266169   2.563   0.109   5.599  0.1230  0.6289 -0.2469
14893TIP3    H166170   2.517   0.112   5.515  0.0647 -0.7820 -0.2851
14893TIP3    H266171   2.655   0.113   5.576  0.2009 -1.7468 -0.5643
14894TIP3   OH266172   1.256   0.943  10.323  0.0873  0.4567 -0.1876
14894TIP3    H166173   1.227   1.034  10.324 -1.0931  0.1063 -0.9935
14894TIP3    H266174   1.342   0.945  10.366  0.7394  2.1849 -1.4293
14895TIP3   OH266175   4.117   5.155  14.308  0.2342 -0.2855  0.1943
14895TIP3    H166176   4.185   5.092  14.282 -0.0164 -0.6362  0.3794
14895TIP3    H266177   4.064   5.166  14.229  2.0562  2.0702 -0.8270
14896TIP3   OH266178   1.915   3.992  12.530  0.1807 -0.4924 -0.4911
14896TIP3    H166179   1.991   3.954  12.573  1.2526 -0.8636 -2.5728
14896TIP3    H266180   1.855   3.918  12.518 -0.9023 -0.0590  1.8136
14897TIP3   OH266181   3.149   4.156   3.045 -0.3429  0.7782 -0.1096
14897TIP3    H166182   3.135   4.081   3.104 -1.1519  1.3838  0.4933
14897TIP3    H266183   3.142   4.118   2.957 -1.8398  0.2927  0.1721
14898TIP3   OH266184   3.984   0.699  15.605  0.0351  0.4624 -0.0944
14898TIP3    H166185   3.895   0.695  15.569  0.5612 -1.5019 -1.2863
14898TIP3    H266186   3.971   0.690  15.700 -1.0842  1.0010 -0.1835
14899TIP3   OH266187   0.559   4.087   3.376  0.0030  0.1887  0.4461
14899TIP3    H166188   0.619   4.139   3.322  0.7040  0.8742  1.8535
14899TIP3    H266189   0.530   4.017   3.317 -0.3817  1.7005 -1.2792
14900TIP3   OH266190   2.745   6.520  12.886  0.6227  0.8026 -0.2770
14900TIP3    H166191   2.651   6.507  12.868  0.7917  1.1419 -1.4856
14900TIP3    H266192   2.752   6.509  12.981 -0.5203  0.0231 -0.2479
14901TIP3   OH266193   4.679   3.955   3.535 -0.3408  0.0739  0.2673
14901TIP3    H166194   4.662   3.928   3.625  1.4790  0.2515  0.7154
14901TIP3    H266195   4.644   4.044   3.530  0.1982  0.3426  1.0408
14902TIP3   OH266196   5.257   4.454   0.358 -0.5264 -0.0196  0.1022
14902TIP3    H166197   5.204   4.448   0.438 -2.7668 -1.9584 -1.3696
14902TIP3    H266198   5.194   4.481   0.291  1.5399  2.7896 -0.8806
14903TIP3   OH266199   5.419   5.360  15.282  1.1197 -0.0005 -0.1528
14903TIP3    H166200   5.396   5.443  15.323  3.2620  0.8695 -0.5803
14903TIP3    H266201   5.367   5.294  15.329  0.1024  1.4519  0.8267
14904TIP3   OH266202   3.028   3.759   0.547 -0.2713  0.4596  0.3347
14904TIP3    H166203   2.997   3.826   0.608 -2.2920 -0.4126  0.3527
14904TIP3    H266204   2.998   3.788   0.461  0.3289  0.4143  0.1045
14905TIP3   OH266205   6.238   4.480  15.641  0.0094  0.6706  0.2311
14905TIP3    H166206   6.310   4.515  15.589 -0.4144  0.9203 -0.1976
14905TIP3    H266207   6.273   4.399  15.679  0.7129  1.1051  0.5274
14906TIP3   OH266208   2.359   2.992  12.008 -0.1476  0.0364  0.7416
14906TIP3    H166209   2.266   3.013  12.017 -0.1520 -0.0919  1.0074
14906TIP3    H266210   2.386   2.968  12.096 -0.0927 -0.9041  0.4704
14907TIP3   OH266211   1.898   1.469  11.407 -0.0333  0.5122 -0.6088
14907TIP3    H166212   1.897   1.462  11.312 -3.6094  2.5593 -0.9090
14907TIP3    H266213   1.860   1.387  11.438  0.3369  0.1943 -0.9979
14908TIP3   OH266214   1.435   1.944  12.380  0.1149  0.2130  0.0827
14908TIP3    H166215   1.393   1.860  12.364 -0.3708  0.5335 -0.3688
14908TIP3    H266216   1.401   2.002  12.311  0.4070  0.7903  0.4110
14909TIP3   OH266217   2.112   6.445  11.015 -0.6731 -1.2367 -0.5284
14909TIP3    H166218   2.081   6.536  11.022 -0.1688 -1.1596  0.8696
14909TIP3    H266219   2.151   6.440  10.928  1.6685  0.6611  0.3084
14910TIP3   OH266220   4.115   0.766  14.194 -0.3286 -0.4005  0.4085
14910TIP3    H166221   4.074   0.681  14.211 -1.7025  0.6421  2.7659
14910TIP3    H266222   4.179   0.777  14.264  0.1285  0.3157 -0.1095
14911TIP3   OH266223   5.002   2.911   0.093 -0.4050  0.4951 -0.6666
14911TIP3    H166224   4.910   2.885   0.101 -0.9888  2.2944 -1.0853
14911TIP3    H266225   5.027   2.882   0.005 -0.4413 -0.3579 -0.3997
14912TIP3   OH266226   4.927   1.691  12.898  0.0849 -0.0093  0.0843
14912TIP3    H166227   4.908   1.784  12.883 -1.3819 -0.3637 -0.4875
14912TIP3    H266228   4.988   1.667  12.829 -1.7080 -0.0991 -1.5456
14913TIP3   OH266229   3.721   6.592   3.587  0.3066  0.1377  0.2892
14913TIP3    H166230   3.662   6.666   3.569  0.8313  0.6273  0.5314
14913TIP3    H266231   3.692   6.523   3.527  0.4557  0.8946 -0.6965
14914TIP3   OH266232   5.991   4.369   1.934 -1.1604 -0.0443  0.2222
14914TIP3    H166233   5.937   4.383   2.013 -0.0312  0.8727  0.8580
14914TIP3    H266234   5.954   4.429   1.869  0.5857  2.5149  1.4334
14915TIP3   OH266235   2.851   3.282  14.554 -0.2489 -0.7464  0.6384
14915TIP3    H166236   2.804   3.366  14.549  0.2870 -0.4859 -0.5189
14915TIP3    H266237   2.938   3.305  14.588  0.3413 -0.5997 -0.8798
14916TIP3   OH266238   3.400   3.833  13.404 -0.5876 -0.4124 -0.7775
14916TIP3    H166239   3.366   3.835  13.314 -0.6046  0.3036 -0.7613
14916TIP3    H266240   3.425   3.742  13.418  0.3428 -0.3456 -1.8588
14917TIP3   OH266241   6.387   3.824  13.370  0.2891  0.1592  0.9155
14917TIP3    H166242   6.441   3.745  13.370  0.7243  0.4144 -0.9226
14917TIP3    H266243   6.407   3.867  13.453  1.5556 -0.6415  1.0456
14918TIP3   OH266244   2.582   6.782  12.866  0.2291  0.1163 -0.4827
14918TIP3    H166245   2.672   6.752  12.855  0.0171 -1.7060  1.8993
14918TIP3    H266246   2.556   6.748  12.951 -3.0712 -0.2811 -1.5306
14919TIP3   OH266247   5.372   2.689   3.049 -0.1210 -0.7431 -0.9584
14919TIP3    H166248   5.451   2.684   2.996  0.2614 -2.9360 -0.2888
14919TIP3    H266249   5.402   2.726   3.133  0.4516 -2.4472 -0.3671
14920TIP3   OH266250   4.856   0.399  14.573  0.2314 -0.8852  0.3987
14920TIP3    H166251   4.874   0.462  14.643 -2.7907  0.0818  0.4370
14920TIP3    H266252   4.875   0.448  14.492  0.1062 -0.7226  0.4678
14921TIP3   OH266253   1.980   5.153  12.162  0.1552  0.2991 -0.0540
14921TIP3    H166254   2.026   5.210  12.223 -0.7191 -0.9705  1.8852
14921TIP3    H266255   1.942   5.212  12.097  1.2868  1.6721  0.4933
14922TIP3   OH266256   0.543   3.966  14.602 -0.2260  0.1839 -0.4282
14922TIP3    H166257   0.502   4.052  14.598  2.1331  1.3823 -0.6285
14922TIP3    H266258   0.575   3.958  14.692 -2.2086 -1.4538  0.2223
14923TIP3   OH266259   2.978   5.418  14.812 -0.8514 -0.2326 -0.2425
14923TIP3    H166260   2.902   5.395  14.758 -1.5722 -1.8899  1.3542
14923TIP3    H266261   2.947   5.406  14.902  1.0612 -0.1200  0.4748
14924TIP3   OH266262   1.549   1.944  13.314  1.3694 -0.3572  0.2611
14924TIP3    H166263   1.464   1.918  13.350  0.2926  1.6885 -0.6414
14924TIP3    H266264   1.603   1.866  13.322 -0.6757 -1.8201  0.5817
14925TIP3   OH266265   4.639   5.467  16.785  0.2787  0.0424 -0.2292
14925TIP3    H166266   4.595   5.382  16.794  0.0461  0.3232  1.6698
14925TIP3    H266267   4.731   5.447  16.802  0.5380 -0.1357 -1.7528
14926TIP3   OH266268   2.050   0.530  12.030 -0.0164 -0.3193 -0.9336
14926TIP3    H166269   1.967   0.492  12.055 -0.5116  0.4348 -1.3858
14926TIP3    H266270   2.059   0.510  11.937  0.6858 -1.0631 -0.7198
14927TIP3   OH266271   0.563   2.970  13.267 -0.0559 -0.5143  0.2798
14927TIP3    H166272   0.624   2.896  13.263  0.8522  0.2375  0.0283
14927TIP3    H266273   0.554   2.999  13.176 -0.3295 -0.2369  0.3929
14928TIP3   OH266274   1.055   6.393   1.492 -0.1859 -0.0096  0.1456
14928TIP3    H166275   1.058   6.480   1.452  0.8297 -0.6990 -1.3758
14928TIP3    H266276   1.033   6.335   1.419 -1.1907 -1.0058  1.2103
14929TIP3   OH266277   4.464   5.642  17.107 -0.1285  0.1418  0.3352
14929TIP3    H166278   4.460   5.547  17.109  1.5927 -0.0244  4.0736
14929TIP3    H266279   4.558   5.662  17.107 -0.3930  1.7175  2.4997
14930TIP3   OH266280   6.660   0.863  11.671  0.1503 -1.5227 -0.2704
14930TIP3    H166281   6.684   0.877  11.579  3.2482 -1.4550  0.4346
14930TIP3    H266282   6.668   0.949  11.712 -1.4131 -1.5114  0.0628
14931TIP3   OH266283   1.140   1.172   1.538  0.4405 -0.0463 -0.4978
14931TIP3    H166284   1.193   1.160   1.459 -0.0284 -0.4547 -0.7588
14931TIP3    H266285   1.110   1.084   1.560  1.5283 -0.1212  0.8388
14932TIP3   OH266286   3.601   3.045  13.216 -0.4577  0.3820 -0.0360
14932TIP3    H166287   3.696   3.030  13.215 -0.6163 -0.6744 -0.9298
14932TIP3    H266288   3.568   2.984  13.283 -0.6111 -0.0270 -0.4772
14933TIP3   OH266289   6.372   0.831   3.079  0.4113 -0.2290 -0.6716
14933TIP3    H166290   6.329   0.814   2.995  0.6640 -1.1232 -0.6351
14933TIP3    H266291   6.396   0.923   3.076  0.0901 -0.1622 -1.4329
14934TIP3   OH266292   3.633   5.800  15.359 -0.4543 -0.0302  0.2720
14934TIP3    H166293   3.674   5.880  15.390 -0.3474 -0.1964  0.5626
14934TIP3    H266294   3.664   5.790  15.269 -0.4131  0.2170  0.2596
14935TIP3   OH266295   1.840   5.785  11.732  0.4482 -0.1479 -0.2563
14935TIP3    H166296   1.781   5.738  11.672  0.0358  0.1223 -0.0680
14935TIP3    H266297   1.785   5.809  11.806  0.8969 -0.2422  0.1106
14936TIP3   OH266298   2.616   4.998  14.973  0.0460 -0.4454 -0.2444
14936TIP3    H166299   2.605   4.919  14.920 -0.4519 -0.2451 -0.4418
14936TIP3    H266300   2.565   4.981  15.052 -0.6795 -0.0187 -0.6176
14937TIP3   OH266301   3.493   0.054   0.363 -0.3828 -0.1405 -0.8992
14937TIP3    H166302   3.572   0.093   0.401  0.2474 -0.5390 -1.7541
14937TIP3    H266303   3.507   0.061   0.268 -0.2058 -2.4738 -1.0919
14938TIP3   OH266304   4.571   2.460   2.390 -0.3421  0.4211  0.1415
14938TIP3    H166305   4.576   2.553   2.367 -2.0608  0.4670 -0.1801
14938TIP3    H266306   4.478   2.444   2.406 -0.0197 -1.1507  0.6473
14939TIP3   OH266307   6.222   0.355   3.199  0.2678 -0.0137 -0.0104
14939TIP3    H166308   6.219   0.318   3.287  0.6649 -0.2139 -0.0777
14939TIP3    H266309   6.229   0.450   3.213  2.9187 -0.1663  0.2476
14940TIP3   OH266310   0.513   0.697  14.882  0.1827 -0.3303  0.3474
14940TIP3    H166311   0.551   0.629  14.937  0.9707  1.4252  2.0742
14940TIP3    H266312   0.588   0.752  14.857 -0.5942  0.6254  0.0573
14941TIP3   OH266313   2.660   2.380  12.520 -0.2115 -0.7841 -0.4817
14941TIP3    H166314   2.696   2.302  12.562  1.0138 -0.1953 -0.3867
14941TIP3    H266315   2.695   2.378  12.431  0.7197  0.1918 -0.1639
14942TIP3   OH266316   2.024   4.588  16.292  0.0919  0.0764 -0.5722
14942TIP3    H166317   1.949   4.644  16.269 -0.9392 -1.2988 -0.7362
14942TIP3    H266318   2.099   4.647  16.293 -0.7997  1.2875 -1.6241
14943TIP3   OH266319   6.182   3.648   3.886  0.2527  0.2071 -0.5893
14943TIP3    H166320   6.180   3.690   3.972  0.6536 -0.3697 -0.2970
14943TIP3    H266321   6.205   3.719   3.825 -0.5907  0.7416 -0.3082
14944TIP3   OH266322   0.604   5.936   5.484 -0.6406  0.2576 -0.5639
14944TIP3    H166323   0.558   5.881   5.421  1.2201 -0.5106 -1.3042
14944TIP3    H266324   0.690   5.951   5.446 -0.5043  2.3421  0.3923
14945TIP3   OH266325   4.155   2.779  11.374 -0.0345 -0.2411  0.2278
14945TIP3    H166326   4.092   2.818  11.435  1.5393 -0.1747  1.8873
14945TIP3    H266327   4.121   2.802  11.287 -0.7469  2.3216  1.0939
14946TIP3   OH266328   0.305   3.246  12.718 -0.3140  0.0932  0.2493
14946TIP3    H166329   0.251   3.260  12.640 -0.5679 -0.1748  0.3743
14946TIP3    H266330   0.321   3.334  12.752  2.0648  0.4840 -1.5919
14947TIP3   OH266331   4.852   0.325   0.588  0.9521 -0.1605 -0.1192
14947TIP3    H166332   4.806   0.244   0.612 -0.2951  0.8138  0.8829
14947TIP3    H266333   4.911   0.341   0.661 -0.2636  0.8874  0.6688
14948TIP3   OH266334   1.017   4.813  16.118 -0.0686 -0.2157  0.1340
14948TIP3    H166335   0.997   4.901  16.148 -1.6019 -0.6761  0.5654
14948TIP3    H266336   0.933   4.766  16.125  0.7771 -1.7725  0.1882
14949TIP3   OH266337   1.290   2.732   1.775  0.0865 -0.4167  0.0247
14949TIP3    H166338   1.359   2.768   1.720  1.1893  0.2960  1.7858
14949TIP3    H266339   1.226   2.696   1.713  2.0708 -1.2229 -1.6671
14950TIP3   OH266340   0.922   3.263   4.613  0.1493  0.5408  0.2085
14950TIP3    H166341   0.998   3.232   4.564 -0.2829 -1.1959  0.5879
14950TIP3    H266342   0.862   3.297   4.547  1.0527  1.5535 -0.1258
14951TIP3   OH266343   0.634   0.170  11.254 -0.1742 -0.3990 -0.2199
14951TIP3    H166344   0.601   0.204  11.338  2.8471  0.6233  0.6794
14951TIP3    H266345   0.659   0.079  11.273 -1.2847 -0.7962 -0.5841
14952TIP3   OH266346   5.817   4.816   5.519 -0.2928  0.5136  0.2512
14952TIP3    H166347   5.873   4.780   5.587  0.7682 -1.6978 -1.6813
14952TIP3    H266348   5.736   4.838   5.565  0.1348 -1.4742  2.1348
14953TIP3   OH266349   2.923   3.777  15.467 -0.0816 -0.0496  0.1712
14953TIP3    H166350   2.927   3.715  15.541 -1.8828 -0.0988  0.2664
14953TIP3    H266351   2.885   3.856  15.504 -0.3058  0.1847 -0.5484
14954TIP3   OH266352   1.716   4.812  15.923 -0.1583  0.4167  0.2443
14954TIP3    H166353   1.698   4.719  15.908  0.5968 -0.1904  2.7109
14954TIP3    H266354   1.670   4.833  16.004 -0.5369  2.3125 -0.3982
14955TIP3   OH266355   4.668   2.302   6.065  0.0817 -0.1630 -0.0893
14955TIP3    H166356   4.606   2.318   5.994  0.6852  0.1639 -0.5465
14955TIP3    H266357   4.624   2.239   6.122 -0.1433 -0.9311 -1.0993
14956TIP3   OH266358   6.618   3.501   4.572  0.3512 -0.0139 -0.5032
14956TIP3    H166359   6.625   3.595   4.558 -0.0137  0.5791  2.6307
14956TIP3    H266360   6.699   3.478   4.618  0.2700 -1.1857 -0.9129
14957TIP3   OH266361   0.183   2.261  10.657  0.2573  0.7002  0.3750
14957TIP3    H166362   0.181   2.354  10.635  4.2831  0.6313 -1.1927
14957TIP3    H266363   0.123   2.220  10.594  0.4364  1.9870 -0.6799
14958TIP3   OH266364   4.156   2.450  12.179  0.2081 -0.5272 -0.1738
14958TIP3    H166365   4.216   2.434  12.107  1.0150 -0.7406  0.5296
14958TIP3    H266366   4.213   2.466  12.254 -0.5702 -3.0644  1.0585
14959TIP3   OH266367   5.535   3.983   5.558 -0.3603 -0.0724  0.1074
14959TIP3    H166368   5.457   4.007   5.508 -0.6055  0.1637  0.5945
14959TIP3    H266369   5.530   3.888   5.566 -0.6426 -0.0489  0.2111
14960TIP3   OH266370   1.534   1.983   0.164  0.1193  0.0625  0.0465
14960TIP3    H166371   1.448   2.010   0.196 -0.0278  0.0283 -0.3158
14960TIP3    H266372   1.560   1.912   0.222  0.0590  0.3030  0.3760
14961TIP3   OH266373   0.361   2.101   4.142  0.2667 -0.3204  0.2472
14961TIP3    H166374   0.372   2.193   4.169  1.1540 -0.8896  1.9290
14961TIP3    H266375   0.340   2.107   4.049 -3.3364  1.7802  0.9946
14962TIP3   OH266376   4.034   4.514  12.577  0.1004 -0.4735  0.0773
14962TIP3    H166377   4.068   4.525  12.488 -0.6007 -0.0851 -0.1566
14962TIP3    H266378   3.985   4.432  12.574 -0.1012 -0.3514  0.0489
14963TIP3   OH266379   4.811   0.798  16.990 -0.3500 -0.5185  0.6297
14963TIP3    H166380   4.737   0.818  16.933  0.1560  0.8486  0.4134
14963TIP3    H266381   4.771   0.769  17.072 -1.0833 -2.5114 -0.3796
14964TIP3   OH266382   1.796   1.219  11.450  0.1819 -0.2206  0.2463
14964TIP3    H166383   1.846   1.202  11.529  0.7770 -1.3361 -0.3470
14964TIP3    H266384   1.832   1.159  11.385 -0.5767  0.3709 -0.7592
14965TIP3   OH266385   2.157   4.280  15.227  0.2214  0.6219 -0.0232
14965TIP3    H166386   2.181   4.337  15.153 -3.5617  0.1145 -1.8977
14965TIP3    H266387   2.121   4.339  15.292 -1.1323  0.7083 -0.8069
14966TIP3   OH266388   0.781   2.607  11.816  0.2424 -0.1412 -0.0640
14966TIP3    H166389   0.807   2.524  11.776  0.1074 -0.8993  1.3752
14966TIP3    H266390   0.708   2.637  11.762 -0.2620 -1.3897 -0.1080
14967TIP3   OH266391   3.059   0.753   1.888 -0.5066  0.5522  0.0272
14967TIP3    H166392   3.119   0.747   1.814  0.6987  2.0919  0.8262
14967TIP3    H266393   3.013   0.669   1.888  2.2458 -1.0786 -0.1548
14968TIP3   OH266394   6.274   6.434  15.790  0.3279 -0.2929  0.2502
14968TIP3    H166395   6.297   6.448  15.698  1.6961 -0.3976  0.5560
14968TIP3    H266396   6.198   6.490  15.805 -0.5491 -1.0461 -1.2039
14969TIP3   OH266397   0.236   2.172  11.789  0.1790 -0.0839 -0.2809
14969TIP3    H166398   0.280   2.215  11.862 -0.2679  1.6682 -0.9881
14969TIP3    H266399   0.268   2.082  11.792  0.4984  0.0324  1.7952
14970TIP3   OH266400   4.896   0.761  10.918 -0.6449  0.3287  0.6231
14970TIP3    H166401   4.836   0.687  10.905 -1.0220  0.1752  2.7810
14970TIP3    H266402   4.839   0.834  10.942 -0.2393  1.2671 -1.0931
14971TIP3   OH266403   1.201   2.151   0.034  0.9318  0.4823  0.6475
14971TIP3    H166404   1.275   2.165  -0.026  1.7471 -0.0569  1.4984
14971TIP3    H266405   1.154   2.076  -0.002  0.8434  0.7759  0.1470
14972TIP3   OH266406   0.351   0.554  11.133  0.0264  0.2041 -0.1795
14972TIP3    H166407   0.356   0.584  11.224 -1.3232 -0.3083  0.0945
14972TIP3    H266408   0.372   0.631  11.081  1.8138  0.2667  0.5537
14973TIP3   OH266409   0.646   1.410  13.027  0.0803 -0.1881  0.1175
14973TIP3    H166410   0.648   1.502  13.051  2.4253  0.4348 -2.0274
14973TIP3    H266411   0.707   1.368  13.088  0.3353  0.0080 -0.0008
14974TIP3   OH266412   0.310   6.284  16.909 -0.6936  0.1572 -0.5934
14974TIP3    H166413   0.252   6.214  16.938 -0.2795  1.2577  3.4000
14974TIP3    H266414   0.285   6.360  16.962  1.7836  1.7764 -1.5710
14975TIP3   OH266415   6.085   3.441  10.747 -0.2492 -0.0067 -0.2869
14975TIP3    H166416   6.129   3.359  10.725 -2.0513 -0.8828 -0.8117
14975TIP3    H266417   6.027   3.458  10.673  0.2065  1.8743 -0.2794
14976TIP3   OH266418   5.051   2.321  15.443 -0.3696 -0.1558  0.1837
14976TIP3    H166419   5.143   2.334  15.466 -0.7617  0.8997  1.2372
14976TIP3    H266420   5.022   2.251  15.503 -0.1208 -0.9061 -0.5500
14977TIP3   OH266421   2.721   5.844  15.199  0.0242 -0.3404 -0.0056
14977TIP3    H166422   2.693   5.915  15.142 -0.2030  1.2742  2.0032
14977TIP3    H266423   2.785   5.884  15.257  0.6601 -2.0609  0.5358
14978TIP3   OH266424   6.264   5.293   3.398 -0.7387 -0.1401 -0.2021
14978TIP3    H166425   6.284   5.325   3.310  4.1484 -1.8917 -0.0485
14978TIP3    H266426   6.277   5.369   3.455  2.5994 -0.2690 -0.5849
14979TIP3   OH266427   0.301   4.719  14.193  0.0627  0.2532  0.2434
14979TIP3    H166428   0.219   4.689  14.232 -0.4481  1.2195 -0.0402
14979TIP3    H266429   0.360   4.644  14.200 -1.3371 -1.0481 -1.0267
14980TIP3   OH266430   0.529   6.473  16.312 -0.6124 -0.0504 -0.4692
14980TIP3    H166431   0.571   6.388  16.323 -2.0591 -0.6369  0.8809
14980TIP3    H266432   0.533   6.489  16.217 -0.5859 -1.7634 -0.7897
14981TIP3   OH266433   3.753   1.600   3.461 -0.1113 -0.6424 -0.0170
14981TIP3    H166434   3.743   1.528   3.399  2.3881 -0.1331 -1.1545
14981TIP3    H266435   3.847   1.615   3.465 -0.3905  1.0533  1.9832
14982TIP3   OH266436   2.580   5.098   0.108  0.3892 -0.4543  0.1774
14982TIP3    H166437   2.649   5.088   0.173  1.1026 -0.4018 -0.5579
14982TIP3    H266438   2.623   5.084   0.024 -0.5229 -0.5612 -0.2939
14983TIP3   OH266439   0.047   2.789   1.761 -0.0684 -0.2978 -0.1656
14983TIP3    H166440  -0.014   2.860   1.779  1.7027  0.8414  1.6816
14983TIP3    H266441   0.081   2.764   1.846  1.6334 -1.2878 -1.0763
14984TIP3   OH266442   1.661   5.734   1.035  0.2105 -0.1787 -0.1597
14984TIP3    H166443   1.589   5.691   1.081  1.0962 -0.8986  0.5814
14984TIP3    H266444   1.688   5.671   0.968 -0.4706  0.4907 -1.0938
14985TIP3   OH266445   2.034   4.434   4.690  1.1987  0.5648  0.2446
14985TIP3    H166446   2.116   4.404   4.651  1.5360  2.2684 -0.4332
14985TIP3    H266447   1.983   4.469   4.617 -1.2038 -2.5262  0.2251
14986TIP3   OH266448   2.133   0.740  11.596  0.1260  0.4568  0.3657
14986TIP3    H166449   2.068   0.810  11.590 -0.5616 -0.2916 -1.4334
14986TIP3    H266450   2.217   0.785  11.605 -0.4468  1.4703  0.7461
14987TIP3   OH266451   2.701   3.239  11.832  0.4081  0.2664 -0.3498
14987TIP3    H166452   2.690   3.268  11.741  1.7774 -0.1030 -0.6578
14987TIP3    H266453   2.701   3.320  11.883 -0.8267  0.4504 -0.6026
14988TIP3   OH266454   1.269   1.644  17.160  0.3874  0.0665 -0.4270
14988TIP3    H166455   1.334   1.653  17.229 -0.3833 -3.5212  1.0296
14988TIP3    H266456   1.296   1.566  17.112 -0.6297  0.8917 -2.4556
14989TIP3   OH266457   5.352   2.892   1.085 -0.1987  0.1071 -0.2879
14989TIP3    H166458   5.328   2.845   1.165  1.4813  0.9352  0.7570
14989TIP3    H266459   5.400   2.828   1.033 -0.6004 -0.2028 -0.2850
14990TIP3   OH266460   2.805   3.071   6.363  0.2517 -0.3177 -0.6354
14990TIP3    H166461   2.767   2.984   6.377  0.8745 -0.7662 -1.6525
14990TIP3    H266462   2.781   3.094   6.274 -2.3145  1.8150  0.4518
14991TIP3   OH266463   5.391   2.260   2.185 -0.7265 -0.0520 -0.1817
14991TIP3    H166464   5.323   2.216   2.235 -0.3949 -0.3465  0.0085
14991TIP3    H266465   5.425   2.193   2.125  1.0581 -0.6091  1.3677
14992TIP3   OH266466   6.795   4.782   2.210 -0.3957 -0.1800  0.4625
14992TIP3    H166467   6.795   4.763   2.116  0.6775  1.0934  0.1715
14992TIP3    H266468   6.709   4.753   2.240 -0.0010 -2.5435 -0.4840
14993TIP3   OH266469   0.883   4.103  14.529  0.2623 -0.8905  0.0389
14993TIP3    H166470   0.975   4.097  14.555  0.7002  2.2453 -0.4018
14993TIP3    H266471   0.843   4.158  14.596 -1.1556 -1.6826 -0.1351
14994TIP3   OH266472   4.907   1.974   5.357  0.3093  0.4314 -0.0331
14994TIP3    H166473   4.904   1.887   5.317 -0.0508  0.6001 -0.3778
14994TIP3    H266474   4.952   1.960   5.441  1.1248  0.0804 -0.5104
14995TIP3   OH266475   1.314   6.778   1.384 -0.3352  0.2702 -0.2339
14995TIP3    H166476   1.403   6.751   1.409 -0.5305 -0.5085 -0.3595
14995TIP3    H266477   1.260   6.752   1.459 -0.4747  0.6774 -0.1911
14996TIP3   OH266478   4.703   0.093  16.034  0.3165  0.3901 -0.4689
14996TIP3    H166479   4.652   0.155  16.086  1.4560  0.7926  0.2055
14996TIP3    H266480   4.794   0.111  16.058  0.7100 -1.1059 -0.7547
14997TIP3   OH266481   3.377   4.034  12.944  0.1813  0.9856  0.0141
14997TIP3    H166482   3.364   3.981  13.023 -0.0517 -1.2052 -1.3907
14997TIP3    H266483   3.429   3.977  12.886 -1.0935  1.8232 -2.0546
14998TIP3   OH266484   4.739   5.771  17.134  0.0844  0.0978 -0.1973
14998TIP3    H166485   4.788   5.704  17.181 -3.0657 -2.3409 -0.0247
14998TIP3    H266486   4.712   5.832  17.202  0.5880 -0.0458  0.1391
14999TIP3   OH266487   5.830   0.839   3.827  0.2063  0.5683 -0.4532
14999TIP3    H166488   5.850   0.861   3.918 -2.0409 -2.0118  0.8164
14999TIP3    H266489   5.884   0.762   3.809  2.5575  2.5075 -2.3010
15000TIP3   OH266490   6.654   2.294   1.173 -0.2385  0.5368  0.3699
15000TIP3    H166491   6.573   2.260   1.209 -0.6478  2.5264  1.4805
15000TIP3    H266492   6.628   2.373   1.125  1.1909  2.3891  2.4566
15001TIP3   OH266493   0.045   3.306   5.197  0.2690 -0.2835 -0.5218
15001TIP3    H166494   0.091   3.329   5.277 -0.9190  1.1566 -0.2252
15001TIP3    H266495  -0.037   3.356   5.200  0.3483  0.0870 -2.7888
15002TIP3   OH266496   0.155   6.558   3.411 -0.1421  0.2375  0.2768
15002TIP3    H166497   0.231   6.603   3.375  0.0248  0.0034  0.3368
15002TIP3    H266498   0.172   6.554   3.505 -0.5171  0.7339  0.3758
15003TIP3   OH266499   3.139   4.389  15.726 -0.5500  0.6039 -0.1703
15003TIP3    H166500   3.063   4.404  15.783 -1.5837  0.0574 -1.3679
15003TIP3    H266501   3.210   4.438  15.768 -1.7939  1.9696  0.4436
15004TIP3   OH266502   5.756   0.932   2.539 -0.5960 -0.1817  0.1265
15004TIP3    H166503   5.683   0.994   2.534 -1.7495 -1.4812  0.3050
15004TIP3    H266504   5.718   0.855   2.581  1.6166  0.1749  3.1172
15005TIP3   OH266505   1.441   1.685   2.793  0.0743 -0.2389 -0.3831
15005TIP3    H166506   1.377   1.757   2.799 -0.1171 -0.3747 -0.7360
15005TIP3    H266507   1.387   1.608   2.775  0.1767 -0.6596  0.9912
15006TIP3   OH266508   4.194   1.720   3.133 -0.3288  0.4352 -0.2036
15006TIP3    H166509   4.182   1.786   3.064 -1.4732  0.2463 -0.2042
15006TIP3    H266510   4.111   1.720   3.181  0.5236  0.7191  1.3345
15007TIP3   OH266511   5.811   1.965   1.268 -0.4453  0.7237 -0.3547
15007TIP3    H166512   5.813   2.026   1.341 -1.8474 -0.0260  0.3483
15007TIP3    H266513   5.789   2.019   1.192  0.2438  1.3878 -0.0851
15008TIP3   OH266514   2.173   1.820   2.773 -0.5298  0.3934  0.1400
15008TIP3    H166515   2.228   1.759   2.724 -0.6851  1.1360 -0.9886
15008TIP3    H266516   2.229   1.895   2.791 -0.7764  0.5710  0.1773
15009TIP3   OH266517   1.658   4.118  14.534 -0.5036 -0.0223 -0.2901
15009TIP3    H166518   1.638   4.192  14.591 -0.0080 -0.5878  0.6619
15009TIP3    H266519   1.746   4.136  14.501 -0.5603  0.0298 -0.4117
15010TIP3   OH266520   2.196   3.920  15.822  0.3663 -0.5661 -0.2267
15010TIP3    H166521   2.149   3.986  15.873  1.0313  0.6834 -1.1870
15010TIP3    H266522   2.175   3.837  15.865  1.7877  0.5004  2.7855
15011TIP3   OH266523   4.011   1.842   0.632 -0.8127 -0.2888  0.2992
15011TIP3    H166524   3.943   1.811   0.573  0.2050  0.1767 -1.1758
15011TIP3    H266525   4.012   1.937   0.620  1.2188 -0.4051 -1.0665
15012TIP3   OH266526   0.793   2.788   1.585  0.4472  0.4792 -0.2079
15012TIP3    H166527   0.818   2.880   1.597  2.6707 -0.2110  0.8188
15012TIP3    H266528   0.818   2.768   1.495  3.1520 -0.0039  0.5869
15013TIP3   OH266529   3.093   1.293   3.315  0.2721 -0.4096 -0.2925
15013TIP3    H166530   3.056   1.257   3.396 -0.0107 -2.7432 -1.3721
15013TIP3    H266531   3.017   1.320   3.264  0.3717 -0.1613 -0.3089
15014TIP3   OH266532   1.561   6.696   3.996 -0.8159  0.1781 -0.1305
15014TIP3    H166533   1.595   6.613   4.029 -0.4239 -0.1395 -1.2974
15014TIP3    H266534   1.469   6.696   4.022 -0.3730  0.2829  1.5740
15015TIP3   OH266535   5.469   5.076   3.613 -0.5326 -1.0780 -0.1140
15015TIP3    H166536   5.436   5.000   3.661  0.3184 -1.9466 -0.8476
15015TIP3    H266537   5.518   5.126   3.677  0.1674 -1.9561  0.0586
15016TIP3   OH266538   4.418   5.001  12.689  0.2145  0.1120  0.0361
15016TIP3    H166539   4.418   5.076  12.748  0.5236  1.4293 -1.5668
15016TIP3    H266540   4.331   5.002  12.648  0.1073 -0.6008  0.2360
15017TIP3   OH266541   4.480   3.365   2.032 -0.0587  0.7768 -0.1444
15017TIP3    H166542   4.469   3.326   1.946  2.0873  2.7510 -1.4167
15017TIP3    H266543   4.424   3.444   2.030 -1.8191 -0.3390  1.2077
15018TIP3   OH266544   6.145   1.729  13.641  0.5761  0.1792 -0.1837
15018TIP3    H166545   6.057   1.737  13.677  0.4334  0.1304 -0.5143
15018TIP3    H266546   6.155   1.635  13.623  0.4499  0.2659 -0.7409
15019TIP3   OH266547   5.965   0.608  15.198  0.6511  0.2309  0.3910
15019TIP3    H166548   5.895   0.631  15.137  1.2925 -1.1655 -0.9639
15019TIP3    H266549   6.009   0.691  15.217 -1.2167  1.0959  1.1223
15020TIP3   OH266550   1.994   1.351   0.607  0.0455  0.4254 -0.1713
15020TIP3    H166551   2.003   1.427   0.550 -2.5016 -0.3105 -1.7179
15020TIP3    H266552   1.983   1.388   0.695  0.1346  1.7600 -0.7062
15021TIP3   OH266553   5.592   0.829   1.546 -0.1228 -0.2629  0.6565
15021TIP3    H166554   5.582   0.740   1.512 -0.0973  0.0062 -0.0786
15021TIP3    H266555   5.686   0.839   1.561 -0.3848 -1.4990  3.9840
15022TIP3   OH266556   6.128   3.151  11.812 -1.0781  0.2275  0.5850
15022TIP3    H166557   6.196   3.138  11.746 -1.6531  0.7871 -0.1214
15022TIP3    H266558   6.064   3.210  11.772 -1.2939  0.8246  1.7465
15023TIP3   OH266559   0.365   2.140   6.261  0.0411 -0.3305  0.0082
15023TIP3    H166560   0.434   2.197   6.295 -0.1430  0.6845 -1.2424
15023TIP3    H266561   0.397   2.051   6.277  0.6120  0.0956  1.4504
15024TIP3   OH266562   4.711   0.615   4.423 -0.0420  0.2312  0.3814
15024TIP3    H166563   4.729   0.692   4.369 -0.7332  1.3077  1.6311
15024TIP3    H266564   4.797   0.585   4.453  0.2609  0.2429 -0.4532
15025TIP3   OH266565   4.502   6.385   6.049 -0.0096  0.2291  0.3792
15025TIP3    H166566   4.593   6.416   6.047  0.2893 -0.5881  0.8591
15025TIP3    H266567   4.457   6.446   6.107 -0.0238  1.2743 -0.6907
15026TIP3   OH266568   2.863   0.206  13.244 -0.1938 -0.2326  0.1654
15026TIP3    H166569   2.945   0.232  13.286  1.2088 -0.0673 -2.4916
15026TIP3    H266570   2.887   0.131  13.189 -2.1495 -1.0846  0.4039
15027TIP3   OH266571   2.663   5.050  15.358 -0.0570 -0.4651 -0.2678
15027TIP3    H166572   2.670   4.958  15.384 -2.2615 -0.4330  0.6574
15027TIP3    H266573   2.656   5.098  15.440  2.7767  0.7976 -0.6495
15028TIP3   OH266574   5.917   3.698  16.829  0.1385  0.2559 -0.5555
15028TIP3    H166575   5.848   3.760  16.852  0.0716 -0.3732  1.1151
15028TIP3    H266576   5.994   3.752  16.814 -0.3418  0.8570 -0.9079
15029TIP3   OH266577   4.721   3.736   6.015 -0.2823 -0.3464 -0.5838
15029TIP3    H166578   4.639   3.770   5.981 -0.9951 -0.1733  1.2295
15029TIP3    H266579   4.697   3.658   6.065  0.7656 -0.8113 -0.7660
15030TIP3   OH266580   6.682   1.384  16.055  0.0170  0.2566  0.1721
15030TIP3    H166581   6.589   1.392  16.037 -0.1693 -0.8971  0.5619
15030TIP3    H266582   6.706   1.467  16.095 -1.0004  0.2868  0.7352
15031TIP3   OH266583   0.571   0.854   6.408 -0.2427  0.1172 -0.1891
15031TIP3    H166584   0.517   0.933   6.416  1.3114  1.1325  0.8220
15031TIP3    H266585   0.654   0.877   6.451 -0.5782 -2.8649  2.4174
15032TIP3   OH266586   0.844   1.687  11.687  0.1099  0.5624  0.1128
15032TIP3    H166587   0.910   1.620  11.668  1.3379  1.8153 -0.2337
15032TIP3    H266588   0.889   1.749  11.744 -1.9096 -0.3887  2.9500
15033TIP3   OH266589   4.841   4.437   4.951 -0.1290 -0.3457 -0.0976
15033TIP3    H166590   4.843   4.512   4.891  2.3828 -2.2274 -2.6558
15033TIP3    H266591   4.928   4.437   4.992 -0.1766 -1.6637  0.0541
15034TIP3   OH266592   3.936   6.541   2.804 -0.1848  0.3564  0.4099
15034TIP3    H166593   4.002   6.603   2.833 -0.8179  0.9132  0.6945
15034TIP3    H266594   3.855   6.571   2.845 -0.9503  0.7056 -1.2588
15035TIP3   OH266595   3.466   0.047   1.356  0.5381  0.1342 -0.1536
15035TIP3    H166596   3.445   0.102   1.431  1.6205 -0.0015  0.2597
15035TIP3    H266597   3.488  -0.038   1.393 -1.4436 -0.7278 -0.8009
15036TIP3   OH266598   1.558   5.304   6.095  0.0056 -0.2986  0.8832
15036TIP3    H166599   1.628   5.355   6.054 -0.0268 -1.5644 -0.8834
15036TIP3    H266600   1.516   5.258   6.022 -0.5962 -2.0678  2.2539
15037TIP3   OH266601   0.133   0.150  15.597  0.1871 -0.2604 -0.0595
15037TIP3    H166602   0.204   0.130  15.659  0.2777 -0.7807 -0.3268
15037TIP3    H266603   0.178   0.170  15.515  0.0874  0.8528  0.1413
15038TIP3   OH266604   0.332   3.299  11.025 -0.3259  0.6778  0.3341
15038TIP3    H166605   0.375   3.285  10.941 -2.7539 -1.8129 -0.6303
15038TIP3    H266606   0.285   3.382  11.015 -1.0949  0.0959 -1.0303
15039TIP3   OH266607   6.425   3.874   2.644  0.3490  0.3417  0.5280
15039TIP3    H166608   6.497   3.835   2.596 -0.1522 -0.4658  0.4041
15039TIP3    H266609   6.453   3.963   2.663  1.3654  0.0360  0.4814
15040TIP3   OH266610   4.908   1.214   0.435 -0.5811 -0.1934 -0.6708
15040TIP3    H166611   4.940   1.143   0.379 -1.3906 -1.9422  0.9204
15040TIP3    H266612   4.941   1.191   0.522 -2.6693  0.1556  0.2770
15041TIP3   OH266613   6.545   2.468   0.988  0.0540  0.1791 -0.5878
15041TIP3    H166614   6.487   2.462   0.912  0.1086 -0.9271 -0.5636
15041TIP3    H266615   6.529   2.556   1.023 -2.4876 -0.4649  0.1047
15042TIP3   OH266616   4.240   5.993   4.560 -0.2208 -0.1053  0.4176
15042TIP3    H166617   4.165   6.018   4.615  0.1625 -0.3867  1.0716
15042TIP3    H266618   4.293   6.073   4.554 -0.8307  0.2572 -0.4985
15043TIP3   OH266619   3.822   2.683  13.228  0.3249 -0.0715 -0.3542
15043TIP3    H166620   3.793   2.709  13.141 -0.4055 -2.3450 -0.8589
15043TIP3    H266621   3.878   2.607  13.212  2.2579  0.9840  1.0140
15044TIP3   OH266622   3.182   0.512   0.526  0.1465 -0.0271  0.0085
15044TIP3    H166623   3.138   0.520   0.611 -1.4166 -0.4610 -0.7201
15044TIP3    H266624   3.126   0.453   0.476  0.6904  0.7320 -1.5535
15045TIP3   OH266625   2.032   6.602  14.842 -0.0766  0.2921 -0.4762
15045TIP3    H166626   2.048   6.675  14.902  0.0232  0.4310 -0.6706
15045TIP3    H266627   2.096   6.535  14.868 -1.1906 -0.3537  0.7249
15046TIP3   OH266628   4.810   4.101  15.619 -0.2295 -0.1731 -0.5054
15046TIP3    H166629   4.905   4.091  15.621 -0.0565  1.4041  0.2992
15046TIP3    H266630   4.779   4.045  15.690  0.0256 -1.1368 -1.1272
15047TIP3   OH266631   4.032   6.468  15.919 -0.1706 -0.0478  0.1750
15047TIP3    H166632   4.110   6.519  15.938 -0.2846 -0.1932  1.0565
15047TIP3    H266633   4.035   6.454  15.824 -0.5308  2.2230 -0.2206
15048TIP3   OH266634   0.270   3.125  11.246  0.2236  0.0951 -0.1162
15048TIP3    H166635   0.175   3.121  11.236  0.1674 -1.3079  0.7297
15048TIP3    H266636   0.302   3.154  11.161 -0.9167 -0.0423 -0.6089
15049TIP3   OH266637   0.338   5.507  14.416  0.4547  0.0319 -0.3004
15049TIP3    H166638   0.413   5.503  14.475  0.5477  0.8802 -0.3447
15049TIP3    H266639   0.375   5.524  14.330  0.4069 -2.3679 -0.8530
15050TIP3   OH266640   5.710   1.191   0.837  0.0236  0.0639 -0.4813
15050TIP3    H166641   5.635   1.209   0.780 -0.4603  0.0865  0.1494
15050TIP3    H266642   5.680   1.216   0.925  1.3030  1.5858 -0.4269
15051TIP3   OH266643   3.571   3.126   0.787  0.2039 -0.2912  0.4564
15051TIP3    H166644   3.511   3.066   0.831  1.8867 -1.2144  1.5857
15051TIP3    H266645   3.617   3.171   0.858  0.7546  0.5151 -0.3778
15052TIP3   OH266646   0.170   6.022  12.549  0.4165 -0.0280 -0.2128
15052TIP3    H166647   0.132   5.973  12.476  2.9032  1.4361 -2.6635
15052TIP3    H266648   0.261   5.992  12.554  0.1649 -0.6687  2.9354
15053TIP3   OH266649   0.354   0.244   3.671  0.2880 -0.2730 -0.0854
15053TIP3    H166650   0.445   0.270   3.664  1.0861 -2.7590  0.1782
15053TIP3    H266651   0.348   0.200   3.756 -1.2151  0.0048 -0.0191
15054TIP3   OH266652   3.248   3.415  12.973 -0.3842 -0.1001 -0.0674
15054TIP3    H166653   3.256   3.358  13.049 -1.2844  1.2182  1.0706
15054TIP3    H266654   3.157   3.407  12.945 -1.2853  2.6330  1.7289
15055TIP3   OH266655   3.084   3.267  17.022 -0.4688 -0.8875 -0.6660
15055TIP3    H166656   3.115   3.338  16.966 -4.6791  0.6578 -1.3433
15055TIP3    H266657   3.080   3.191  16.964  0.3096 -0.6934 -0.9862
15056TIP3   OH266658   3.815   0.467  14.900 -0.1284 -0.3391  0.7297
15056TIP3    H166659   3.775   0.394  14.948 -1.8194  1.7607  2.6948
15056TIP3    H266660   3.742   0.507  14.853  0.8886 -0.2082 -0.8073
15057TIP3   OH266661   4.226   2.820  13.744  0.0515 -0.3745  0.7109
15057TIP3    H166662   4.265   2.799  13.829 -1.2790 -1.0907  1.1788
15057TIP3    H266663   4.226   2.916  13.740  1.3459 -0.3597  0.9169
15058TIP3   OH266664   4.186   2.438   5.625 -0.4040  0.2305 -0.1221
15058TIP3    H166665   4.141   2.361   5.588  0.5850 -0.1349 -0.5940
15058TIP3    H266666   4.278   2.425   5.602 -0.4506  2.5612 -1.9917
15059TIP3   OH266667   5.568   6.197  12.080  0.1800 -0.3253 -0.0560
15059TIP3    H166668   5.478   6.179  12.051  0.4035 -0.8050 -0.4857
15059TIP3    H266669   5.582   6.289  12.060 -0.6764  0.1136  1.2905
15060TIP3   OH266670   3.053   5.742  13.580  0.4344  0.0078 -0.2269
15060TIP3    H166671   3.143   5.733  13.549 -0.0421  0.1138 -1.6923
15060TIP3    H266672   3.037   5.836  13.580  0.0898 -0.0488 -0.6688
15061TIP3   OH266673   3.568   1.632   4.677 -0.0088 -0.4449  0.1816
15061TIP3    H166674   3.479   1.667   4.682  1.0134  2.4754  0.1770
15061TIP3    H266675   3.575   1.570   4.749 -1.4562  0.8153  1.4516
15062TIP3   OH266676   1.541   4.723  14.939 -0.1996 -0.4851  0.1440
15062TIP3    H166677   1.630   4.730  14.905 -0.2505  2.3871  0.3931
15062TIP3    H266678   1.544   4.649  15.000  1.8177 -0.8664 -0.3622
15063TIP3   OH266679   5.215   3.562   4.303 -0.2832 -0.1206 -0.6390
15063TIP3    H166680   5.124   3.533   4.306 -0.3611  0.1649  1.3658
15063TIP3    H266681   5.239   3.558   4.210 -1.9487 -1.3437 -1.0607
15064TIP3   OH266682   4.592   5.507  13.360  0.1728  0.4763  0.2515
15064TIP3    H166683   4.658   5.484  13.294 -0.8343 -1.3229 -0.2140
15064TIP3    H266684   4.558   5.422  13.390 -1.1233  1.3228  1.2865
15065TIP3   OH266685   6.465   3.280  15.061  0.5134  0.3224 -0.3710
15065TIP3    H166686   6.428   3.281  14.973 -1.2816  1.3577  0.3463
15065TIP3    H266687   6.390   3.267  15.118  1.6499 -0.3607  1.0322
15066TIP3   OH266688   6.234   2.451   4.093 -0.7682 -0.0385 -0.4815
15066TIP3    H166689   6.238   2.508   4.170  1.4511 -0.7333 -0.0190
15066TIP3    H266690   6.149   2.407   4.100 -1.3699  1.2276  0.5846
15067TIP3   OH266691   2.623   6.538   0.584 -0.0811  0.2547 -0.1984
15067TIP3    H166692   2.620   6.590   0.664  0.6888 -1.4425  1.0074
15067TIP3    H266693   2.688   6.581   0.528 -0.7105  1.5221  0.0166
15068TIP3   OH266694   1.291   6.073   6.105  0.0294  0.1645  0.0992
15068TIP3    H166695   1.259   6.021   6.178  0.3535  0.0243  0.1408
15068TIP3    H266696   1.319   6.155   6.145  1.0864 -0.2706  0.2631
15069TIP3   OH266697   6.211   5.737  16.933  0.3188 -0.1935  0.1011
15069TIP3    H166698   6.195   5.656  16.982  0.9005 -0.5704 -0.3242
15069TIP3    H266699   6.219   5.805  17.000  1.9601 -0.8349  0.5896
15070TIP3   OH266700   6.184   3.062  12.082 -0.4386  0.4960  0.1050
15070TIP3    H166701   6.269   3.021  12.096 -1.6389 -1.8938  0.8390
15070TIP3    H266702   6.192   3.105  11.996  1.6546  0.8774  0.4353
15071TIP3   OH266703   1.947   0.874  14.167  0.5863  0.1387 -0.1291
15071TIP3    H166704   1.980   0.953  14.124  0.0126  1.1565  1.2035
15071TIP3    H266705   2.025   0.827  14.195  0.9644  1.2418  0.7588
15072TIP3   OH266706   6.755   1.746  12.376 -0.4801 -0.3725 -0.6363
15072TIP3    H166707   6.735   1.720  12.465  0.0881 -0.0493 -0.4115
15072TIP3    H266708   6.775   1.839  12.382  1.5480 -0.7535 -0.7560
15073TIP3   OH266709   1.523   0.981  13.546 -0.3284 -0.0867  0.1677
15073TIP3    H166710   1.464   0.907  13.530 -2.0608  0.9622  1.3754
15073TIP3    H266711   1.563   0.962  13.630  0.7702 -0.5818 -0.4480
15074TIP3   OH266712   0.117   0.038  15.959  0.3487 -0.3746  0.0115
15074TIP3    H166713   0.024   0.045  15.981 -0.3111 -1.1791 -2.2134
15074TIP3    H266714   0.141  -0.051  15.985  0.7020  0.0420  1.1704
15075TIP3   OH266715   1.098   0.065   4.034  0.4598 -0.1496 -0.1544
15075TIP3    H166716   1.108   0.042   3.941  0.5189 -0.1447 -0.1498
15075TIP3    H266717   1.041  -0.003   4.069 -1.1731  0.9379 -0.6247
15076TIP3   OH266718   4.506   3.838   4.894  0.3799  0.2332 -0.1377
15076TIP3    H166719   4.512   3.820   4.801 -2.3441  1.1835 -0.6026
15076TIP3    H266720   4.412   3.846   4.911  0.7664 -0.1703  2.7523
15077TIP3   OH266721   5.941   4.145   0.647  0.1876  0.0639 -0.4069
15077TIP3    H166722   5.930   4.059   0.687  0.2186  0.1439 -0.2217
15077TIP3    H266723   5.926   4.207   0.719  2.6464  0.1679  0.0960
15078TIP3   OH266724   3.098   1.318   5.270  0.2072  0.3101  0.3119
15078TIP3    H166725   3.095   1.414   5.271 -1.0719  0.3006 -0.7309
15078TIP3    H266726   3.151   1.297   5.193 -1.2786  0.1761 -0.6938
15079TIP3   OH266727   3.958   0.603   1.745  0.6839 -0.5217  0.3173
15079TIP3    H166728   4.052   0.598   1.723  0.3398 -2.3500 -1.0341
15079TIP3    H266729   3.916   0.544   1.682 -1.5628  1.2285  0.0381
15080TIP3   OH266730   3.559   0.324  11.242  0.3425  0.3957  0.5007
15080TIP3    H166731   3.495   0.331  11.314 -0.8011  0.9030 -0.5351
15080TIP3    H266732   3.510   0.348  11.164  1.6925  0.2995 -0.4058
15081TIP3   OH266733   4.118   1.169  10.662  0.5598 -0.3885  0.0431
15081TIP3    H166734   4.096   1.108  10.591  0.9078 -1.0548  0.5037
15081TIP3    H266735   4.210   1.150  10.682  1.3205  1.6398 -1.1456
15082TIP3   OH266736   6.444   0.283   5.897  0.0445  0.5813 -0.0034
15082TIP3    H166737   6.391   0.302   5.820  1.0669  0.4362 -0.7612
15082TIP3    H266738   6.422   0.193   5.920 -1.0829  0.9761  0.5681
15083TIP3   OH266739   5.368   1.774   0.297  0.0873  0.4600 -0.0679
15083TIP3    H166740   5.381   1.679   0.295 -0.9036  0.2209  2.0311
15083TIP3    H266741   5.349   1.797   0.206 -0.5749 -1.5055 -0.4820
15084TIP3   OH266742   5.603   5.008   4.051  0.5322  0.1523 -0.1390
15084TIP3    H166743   5.667   4.960   3.998 -0.3119 -0.9805 -0.1780
15084TIP3    H266744   5.573   4.943   4.115 -1.2826  0.3551 -0.7405
15085TIP3   OH266745   0.302   1.764   5.856  0.1959  0.1287  0.5459
15085TIP3    H166746   0.284   1.833   5.792  0.2858  0.8455  1.2799
15085TIP3    H266747   0.270   1.799   5.939  0.3282 -0.6765  0.9496
15086TIP3   OH266748   3.715   4.285  14.332  0.1911 -0.2707 -0.5882
15086TIP3    H166749   3.727   4.211  14.392 -0.1690 -0.6597 -0.9856
15086TIP3    H266750   3.621   4.297  14.326  0.1819 -0.7542 -1.6752
15087TIP3   OH266751   1.935   6.191  15.606 -0.4987 -0.7045  0.2996
15087TIP3    H166752   1.907   6.259  15.668  0.2748  0.6660 -0.7962
15087TIP3    H266753   1.977   6.239  15.535 -1.1926 -2.2447 -1.2233
15088TIP3   OH266754   2.546   1.697   5.411 -0.0408 -0.2948  0.0936
15088TIP3    H166755   2.483   1.652   5.467 -0.5930  0.6308  0.2246
15088TIP3    H266756   2.503   1.704   5.326  1.1574 -2.5542 -0.8058
15089TIP3   OH266757   1.068   4.252   0.729  0.3935  0.0803 -0.2791
15089TIP3    H166758   0.997   4.190   0.715  1.6057 -1.3004 -0.6490
15089TIP3    H266759   1.072   4.264   0.824  1.1102 -1.6689 -0.0515
15090TIP3   OH266760   0.972   0.060  11.922  0.0848  0.3707 -0.5475
15090TIP3    H166761   1.068   0.054  11.917  0.1248 -0.2417  0.4883
15090TIP3    H266762   0.954   0.153  11.926  0.4522  0.6261 -3.2384
15091TIP3   OH266763   5.186   4.514  16.212  0.5506  0.3871 -0.2507
15091TIP3    H166764   5.229   4.555  16.286 -1.3354  1.1738  0.4687
15091TIP3    H266765   5.095   4.499  16.241  0.6504 -2.6877 -1.1035
15092TIP3   OH266766   4.516   2.278   0.873 -0.1768  0.0700  0.1126
15092TIP3    H166767   4.492   2.224   0.798  0.4862  0.0840 -0.1165
15092TIP3    H266768   4.596   2.238   0.907 -0.0369  0.5271  0.3315
15093TIP3   OH266769   4.106   6.582   0.764  0.6309 -0.6200 -0.0041
15093TIP3    H166770   4.013   6.575   0.744 -0.0958  0.0342  2.7673
15093TIP3    H266771   4.132   6.493   0.789 -0.1323 -0.2386  2.3708
15094TIP3   OH266772   3.467   3.903   0.259 -0.4250 -0.5352  0.1809
15094TIP3    H166773   3.507   3.817   0.266  1.0180 -0.0628 -1.5777
15094TIP3    H266774   3.377   3.885   0.230 -0.4020 -1.4580  0.6479
15095TIP3   OH266775   2.569   3.907   5.354 -0.1989  0.4266 -0.2209
15095TIP3    H166776   2.480   3.943   5.354 -0.7611 -0.8687  1.0557
15095TIP3    H266777   2.565   3.834   5.415  1.6677  0.1039 -0.4348
15096TIP3   OH266778   2.166   1.560  11.146  0.5260  0.5833  0.0565
15096TIP3    H166779   2.199   1.540  11.234 -1.8428 -0.2047  0.8308
15096TIP3    H266780   2.207   1.493  11.090  1.7921  0.8887  0.5807
15097TIP3   OH266781   4.010   2.854  17.071 -0.5781 -0.1997  0.0727
15097TIP3    H166782   3.993   2.912  16.996 -0.6597 -0.4641 -0.1151
15097TIP3    H266783   3.924   2.831  17.104 -0.5305  0.5898  0.7788
15098TIP3   OH266784   1.890   4.958  12.550 -0.3166  0.1772 -0.3249
15098TIP3    H166785   1.822   4.898  12.582 -0.2074 -1.1164 -2.3175
15098TIP3    H266786   1.952   4.964  12.622 -2.0362  0.6324  1.1884
15099TIP3   OH266787   3.425   3.853  13.996 -0.5825  0.0239 -0.0498
15099TIP3    H166788   3.441   3.883  14.085  2.7187 -0.0691 -0.4557
15099TIP3    H266789   3.426   3.757  14.002 -2.6276 -0.0280  0.0654
15100TIP3   OH266790   6.496   1.772   2.231 -0.2561 -0.8419 -0.2392
15100TIP3    H166791   6.573   1.718   2.246  0.9708  0.8139 -0.1864
15100TIP3    H266792   6.501   1.795   2.138 -0.3071 -0.2124 -0.0922
15101TIP3   OH266793   1.029   3.768   4.298  0.1035  0.3247  0.0696
15101TIP3    H166794   1.064   3.840   4.351  0.6028  1.1335 -1.3322
15101TIP3    H266795   1.093   3.698   4.310 -1.0831 -0.4804  2.5731
15102TIP3   OH266796   5.424   5.481  12.698 -0.3189  0.0862  0.5005
15102TIP3    H166797   5.509   5.519  12.678 -0.4921 -0.2211 -0.9718
15102TIP3    H266798   5.372   5.554  12.732 -0.2864  0.9591 -1.1713
15103TIP3   OH266799   6.647   1.478  16.909 -0.4051 -0.6346  0.2918
15103TIP3    H166800   6.587   1.448  16.842 -0.0731 -0.7753  0.0577
15103TIP3    H266801   6.681   1.398  16.949  0.9908 -0.6102 -0.7808
15104TIP3   OH266802   3.871   0.274   5.956 -0.0702  0.1464  0.6103
15104TIP3    H166803   3.954   0.270   6.004  1.2970 -0.3929 -1.6731
15104TIP3    H266804   3.862   0.367   5.933  1.4004 -0.1605 -1.4898
15105TIP3   OH266805   0.307   4.656   3.041 -0.1887 -0.4301 -0.1859
15105TIP3    H166806   0.324   4.734   2.988 -2.0674 -0.4842 -0.9443
15105TIP3    H266807   0.293   4.586   2.978 -3.3371 -0.3178  0.2306
15106TIP3   OH266808   3.325   2.395  15.403 -0.5530  0.5285  0.2137
15106TIP3    H166809   3.302   2.302  15.393  0.1006  0.1845  1.5491
15106TIP3    H266810   3.265   2.441  15.345 -0.5831 -0.7642 -0.8389
15107TIP3   OH266811   4.307   5.368   6.087 -0.1432  0.1747 -0.2214
15107TIP3    H166812   4.353   5.447   6.113  1.5775  0.2928 -3.1848
15107TIP3    H266813   4.373   5.298   6.095 -1.0022 -0.6053  0.2899
15108TIP3   OH266814   3.402   0.336   5.847  0.0414 -0.1768  0.4874
15108TIP3    H166815   3.341   0.385   5.901  0.2311  0.6585 -0.0425
15108TIP3    H266816   3.363   0.249   5.839  0.5507 -0.7050  2.8816
15109TIP3   OH266817   4.553   3.498   5.893 -0.0866  0.0365 -0.5476
15109TIP3    H166818   4.537   3.490   5.799 -0.3510 -0.5077 -0.4590
15109TIP3    H266819   4.648   3.489   5.902 -0.0883 -0.1609 -0.7356
15110TIP3   OH266820   6.732   5.357   0.724 -0.0966 -0.4891  0.0785
15110TIP3    H166821   6.667   5.413   0.766  0.7429 -0.1960  1.0335
15110TIP3    H266822   6.685   5.316   0.652 -1.6072 -1.0279  1.3173
15111TIP3   OH266823   2.534   4.553   4.503 -0.1570  0.4158 -0.4205
15111TIP3    H166824   2.620   4.581   4.470 -0.4115 -0.4288 -1.9341
15111TIP3    H266825   2.550   4.466   4.539  0.0509  1.2052  1.4917
15112TIP3   OH266826   3.026   2.912   4.616  0.2493  0.1340  0.2541
15112TIP3    H166827   2.995   2.998   4.645  2.0256  0.9638 -0.1493
15112TIP3    H266828   3.039   2.921   4.522  1.5693 -0.1679  0.3778
15113TIP3   OH266829   4.295   6.020  15.953  0.6366  0.1104 -0.0635
15113TIP3    H166830   4.360   5.985  16.014  1.6326  0.8963 -0.6304
15113TIP3    H266831   4.259   5.943  15.910 -0.9858 -0.5758  2.3226
15114TIP3   OH266832   2.118   3.370  13.597  0.0023  0.3245  0.1767
15114TIP3    H166833   2.093   3.462  13.602 -1.1251  0.1185 -1.2103
15114TIP3    H266834   2.150   3.358  13.508  0.0678 -0.6563  0.3139
15115TIP3   OH266835   0.213   0.353   4.846  0.1604  0.1035 -0.3062
15115TIP3    H166836   0.281   0.409   4.809  1.3833  0.0416  1.7128
15115TIP3    H266837   0.213   0.373   4.939 -2.6703  0.1371 -0.2267
15116TIP3   OH266838   4.129   3.376   0.390  0.2565 -0.2718 -0.1118
15116TIP3    H166839   4.110   3.461   0.430  0.0421 -0.5222  0.3207
15116TIP3    H266840   4.050   3.356   0.340  0.3194 -0.2032 -0.2393
15117TIP3   OH266841   4.012   0.594   6.490 -0.5508  0.0441  0.1599
15117TIP3    H166842   4.092   0.581   6.541  0.4945  0.1950 -1.3743
15117TIP3    H266843   3.968   0.509   6.491  1.5050 -1.1692 -1.9891
15118TIP3   OH266844   6.333   1.906   3.585  0.1848  0.4343 -0.3845
15118TIP3    H166845   6.263   1.940   3.640  0.0926  0.0481 -0.2616
15118TIP3    H266846   6.359   1.823   3.626 -0.1878 -0.0821 -1.1639
15119TIP3   OH266847   2.758   1.780  15.191  0.4540  0.3035 -0.4140
15119TIP3    H166848   2.700   1.726  15.244  1.1794 -0.6058 -0.5091
15119TIP3    H266849   2.701   1.822  15.127 -0.0729 -0.7628 -0.6614
15120TIP3   OH266850   3.958   0.252   4.710 -0.8554 -0.4243 -0.7296
15120TIP3    H166851   3.889   0.310   4.676 -0.8138  0.2052  0.2237
15120TIP3    H266852   3.913   0.197   4.774 -0.0399  1.8653  2.0196
15121TIP3   OH266853   2.270   0.251   1.110  0.1030  0.1057 -0.1766
15121TIP3    H166854   2.175   0.251   1.119  0.1868 -0.1017  0.9220
15121TIP3    H266855   2.298   0.168   1.149  0.6414 -0.5196 -1.8205
15122TIP3   OH266856   5.044   6.707   5.867  0.5230  0.6283  0.3835
15122TIP3    H166857   5.033   6.802   5.865 -0.5974  0.5161  1.0102
15122TIP3    H266858   5.008   6.679   5.951 -3.1707 -0.7946 -1.4293
15123TIP3   OH266859   3.244   2.602  11.730  0.2154 -0.2334  0.0230
15123TIP3    H166860   3.251   2.630  11.822  0.8543 -1.5955  0.4206
15123TIP3    H266861   3.332   2.615  11.695  0.4216 -1.2927  0.1043
15124TIP3   OH266862   6.463   3.140   3.065 -0.6730 -0.3720 -0.2448
15124TIP3    H166863   6.413   3.221   3.069 -0.7675 -0.4727  1.3482
15124TIP3    H266864   6.481   3.127   2.972  1.0991  2.5319 -0.4160
15125TIP3   OH266865   4.738   0.093   3.125  0.0419 -0.0340 -0.1245
15125TIP3    H166866   4.683   0.171   3.111  0.3469  0.0349 -0.9624
15125TIP3    H266867   4.695   0.046   3.197 -1.1131  0.0199 -0.7642
15126TIP3   OH266868   0.931   6.054  11.285 -0.0391 -0.3041  0.3209
15126TIP3    H166869   0.966   6.133  11.325  0.2917  0.1704 -0.8812
15126TIP3    H266870   0.837   6.056  11.306 -0.7305  2.1235 -2.3564
15127TIP3   OH266871   6.108   0.596   1.290  0.8199  0.1039  0.1910
15127TIP3    H166872   6.034   0.653   1.315  1.5609  0.6672  1.1638
15127TIP3    H266873   6.070   0.534   1.228  0.0824  1.9745 -1.3549
15128TIP3   OH266874   3.652   4.200  16.152 -0.4134  0.0612  0.1427
15128TIP3    H166875   3.560   4.173  16.156 -0.6116  0.7713  0.5173
15128TIP3    H266876   3.685   4.158  16.073 -0.9203 -0.6211  0.2827
15129TIP3   OH266877   1.435   4.474  15.743  0.8884  0.1722  0.3597
15129TIP3    H166878   1.417   4.380  15.751 -1.2350  0.6196  1.3913
15129TIP3    H266879   1.390   4.514  15.817 -0.3584  2.2720 -1.4156
15130TIP3   OH266880   0.404   5.872  14.562 -0.8030 -0.7586  0.5545
15130TIP3    H166881   0.478   5.916  14.604  0.8614 -2.7290 -0.1435
15130TIP3    H266882   0.352   5.943  14.526  0.4345  0.7319  1.5641
15131TIP3   OH266883   5.216   1.178  13.806  0.1590  0.3565  1.0648
15131TIP3    H166884   5.135   1.218  13.774 -0.5881 -2.2276 -0.6153
15131TIP3    H266885   5.285   1.241  13.783 -1.0271  1.1361 -0.5217
15132TIP3   OH266886   1.615   2.534  12.170  0.2414  0.1011 -0.0185
15132TIP3    H166887   1.667   2.498  12.097 -1.1737 -0.9754 -0.5436
15132TIP3    H266888   1.633   2.628  12.169  0.4290  0.0710 -1.6241
15133TIP3   OH266889   5.799   4.936   1.033 -0.4153  0.1579 -0.3943
15133TIP3    H166890   5.744   4.953   1.110  3.0987  0.9195  2.1991
15133TIP3    H266891   5.846   4.855   1.055  1.1780  0.7702 -1.3871
15134TIP3   OH266892   1.205   2.394   3.685  0.3480  0.3993 -0.1599
15134TIP3    H166893   1.218   2.353   3.770 -0.5436  0.9894  0.2731
15134TIP3    H266894   1.270   2.464   3.681  1.2869 -0.4546 -0.5410
15135TIP3   OH266895   6.029   0.811   0.842 -0.3340  1.1104  0.3087
15135TIP3    H166896   5.970   0.880   0.811 -1.7669 -0.9732 -1.9491
15135TIP3    H266897   5.973   0.735   0.856  1.2979  0.1476  2.0492
15136TIP3   OH266898   5.968   3.238   5.696  0.2496  0.5237  0.4395
15136TIP3    H166899   5.894   3.294   5.673  0.5955  0.7642 -0.1118
15136TIP3    H266900   5.928   3.154   5.720 -0.1522  0.3356 -0.8184
15137TIP3   OH266901   5.014   1.889   4.110 -0.6135 -0.3086  0.1851
15137TIP3    H166902   4.945   1.935   4.062 -0.4301 -0.4238 -0.1993
15137TIP3    H266903   5.085   1.953   4.115 -0.9500  0.0019  1.0720
15138TIP3   OH266904   3.668   4.899  12.577  0.0422 -0.2241 -0.4063
15138TIP3    H166905   3.657   4.911  12.483 -0.4240 -1.0768 -0.4686
15138TIP3    H266906   3.678   4.988  12.611 -0.4261  0.1402 -1.1864
15139TIP3   OH266907   4.916   4.968   1.081 -0.2516  0.5541 -0.2611
15139TIP3    H166908   4.863   5.037   1.122  0.5598  1.3429 -0.4900
15139TIP3    H266909   4.993   5.015   1.048 -0.6954 -0.1107 -2.3718
15140TIP3   OH266910   4.007   1.627  11.440  0.7066 -0.1870 -0.2391
15140TIP3    H166911   4.102   1.622  11.437  0.7853 -0.3885  1.4890
15140TIP3    H266912   3.978   1.578  11.363  1.9919 -0.5739 -0.4989
15141TIP3   OH266913   1.524   6.513   2.195  0.2378 -0.5176  0.4550
15141TIP3    H166914   1.473   6.593   2.203  0.4186 -0.2917 -0.4714
15141TIP3    H266915   1.461   6.443   2.214  0.0254 -0.1710  1.0529
15142TIP3   OH266916   1.942   0.909  13.818 -0.0461  0.2258 -0.0048
15142TIP3    H166917   2.008   0.942  13.879  0.7993 -0.4493 -0.5327
15142TIP3    H266918   1.872   0.974  13.821 -0.0142  0.2347  1.6509
15143TIP3   OH266919   0.993   5.595  14.190  0.5303  0.3286 -0.5797
15143TIP3    H166920   1.057   5.525  14.197  0.1684  0.1364  1.9027
15143TIP3    H266921   0.908   5.552  14.202  0.2391  1.0337  0.0354
15144TIP3   OH266922   5.652   3.904   3.736  0.5869  0.5540 -0.3401
15144TIP3    H166923   5.724   3.967   3.730  0.8061  0.3430  0.0571
15144TIP3    H266924   5.661   3.851   3.657  0.6357  0.7670 -0.4809
15145TIP3   OH266925   5.662   5.422   4.773  0.6061  0.2046  0.4139
15145TIP3    H166926   5.663   5.331   4.745  1.5493  0.8401 -1.8867
15145TIP3    H266927   5.717   5.423   4.852 -0.2712 -1.3388  1.0918
15146TIP3   OH266928   6.484   2.766  13.548 -0.3960  0.2748  0.5634
15146TIP3    H166929   6.472   2.853  13.512 -1.3781 -0.2141 -0.3587
15146TIP3    H266930   6.408   2.716  13.517 -1.7103 -0.0294  3.8614
15147TIP3   OH266931   2.453   2.334   0.033 -0.2234  0.3018 -0.2885
15147TIP3    H166932   2.446   2.248  -0.009  2.1399 -0.5902  0.9528
15147TIP3    H266933   2.427   2.319   0.123 -0.5107  1.0683 -0.2390
15148TIP3   OH266934   2.796   4.837  11.586 -0.1584  0.0323 -0.1120
15148TIP3    H166935   2.759   4.774  11.648  0.3741 -0.4655 -0.2877
15148TIP3    H266936   2.789   4.793  11.501 -2.6013  1.4377 -0.7521
15149TIP3   OH266937   0.301   4.538   1.094 -0.5359 -0.1130  0.3614
15149TIP3    H166938   0.284   4.624   1.133 -0.1677 -0.5219  1.4497
15149TIP3    H266939   0.374   4.502   1.145 -0.0178 -0.6583 -0.7276
15150TIP3   OH266940   2.316   3.914  11.064 -0.6884 -0.0846 -0.6113
15150TIP3    H166941   2.263   3.991  11.042 -0.4468  0.0231 -0.8278
15150TIP3    H266942   2.304   3.903  11.158  0.0498  0.8243 -0.3835
15151TIP3   OH266943   1.065   3.100   1.144  0.0010  0.3900 -0.3757
15151TIP3    H166944   1.009   3.177   1.155 -0.4413  0.0351 -0.1397
15151TIP3    H266945   1.020   3.045   1.080  0.0838  0.1060 -0.1921
15152TIP3   OH266946   2.635   0.383   0.465 -0.0071  0.0887  0.1248
15152TIP3    H166947   2.729   0.404   0.470  0.6686 -2.2391 -1.0999
15152TIP3    H266948   2.612   0.356   0.554  0.7967 -0.3589  0.2095
15153TIP3   OH266949   4.601   2.636  15.004  0.2871 -0.0678 -0.2231
15153TIP3    H166950   4.571   2.694  15.073 -1.2811  0.0719 -0.9754
15153TIP3    H266951   4.672   2.685  14.961 -0.2941  0.8413 -0.1752
15154TIP3   OH266952   3.191   5.504   4.988  0.2489 -0.7919  0.1986
15154TIP3    H166953   3.137   5.507   5.067 -0.3651 -0.0580 -0.2350
15154TIP3    H266954   3.267   5.451   5.013  1.6338  1.8707  2.2679
15155TIP3   OH266955   3.034   1.894   0.641  0.2666  0.3338 -0.2788
15155TIP3    H166956   3.012   1.908   0.733 -1.7632  2.0131 -0.9431
15155TIP3    H266957   3.126   1.870   0.641  0.3542  0.5009  2.1618
15156TIP3   OH266958   6.629   4.250  14.933  0.1979 -0.0261  0.6554
15156TIP3    H166959   6.566   4.250  14.861  0.9234  1.6573 -0.0287
15156TIP3    H266960   6.629   4.340  14.966  3.5611  0.5867 -0.6195
15157TIP3   OH266961   1.828   3.097   3.275 -0.4538 -0.2429  0.0616
15157TIP3    H166962   1.796   3.174   3.321  0.8384  0.1091  0.3983
15157TIP3    H266963   1.751   3.040   3.268 -0.4353 -0.9828  3.9480
15158TIP3   OH266964   3.662   5.685  16.413 -0.2720 -0.1477  0.9156
15158TIP3    H166965   3.708   5.735  16.480 -0.1698 -0.6062  1.1900
15158TIP3    H266966   3.629   5.607  16.459 -0.2585 -0.4329  0.4517
15159TIP3   OH266967   4.234   3.912   3.191  0.1750  0.8257  0.1099
15159TIP3    H166968   4.273   3.998   3.172 -1.9694  1.7251 -0.5624
15159TIP3    H266969   4.271   3.887   3.275  3.2905  0.8567 -1.1294
15160TIP3   OH266970   1.193   5.657   3.895  0.4313 -0.1698 -0.3177
15160TIP3    H166971   1.257   5.650   3.966 -0.8354  1.7813  1.1056
15160TIP3    H266972   1.229   5.724   3.836  1.4413 -1.7286 -1.5607
15161TIP3   OH266973   5.236   3.228  16.272 -0.4306 -0.7512  0.0162
15161TIP3    H166974   5.191   3.144  16.270  0.6234 -1.3626  0.8210
15161TIP3    H266975   5.291   3.228  16.194 -0.6258 -0.6843 -0.1233
15162TIP3   OH266976   3.679   6.110  13.419  0.4634 -0.7061 -0.2491
15162TIP3    H166977   3.667   6.189  13.367  1.7799  0.6954  1.4662
15162TIP3    H266978   3.737   6.055  13.366 -0.9214 -0.8458 -1.7039
15163TIP3   OH266979   6.735   0.305  16.848 -0.3276 -0.4299  0.2834
15163TIP3    H166980   6.672   0.338  16.912  0.1309 -2.0802  1.6575
15163TIP3    H266981   6.820   0.314  16.891  0.0537 -1.0798 -0.3082
15164TIP3   OH266982   1.403   0.865  15.635 -0.0056 -0.3193 -0.1865
15164TIP3    H166983   1.381   0.873  15.542  2.0897  0.4325 -0.6576
15164TIP3    H266984   1.467   0.794  15.639 -1.5963 -1.7966  1.0262
15165TIP3   OH266985   4.871   3.181  13.476  0.5322 -0.7451  0.3911
15165TIP3    H166986   4.793   3.134  13.506  0.9052 -0.0822  2.5539
15165TIP3    H266987   4.875   3.259  13.532  2.1888 -0.2324 -0.3760
15166TIP3   OH266988   2.744   1.037  13.397 -0.1060  0.4039  0.2782
15166TIP3    H166989   2.753   1.035  13.302 -0.3503 -1.3597  0.2630
15166TIP3    H266990   2.662   1.083  13.412 -1.3289 -1.4159 -0.5095
15167TIP3   OH266991   0.063   1.707  16.947 -0.0951 -0.1798  0.0835
15167TIP3    H166992   0.036   1.626  16.905 -2.7971  0.3083  0.6914
15167TIP3    H266993   0.145   1.730  16.905  0.7106 -3.1541 -0.1607
15168TIP3   OH266994   4.688   4.872   6.607 -0.7217 -0.6683 -0.1882
15168TIP3    H166995   4.762   4.811   6.604 -1.0887 -1.1350 -0.0070
15168TIP3    H266996   4.626   4.831   6.669 -0.3349  0.6212  1.1146
15169TIP3   OH266997   4.172   5.124  13.007 -0.0950 -0.7283  0.2434
15169TIP3    H166998   4.242   5.180  12.975 -1.7737  0.9251 -0.7141
15169TIP3    H266999   4.185   5.122  13.102 -0.7042  2.4454  0.5157
15170TIP3   OH267000   0.168   0.428   2.695  0.2976 -0.1947  0.0226
15170TIP3    H167001   0.201   0.338   2.702  0.7034 -0.1705 -1.2801
15170TIP3    H267002   0.104   0.424   2.624 -0.2155  0.4131  0.4402
15171TIP3   OH267003   1.484   0.420   4.520 -0.4932 -0.1074  0.3806
15171TIP3    H167004   1.437   0.405   4.437 -2.0802 -0.9545  1.3810
15171TIP3    H267005   1.575   0.397   4.500 -0.7022  0.3273 -1.2850
15172TIP3   OH267006   0.882   5.586  17.237 -0.6606 -0.0871  0.5190
15172TIP3    H167007   0.821   5.528  17.281  0.2556  0.9402  3.3729
15172TIP3    H267008   0.828   5.655  17.199 -1.5443 -1.4557 -0.7946
15173TIP3   OH267009   6.411   5.100  17.152  0.4961 -0.0771 -0.0757
15173TIP3    H167010   6.409   5.096  17.247 -1.5003 -1.1006 -0.0882
15173TIP3    H267011   6.455   5.019  17.125 -0.9817 -0.9584  0.0138
15174TIP3   OH267012   2.119   1.094  12.634  0.4262  0.4478 -0.1442
15174TIP3    H167013   2.169   1.013  12.636 -1.4663 -0.7650  1.4497
15174TIP3    H267014   2.182   1.161  12.607  2.7910 -1.0397  1.3961
15175TIP3   OH267015   6.376   2.480   5.594 -0.4275 -0.7648  0.0504
15175TIP3    H167016   6.406   2.395   5.562  2.2304  0.0321  0.2237
15175TIP3    H267017   6.411   2.486   5.683 -2.0943 -0.1817  0.7093
15176TIP3   OH267018   0.104   0.465  11.235  0.1473  0.1645 -0.0820
15176TIP3    H167019   0.031   0.468  11.174  0.2417 -1.7467 -0.3490
15176TIP3    H267020   0.181   0.484  11.181  0.0009  0.8971 -0.0485
15177TIP3   OH267021   3.763   2.208   2.736 -0.6106  0.0405  0.2704
15177TIP3    H167022   3.687   2.226   2.681 -0.6152 -3.1598 -1.0103
15177TIP3    H267023   3.834   2.192   2.674 -0.0766 -1.4800  1.2132
15178TIP3   OH267024   3.636   4.978   3.888 -0.1812  0.0093  0.0277
15178TIP3    H167025   3.633   4.884   3.905  0.0737 -0.0381 -0.1743
15178TIP3    H267026   3.555   4.997   3.842 -0.7091  0.0738  0.9709
15179TIP3   OH267027   4.756   2.648   1.599 -0.3306  0.0728  0.3777
15179TIP3    H167028   4.790   2.662   1.687  0.5659  0.5529 -0.0276
15179TIP3    H267029   4.689   2.581   1.610  0.3553 -0.4930  1.3073
15180TIP3   OH267030   2.002   0.539   2.373 -0.2784 -0.5241 -0.5357
15180TIP3    H167031   2.010   0.449   2.402 -1.0798 -0.9118 -1.4557
15180TIP3    H267032   2.031   0.538   2.281 -0.5028  0.0995 -0.6236
15181TIP3   OH267033   2.056   6.716  11.088  0.4304 -0.1594  0.4599
15181TIP3    H167034   2.116   6.685  11.156 -0.6222  0.0247  1.5003
15181TIP3    H267035   2.100   6.791  11.048  0.3814  0.7627  2.0570
15182TIP3   OH267036   1.014   3.477  12.907  0.4074 -0.3606  0.2511
15182TIP3    H167037   0.982   3.567  12.912 -2.7630 -1.4017  1.1296
15182TIP3    H267038   1.065   3.474  12.827 -0.2777  1.9607 -0.3553
15183TIP3   OH267039   3.585   3.655  15.047 -0.2697  0.4531  0.0455
15183TIP3    H167040   3.558   3.746  15.033 -2.2919 -0.3585 -2.0758
15183TIP3    H267041   3.549   3.633  15.133 -0.5574  1.3904  0.1778
15184TIP3   OH267042   4.168   5.108  16.879  0.5553  0.6807 -0.4618
15184TIP3    H167043   4.159   5.128  16.973  0.9257 -1.5674  0.1110
15184TIP3    H267044   4.079   5.093  16.849  0.5445 -0.1014 -0.0709
15185TIP3   OH267045   1.675   3.249  16.588 -0.2740 -0.1282 -0.4892
15185TIP3    H167046   1.583   3.275  16.578 -0.3094  0.2582  0.7679
15185TIP3    H267047   1.676   3.157  16.561 -0.6018  0.4270 -2.5985
15186TIP3   OH267048   5.132   1.994  12.930 -0.3952  0.0243 -0.0852
15186TIP3    H167049   5.049   1.994  12.882  0.0437  0.4252 -0.8661
15186TIP3    H267050   5.173   1.911  12.906 -1.0076 -0.6689  1.1245
15187TIP3   OH267051   4.117   0.196   3.316  0.2234  0.0870  0.4347
15187TIP3    H167052   4.062   0.160   3.386  1.9062 -3.4517  0.1613
15187TIP3    H267053   4.122   0.290   3.335 -3.7040  0.2192  1.8991
15188TIP3   OH267054   6.278   2.911   1.257  0.2256  0.6153 -0.1084
15188TIP3    H167055   6.189   2.925   1.290  0.4950  0.4574  0.6987
15188TIP3    H267056   6.330   2.980   1.298  0.6478  0.1542  0.1452
15189TIP3   OH267057   6.496   4.634   0.280 -0.8706 -0.1385  0.1592
15189TIP3    H167058   6.575   4.670   0.241 -0.9721  1.5871  1.4567
15189TIP3    H267059   6.429   4.701   0.266 -0.6331  1.2546  4.2421
15190TIP3   OH267060   3.728   2.710   4.460 -0.3277  0.0995 -0.3676
15190TIP3    H167061   3.682   2.688   4.541  0.7001 -0.8463 -0.0120
15190TIP3    H267062   3.667   2.685   4.390 -0.1981 -1.6473  0.0803
15191TIP3   OH267063   6.618   1.972  14.476 -0.2264 -0.3312 -0.0611
15191TIP3    H167064   6.670   1.982  14.396  1.4899 -0.6631  0.9440
15191TIP3    H267065   6.528   1.989  14.449  0.3368 -0.1698 -1.9951
15192TIP3   OH267066   0.550   2.199  13.496  0.2399 -0.8322  0.5406
15192TIP3    H167067   0.524   2.214  13.587 -1.7913 -1.2408  0.0814
15192TIP3    H267068   0.588   2.112  13.496  0.2947 -0.8110  1.0133
15193TIP3   OH267069   6.763   5.361   1.055 -1.0395  0.0027 -0.0041
15193TIP3    H167070   6.804   5.348   0.970 -3.4146 -0.5744 -1.1297
15193TIP3    H267071   6.739   5.453   1.056 -2.9734 -0.4596 -0.9318
15194TIP3   OH267072   5.909   5.141   1.951  0.5117 -0.3158  0.2301
15194TIP3    H167073   5.845   5.098   2.008 -1.8950  0.4792 -1.6562
15194TIP3    H267074   5.912   5.231   1.983  2.0223 -0.7429  1.3485
15195TIP3   OH267075   6.190   0.731  16.882 -0.6023  0.7016  0.0706
15195TIP3    H167076   6.210   0.809  16.831  2.8853  0.1725  0.3790
15195TIP3    H267077   6.237   0.660  16.838 -1.7258 -0.7903  1.1498
15196TIP3   OH267078   0.674   2.551   5.049  0.4073  0.0769 -0.0697
15196TIP3    H167079   0.714   2.465   5.063  1.1886  0.1801 -1.4494
15196TIP3    H267080   0.736   2.597   4.992 -0.3967  1.2531 -0.0281
15197TIP3   OH267081   2.041   5.828  16.057 -0.4456 -0.4937 -0.0717
15197TIP3    H167082   1.953   5.841  16.091 -1.1790 -0.4076 -1.8974
15197TIP3    H267083   2.060   5.907  16.007 -0.1018 -1.2832 -1.2325
15198TIP3   OH267084   2.891   2.385   1.346  0.6116  0.4606  0.1330
15198TIP3    H167085   2.965   2.368   1.288  0.6972  1.8485 -0.1906
15198TIP3    H267086   2.917   2.462   1.397 -0.4846  0.7827  0.2314
15199TIP3   OH267087   0.540   4.987   1.028  0.6235 -0.0620 -0.6429
15199TIP3    H167088   0.627   5.027   1.022  1.4895 -2.0165 -1.8685
15199TIP3    H267089   0.557   4.895   1.045 -1.3134 -0.0485  2.0972
15200TIP3   OH267090   3.562   0.946   4.143 -0.4188  0.3548  0.1010
15200TIP3    H167091   3.579   0.971   4.234  0.0045 -2.5902  0.9440
15200TIP3    H267092   3.557   0.851   4.145 -3.2814  0.2840 -2.5187
15201TIP3   OH267093   2.816   4.508  12.848  0.4399 -0.2095  0.1281
15201TIP3    H167094   2.852   4.585  12.892 -0.4556  0.5561 -0.4327
15201TIP3    H267095   2.726   4.503  12.879 -0.5598  0.9723 -2.2999
15202TIP3   OH267096   3.630   3.170   4.317  0.0904 -0.2960  0.5077
15202TIP3    H167097   3.631   3.259   4.280  1.2774 -0.6913 -0.4691
15202TIP3    H267098   3.585   3.117   4.251  1.6975 -0.8947 -0.1544
15203TIP3   OH267099   3.792   0.854  15.288  0.3885 -0.2455  0.0646
15203TIP3    H167100   3.746   0.865  15.371  1.5596  0.3532  0.6668
15203TIP3    H267101   3.766   0.930  15.236  0.4519 -0.0715  0.2854
15204TIP3   OH267102   6.794   5.283  17.132  0.5002 -0.3963  0.6395
15204TIP3    H167103   6.771   5.250  17.046  0.9073  0.1043  0.3307
15204TIP3    H267104   6.869   5.341  17.116  1.5245 -1.4237  1.5082
15205TIP3   OH267105   6.017   5.122   1.691  0.1982  0.0617 -0.1233
15205TIP3    H167106   6.098   5.169   1.711  0.5131 -1.1109  1.5803
15205TIP3    H267107   5.961   5.137   1.767 -0.8834  0.1422 -0.8986
15206TIP3   OH267108   0.107   2.008  16.021 -0.0050 -0.3111  0.4262
15206TIP3    H167109   0.199   1.988  16.008 -0.0489 -0.9820  1.0557
15206TIP3    H267110   0.104   2.053  16.106  0.0122  1.8758 -0.6814
15207TIP3   OH267111   6.022   0.938   3.625 -0.4791  0.5212 -0.1086
15207TIP3    H167112   5.975   0.880   3.685  1.0340 -0.8456 -0.1890
15207TIP3    H267113   5.975   1.021   3.631 -0.7783  0.2595  2.4671
15208TIP3   OH267114   4.691   2.392  14.436  0.0214  0.4039 -0.5182
15208TIP3    H167115   4.744   2.323  14.477 -1.0825  1.0953  2.3008
15208TIP3    H267116   4.751   2.466  14.426  0.1951  0.3924  0.3770
15209TIP3   OH267117   0.432   2.065   0.133 -0.0551 -0.5213  0.1686
15209TIP3    H167118   0.369   2.129   0.100 -0.6202 -1.0197  0.2467
15209TIP3    H267119   0.516   2.093   0.098 -0.5166 -0.5839 -1.0563
15210TIP3   OH267120   0.909   3.538  13.760  0.1264  0.3396 -0.0018
15210TIP3    H167121   0.850   3.594  13.810  0.3688  0.1812  0.4702
15210TIP3    H267122   0.853   3.490  13.700 -0.2012  0.2973  0.3398
15211TIP3   OH267123   1.596   2.537   0.412 -0.8161  0.2078 -0.7099
15211TIP3    H167124   1.525   2.526   0.475  0.9011  0.9908  1.4732
15211TIP3    H267125   1.611   2.632   0.409  0.9775 -0.0339 -0.1143
15212TIP3   OH267126   1.036   0.192  11.063 -0.0068  0.2396  0.0258
15212TIP3    H167127   0.948   0.205  11.098 -0.2549 -1.1733 -0.0049
15212TIP3    H267128   1.022   0.143  10.981  0.8642 -1.2761  0.7369
15213TIP3   OH267129   2.788   5.780   0.525 -0.1341 -0.7273  0.6655
15213TIP3    H167130   2.726   5.852   0.517  0.2989 -0.3984  0.1952
15213TIP3    H267131   2.790   5.762   0.619 -0.2769 -0.1456  0.7885
15214TIP3   OH267132   2.076   5.173  10.645  0.0682  0.8272 -0.1409
15214TIP3    H167133   2.165   5.140  10.636 -0.4271 -0.4341 -0.7337
15214TIP3    H267134   2.031   5.108  10.700 -0.5802  1.2586 -0.1417
15215TIP3   OH267135   2.077   0.326  15.972  0.4065  0.2833  0.0134
15215TIP3    H167136   2.015   0.397  15.955 -1.1018 -0.4801  1.8815
15215TIP3    H267137   2.092   0.330  16.066  1.6357 -0.8163 -0.1104
15216TIP3   OH267138   3.800   1.310   1.732  0.5105 -0.2383  0.0720
15216TIP3    H167139   3.796   1.385   1.673 -1.2057  0.1374  0.6266
15216TIP3    H267140   3.764   1.237   1.681 -0.5698 -0.0107  0.4991
15217TIP3   OH267141   2.145   2.384  14.530 -1.4328 -0.5958  0.3856
15217TIP3    H167142   2.189   2.453  14.480 -0.5366 -0.4704  1.3098
15217TIP3    H267143   2.092   2.338  14.466 -0.8116 -0.0394 -0.5553
15218TIP3   OH267144   3.697   5.927   4.602 -0.0598  0.1083  0.7758
15218TIP3    H167145   3.624   5.872   4.573  1.9723 -2.1478 -0.4690
15218TIP3    H267146   3.749   5.869   4.658 -0.0121  2.1738  3.0508
15219TIP3   OH267147   2.186   6.682  11.487  0.1067  0.4340  0.2125
15219TIP3    H167148   2.235   6.764  11.483  1.8888 -0.5529  0.7382
15219TIP3    H267149   2.182   6.652  11.396  1.5888 -0.0668  0.2829
15220TIP3   OH267150   5.307   1.779   5.430 -0.8393  0.1995 -0.2115
15220TIP3    H167151   5.248   1.841   5.386 -1.8741  0.4589  1.4401
15220TIP3    H267152   5.264   1.760   5.514  0.9321 -0.4259  0.6168
15221TIP3   OH267153   0.013   2.144   1.001  0.0219 -0.6746  0.4334
15221TIP3    H167154  -0.049   2.088   0.956 -0.5483  0.5288 -0.3281
15221TIP3    H267155  -0.040   2.196   1.061  0.3153  0.1639 -0.0155
15222TIP3   OH267156   4.426   6.232  15.476  0.0174  0.3550  0.0357
15222TIP3    H167157   4.515   6.250  15.506 -0.4914  0.0464  1.8450
15222TIP3    H267158   4.387   6.319  15.463  0.3621  0.4958 -0.0518
15223TIP3   OH267159   3.030   2.743   3.943 -0.1229 -0.7832 -0.1203
15223TIP3    H167160   3.108   2.692   3.921 -0.1160 -1.2945  1.0633
15223TIP3    H267161   2.958   2.680   3.941  0.0041 -1.0513  2.1537
15224TIP3   OH267162   5.972   5.805  13.098 -0.0029 -0.2393 -0.0373
15224TIP3    H167163   6.048   5.766  13.054 -1.4912 -2.4385 -0.8423
15224TIP3    H267164   5.931   5.732  13.144 -0.6040  1.2801  1.9709
15225TIP3   OH267165   5.225   5.735  12.178  0.0159  0.6448 -0.0349
15225TIP3    H167166   5.280   5.813  12.170 -0.6947  1.3494  1.5379
15225TIP3    H267167   5.288   5.663  12.190  0.6677  0.9687 -1.2612
15226TIP3   OH267168   5.454   0.232  15.947 -0.0889  0.3805 -0.5545
15226TIP3    H167169   5.457   0.297  16.017 -0.5923 -0.1261 -0.0492
15226TIP3    H267170   5.371   0.186  15.960  0.2165 -0.3052 -0.9544
15227TIP3   OH267171   0.372   1.981   3.182 -0.2142  0.8759  0.0726
15227TIP3    H167172   0.339   1.961   3.269 -0.0293  0.8065  0.1268
15227TIP3    H267173   0.341   1.909   3.127 -0.4549  0.9964  0.0526
15228TIP3   OH267174   3.013   5.552  16.562  0.2693 -0.5029 -0.0376
15228TIP3    H167175   3.056   5.480  16.608 -0.3335 -0.6091  0.3588
15228TIP3    H267176   2.949   5.586  16.625 -0.3079 -0.4139 -0.6731
15229TIP3   OH267177   4.306   5.426  12.588 -0.3748  0.5425  0.2865
15229TIP3    H167178   4.387   5.374  12.583 -1.3172 -1.0067  0.5250
15229TIP3    H267179   4.313   5.471  12.672  0.1204  0.2015  0.4350
15230TIP3   OH267180   4.602   5.262   0.848  0.1493 -0.3819  0.0439
15230TIP3    H167181   4.614   5.171   0.874  2.1124 -0.7559 -1.8870
15230TIP3    H267182   4.674   5.309   0.891 -0.5945  0.2167  0.6719
15231TIP3   OH267183   3.325   4.852   5.998  1.0655  0.2789  0.1779
15231TIP3    H167184   3.365   4.829   6.082 -0.6275 -3.0870  0.2547
15231TIP3    H267185   3.234   4.871   6.020  0.8578  0.3998 -0.7698
15232TIP3   OH267186   4.686   3.948   5.454  0.4178 -0.2369 -0.1250
15232TIP3    H167187   4.762   4.005   5.443  1.0638 -1.0570 -0.0192
15232TIP3    H267188   4.723   3.862   5.477 -0.4391 -1.0810 -1.7088
15233TIP3   OH267189   6.404   1.958  13.066  0.3776  0.2326  0.1390
15233TIP3    H167190   6.375   2.042  13.031  0.1951 -0.0836 -0.4978
15233TIP3    H267191   6.323   1.911  13.085  0.4742  0.6024  1.5138
15234TIP3   OH267192   4.019   3.899   0.202  0.5352  0.1931  0.1572
15234TIP3    H167193   4.006   3.810   0.169  0.8855  0.1512  0.1308
15234TIP3    H267194   3.969   3.954   0.141 -0.7617 -0.0906  0.9147
15235TIP3   OH267195   4.845   4.400  15.678 -0.2629 -0.8515 -0.4024
15235TIP3    H167196   4.847   4.333  15.610 -2.2781  0.4215 -1.8465
15235TIP3    H267197   4.794   4.362  15.749  2.0774 -2.2929  0.6163
15236TIP3   OH267198   4.585   4.665  13.455  0.0494 -0.6698  0.3036
15236TIP3    H167199   4.537   4.589  13.487 -0.8422  0.0133  0.6315
15236TIP3    H267200   4.518   4.732  13.442  1.1723  1.2525  3.4366
15237TIP3   OH267201   1.394   3.442   6.057  0.5438  0.4869  0.2168
15237TIP3    H167202   1.488   3.440   6.040  0.4767  0.6647 -0.1853
15237TIP3    H267203   1.387   3.448   6.152  0.9621  1.4547  0.2040
15238TIP3   OH267204   4.622   5.599  15.678  0.5542  0.0027 -0.1600
15238TIP3    H167205   4.567   5.671  15.711 -0.5948 -1.0027  0.1692
15238TIP3    H267206   4.657   5.559  15.757  0.0029 -0.7037 -0.2651
15239TIP3   OH267207   2.398   3.327   1.650 -0.1592 -0.6190  0.1747
15239TIP3    H167208   2.393   3.266   1.723 -0.3242 -0.6498  0.1384
15239TIP3    H267209   2.410   3.413   1.691  1.4819 -0.8237  0.1888
15240TIP3   OH267210   0.708   1.975  12.197 -0.6639  0.2520 -0.1987
15240TIP3    H167211   0.745   1.923  12.126  0.0612  0.4871 -0.0039
15240TIP3    H267212   0.668   1.910  12.255  1.5440 -0.2997  0.8255
15241TIP3   OH267213   4.492   0.758  12.362  0.4655 -0.1512 -0.3146
15241TIP3    H167214   4.440   0.836  12.381 -1.4008 -1.4436  0.2102
15241TIP3    H267215   4.567   0.764  12.421  0.3375  1.2003 -0.2506
15242TIP3   OH267216   4.653   4.204   2.979  0.1240  1.0863 -0.1800
15242TIP3    H167217   4.637   4.191   2.886 -2.0789 -0.0929  0.2954
15242TIP3    H267218   4.624   4.294   2.996  1.6066  1.7098 -0.8015
15243TIP3   OH267219   2.146   2.036  13.013 -0.3739  0.2034  0.4925
15243TIP3    H167220   2.055   2.061  12.996 -0.8927 -2.2381 -0.8215
15243TIP3    H267221   2.194   2.066  12.936 -0.2547  0.5238  0.6878
15244TIP3   OH267222   0.105   1.085  12.331  0.1486 -0.0775 -0.1799
15244TIP3    H167223   0.046   1.010  12.339  0.7501 -0.7920 -1.9283
15244TIP3    H267224   0.049   1.157  12.305 -0.4981  0.2350  1.8923
15245TIP3   OH267225   3.846   5.804  13.856 -0.3682 -0.0583  0.5054
15245TIP3    H167226   3.875   5.876  13.799 -0.7861  0.6162  1.1350
15245TIP3    H267227   3.751   5.806  13.850 -0.3937 -0.3228  0.8261
15246TIP3   OH267228   1.174   4.924   1.133 -0.0875 -0.7765 -0.2733
15246TIP3    H167229   1.213   5.004   1.098  0.3325 -1.7572 -2.1541
15246TIP3    H267230   1.235   4.854   1.110  1.5050 -1.3733  4.5010
15247TIP3   OH267231   5.644   1.079  14.502  0.4819 -0.6691  0.4245
15247TIP3    H167232   5.587   1.002  14.493 -1.7543  0.8590  0.7477
15247TIP3    H267233   5.688   1.086  14.418 -1.1937 -0.8872 -0.5143
15248TIP3   OH267234   1.833   5.169   2.986 -0.3352 -0.8934  0.4494
15248TIP3    H167235   1.768   5.217   3.038  0.2372 -0.0340  0.3998
15248TIP3    H267236   1.917   5.207   3.013  0.1071 -1.6066  0.1122
15249TIP3   OH267237   0.166   1.859   5.277 -0.0905  0.2373 -0.5699
15249TIP3    H167238   0.186   1.863   5.183 -0.0498  0.5697 -0.5483
15249TIP3    H267239   0.251   1.873   5.320 -0.0265 -0.3917 -0.4829
15250TIP3   OH267240   0.676   2.830  16.674  0.3661 -0.0801  0.4641
15250TIP3    H167241   0.594   2.799  16.635  0.8227 -1.6356  0.6792
15250TIP3    H267242   0.679   2.790  16.760  1.1312  0.3456  0.6499
15251TIP3   OH267243   3.771   1.696  11.760 -0.7804  0.8311  0.2642
15251TIP3    H167244   3.735   1.608  11.766 -4.8353  2.3518  0.8392
15251TIP3    H267245   3.814   1.710  11.844 -0.3991 -0.4219  0.2998
15252TIP3   OH267246   2.236   6.104   5.980  0.5531 -0.1634 -0.2617
15252TIP3    H167247   2.303   6.107   5.911  0.2233 -0.2188 -0.5869
15252TIP3    H267248   2.281   6.065   6.055  1.0520  0.3536 -0.2863
15253TIP3   OH267249   0.571   3.666   2.932 -0.0998 -0.3829  0.3466
15253TIP3    H167250   0.534   3.741   2.886 -1.8183 -2.2388 -1.4525
15253TIP3    H267251   0.499   3.604   2.940  1.6554 -2.5504  0.2869
15254TIP3   OH267252   4.653   3.883   2.215  0.3875 -0.4594  0.0611
15254TIP3    H167253   4.570   3.837   2.225  0.5558 -1.3132 -1.9899
15254TIP3    H267254   4.633   3.974   2.237 -0.2731 -1.1595  2.7831
15255TIP3   OH267255   1.960   0.562   2.792  0.1665  0.3713 -0.3357
15255TIP3    H167256   1.906   0.484   2.800  0.7545 -0.2919 -2.2350
15255TIP3    H267257   1.955   0.586   2.700  1.7087  1.3149 -0.2254
15256TIP3   OH267258   3.161   2.231  13.091  0.2451  0.5121  0.0899
15256TIP3    H167259   3.085   2.260  13.143  0.4850  2.5812 -0.5989
15256TIP3    H267260   3.236   2.268  13.137  0.5989  0.7593 -0.6678
15257TIP3   OH267261   2.014   0.033  10.661 -0.2834 -0.2452  0.0773
15257TIP3    H167262   1.989  -0.059  10.653 -1.2396 -0.1151  1.3424
15257TIP3    H267263   2.110   0.032  10.667 -0.2579 -1.1095 -0.3497
15258TIP3   OH267264   3.274   0.514   6.025 -0.4627  0.1650  0.1888
15258TIP3    H167265   3.261   0.484   6.115 -0.7004 -1.6589 -0.4225
15258TIP3    H267266   3.300   0.606   6.034  1.0340 -0.3948  2.1851
15259TIP3   OH267267   0.040   3.679  11.459 -0.1724 -0.2351  0.5232
15259TIP3    H167268   0.018   3.662  11.367  0.3387 -0.7500  0.4901
15259TIP3    H267269   0.084   3.599  11.488 -1.5110 -0.6100  1.6068
15260TIP3   OH267270   3.819   0.158   1.441  0.4291  0.2281  0.4604
15260TIP3    H167271   3.878   0.124   1.374  0.5358  0.6893  0.3179
15260TIP3    H267272   3.836   0.252   1.442 -0.7706  0.4602 -0.0422
15261TIP3   OH267273   4.574   5.602  16.585 -0.7814 -0.0516 -0.0094
15261TIP3    H167274   4.607   5.564  16.666 -1.9865 -0.4933  0.2961
15261TIP3    H267275   4.493   5.554  16.567 -1.4382  1.2097 -0.5418
15262TIP3   OH267276   5.686   5.333  10.611 -0.0922 -0.0043 -0.1827
15262TIP3    H167277   5.616   5.299  10.556 -0.1722 -2.5956  1.3337
15262TIP3    H267278   5.679   5.428  10.603 -1.5414 -0.2313 -2.7395
15263TIP3   OH267279   0.324   6.213   1.195  0.6184 -0.9030 -0.1980
15263TIP3    H167280   0.295   6.288   1.246 -0.6407 -1.6131  0.1910
15263TIP3    H267281   0.415   6.201   1.219  0.1975 -0.9131  1.5413
15264TIP3   OH267282   5.187   2.530   2.951 -0.0853 -0.2699 -0.2145
15264TIP3    H167283   5.267   2.581   2.960 -0.2882 -0.1958  1.6382
15264TIP3    H267284   5.217   2.443   2.924  0.5088  0.0994 -0.7541
15265TIP3   OH267285   1.325   1.054  12.088  0.1836  0.3329  0.3528
15265TIP3    H167286   1.265   1.073  12.160  1.4278 -1.3708  1.9537
15265TIP3    H267287   1.281   1.085  12.010 -2.1484  0.4018  1.6274
15266TIP3   OH267288   2.254   6.808   4.955 -0.1309  0.0887 -0.0833
15266TIP3    H167289   2.253   6.902   4.940 -0.6596 -0.0328 -0.8747
15266TIP3    H267290   2.164   6.786   4.981 -0.3155 -0.3647 -1.0675
15267TIP3   OH267291   4.349   0.112  14.211  0.0433 -0.1638  0.3237
15267TIP3    H167292   4.312   0.200  14.221 -2.0621 -0.9179 -0.5258
15267TIP3    H267293   4.426   0.125  14.156  0.2265  1.2429  0.8677
15268TIP3   OH267294   2.587   4.168   1.463  0.9531  0.0782 -1.0088
15268TIP3    H167295   2.642   4.091   1.446 -0.1488 -0.6546 -1.3790
15268TIP3    H267296   2.615   4.232   1.398  0.6924 -0.6631 -1.8802
15269TIP3   OH267297   0.442   2.505   6.226 -0.7436  0.1586 -0.0931
15269TIP3    H167298   0.504   2.462   6.285  0.1556 -0.8375 -1.7001
15269TIP3    H267299   0.399   2.570   6.281  1.3626  0.5525  1.2182
15270TIP3   OH267300   0.808   4.579  16.130 -0.3736 -0.0540  0.0953
15270TIP3    H167301   0.768   4.659  16.164 -2.2823 -1.4431  1.2775
15270TIP3    H267302   0.735   4.518  16.119  1.2528 -2.4115  1.4783
15271TIP3   OH267303   0.151   6.315  14.522  0.3172 -0.6446 -0.2945
15271TIP3    H167304   0.208   6.239  14.532  2.0279  0.4031 -1.5277
15271TIP3    H267305   0.199   6.387  14.564 -0.4414  0.1293 -0.7113
15272TIP3   OH267306   6.195   3.882  14.610  0.3060 -0.1176 -0.3562
15272TIP3    H167307   6.268   3.820  14.598  1.0950 -0.4068  4.3067
15272TIP3    H267308   6.236   3.968  14.609  0.2669 -0.0984 -0.2405
15273TIP3   OH267309   3.913   2.506  14.045 -0.5743 -0.0173  0.0533
15273TIP3    H167310   3.900   2.535  13.955  2.7134  0.2200 -0.4874
15273TIP3    H267311   3.939   2.414  14.037  1.3356  0.4327  0.5192
15274TIP3   OH267312   6.179   6.117   0.833  0.7610  0.1350 -0.4926
15274TIP3    H167313   6.228   6.199   0.846 -0.6584  0.9221  0.0928
15274TIP3    H267314   6.126   6.133   0.755 -1.0426  0.5870  0.7589
15275TIP3   OH267315   2.737   6.390   4.000 -0.4079 -0.0582 -0.1421
15275TIP3    H167316   2.787   6.315   3.966  0.7222 -0.0852  1.4566
15275TIP3    H267317   2.804   6.452   4.028 -1.3076  0.7058  0.3724
15276TIP3   OH267318   5.993   6.459  14.834  0.1650 -0.0884  0.1834
15276TIP3    H167319   5.944   6.501  14.905  1.1636  1.0653  0.2289
15276TIP3    H267320   5.931   6.456  14.761  0.1173  1.7861  0.0893
15277TIP3   OH267321   2.412   2.385   5.686  0.4749  0.9226  0.1687
15277TIP3    H167322   2.507   2.381   5.697  0.6626  0.5388 -1.3887
15277TIP3    H267323   2.385   2.460   5.740  1.5827  0.7734  0.9806
15278TIP3   OH267324   4.942   1.032   1.138  0.4013  0.3934  0.8048
15278TIP3    H167325   5.022   1.019   1.087 -0.3418 -0.0201 -0.3101
15278TIP3    H267326   4.915   1.122   1.118 -1.9268 -0.8865 -2.7020
15279TIP3   OH267327   4.215   4.949   5.426  0.0441 -0.6071  0.6762
15279TIP3    H167328   4.181   4.865   5.458 -2.4293  0.1125  0.1101
15279TIP3    H267329   4.145   5.012   5.445  2.6133  1.8524  3.0620
15280TIP3   OH267330   1.809   0.884   0.001  0.3363  0.6972  0.3266
15280TIP3    H167331   1.803   0.834  -0.080  0.0024  1.3106 -0.0343
15280TIP3    H267332   1.873   0.837   0.053  1.3006  0.8399 -0.6910
15281TIP3   OH267333   5.212   6.177   4.058  0.8436  0.0780 -0.1932
15281TIP3    H167334   5.256   6.198   4.140 -0.0872 -0.8653  0.5762
15281TIP3    H267335   5.203   6.260   4.013 -0.0604  0.8782  1.3820
15282TIP3   OH267336   0.050   6.656  14.799 -0.0920  0.1492 -0.7295
15282TIP3    H167337   0.092   6.594  14.858 -2.1927  0.3732  1.0918
15282TIP3    H267338  -0.040   6.624  14.790  0.2201 -0.1418 -4.2489
15283TIP3   OH267339   2.051   2.741   3.942 -0.5089 -0.0552  0.3413
15283TIP3    H167340   2.141   2.761   3.914  0.3843 -2.3452  1.3643
15283TIP3    H267341   2.018   2.681   3.875 -1.1018  0.3596  0.2545
15284TIP3   OH267342   6.573   6.794   0.972  0.1232 -0.2750  0.2917
15284TIP3    H167343   6.539   6.802   1.061 -0.2034 -0.0822  0.1489
15284TIP3    H267344   6.628   6.715   0.975 -0.8189 -0.9434  0.3706
15285TIP3   OH267345   5.139   4.330  12.986  0.2586 -0.2266  0.8384
15285TIP3    H167346   5.079   4.355  12.916  1.1188 -1.1865 -0.2758
15285TIP3    H267347   5.181   4.412  13.013 -1.9354  0.5650  2.0637
15286TIP3   OH267348   3.934   4.506   4.180 -0.4556 -0.0682  0.2863
15286TIP3    H167349   3.986   4.499   4.100 -2.8729  0.3639 -1.4412
15286TIP3    H267350   3.998   4.525   4.249  1.5520  1.7912 -1.9003
15287TIP3   OH267351   5.688   1.463   4.850  0.3554 -0.8009 -0.2326
15287TIP3    H167352   5.728   1.376   4.852 -0.1493 -1.0454 -0.3456
15287TIP3    H267353   5.623   1.461   4.921  1.3774  0.0133  0.7559
15288TIP3   OH267354   6.148   4.950  16.136  0.0223  0.4534 -0.0911
15288TIP3    H167355   6.178   4.902  16.213 -0.9905  1.8826  1.2614
15288TIP3    H267356   6.226   4.959  16.081  1.0299  0.3105  1.2646
15289TIP3   OH267357   0.147   1.514  16.106 -0.0943  0.4449  0.0707
15289TIP3    H167358   0.118   1.473  16.024  2.0964  0.1833 -0.6311
15289TIP3    H267359   0.117   1.604  16.099 -2.1975 -0.1785  0.2017
15290TIP3   OH267360   6.803   2.880   5.040  0.9855 -0.0069  0.6093
15290TIP3    H167361   6.799   2.943   5.111  0.5984 -1.1727  1.6546
15290TIP3    H267362   6.734   2.908   4.979 -0.7352 -0.6458  2.1439
15291TIP3   OH267363   0.735   6.634  16.452  0.0023  0.6561  0.6483
15291TIP3    H167364   0.665   6.577  16.419  1.2218  0.3997 -1.6603
15291TIP3    H267365   0.689   6.715  16.475 -0.9614  1.1962 -2.5587
15292TIP3   OH267366   2.652   1.537  14.126 -0.0179 -0.4025  0.4133
15292TIP3    H167367   2.733   1.506  14.167 -0.3983 -1.4163  0.4222
15292TIP3    H267368   2.676   1.549  14.034  0.5431  0.8205  0.6956
15293TIP3   OH267369   2.986   0.859   4.997  0.1437  0.2974  0.5084
15293TIP3    H167370   2.898   0.881   5.028 -0.5378 -1.8208  0.1971
15293TIP3    H267371   2.980   0.861   4.902  0.8782  1.6298  0.4548
15294TIP3   OH267372   0.253   3.399   5.761 -0.3682 -0.1896 -0.2308
15294TIP3    H167373   0.292   3.462   5.822  0.0462  0.1453 -0.8285
15294TIP3    H267374   0.160   3.397   5.784 -0.1861 -0.2063  0.5282
15295TIP3   OH267375   1.586   6.636  12.120  0.2049 -0.4006 -0.1868
15295TIP3    H167376   1.565   6.710  12.064  0.3957  0.2321  0.5593
15295TIP3    H267377   1.510   6.578  12.113  0.5113 -0.6680 -1.6120
15296TIP3   OH267378   2.987   2.208   6.040  0.2504  0.3812  0.3044
15296TIP3    H167379   2.997   2.161   6.122  1.5081 -0.9366 -0.5599
15296TIP3    H267380   3.041   2.286   6.050  1.2864 -0.3245  0.3481
15297TIP3   OH267381   3.723   2.814   2.013  0.5013  0.1463  0.4745
15297TIP3    H167382   3.768   2.782   2.091  2.3224 -1.5611 -1.1786
15297TIP3    H267383   3.650   2.754   2.002  0.9199 -0.3267  0.2361
15298TIP3   OH267384   3.570   6.433   0.749 -0.0459 -0.0141 -0.2405
15298TIP3    H167385   3.565   6.370   0.822  0.0647  0.4222  0.1460
15298TIP3    H267386   3.479   6.453   0.729 -0.0797  1.5333  1.2433
15299TIP3   OH267387   6.322   0.109   2.219  0.2222  0.2001 -0.2988
15299TIP3    H167388   6.289   0.136   2.133 -0.3388 -0.3918 -0.2708
15299TIP3    H267389   6.416   0.127   2.214  0.7930 -2.5055 -2.1491
15300TIP3   OH267390   3.306   1.105  11.175  0.0859 -0.1122  0.2027
15300TIP3    H167391   3.391   1.134  11.143  0.7634 -1.4062  0.7515
15300TIP3    H267392   3.289   1.024  11.126 -0.2898 -0.4700  0.9181
15301TIP3   OH267393   3.511   6.225  15.503 -0.7744  0.2460 -0.7391
15301TIP3    H167394   3.474   6.286  15.567  0.9324  2.0289 -1.3556
15301TIP3    H267395   3.516   6.141  15.549 -0.5188  1.2363  1.1364
15302TIP3   OH267396   5.564   3.278  14.076  0.6187  0.2076 -0.0576
15302TIP3    H167397   5.551   3.183  14.069  1.8872 -0.1770  1.9121
15302TIP3    H267398   5.512   3.304  14.152 -0.9524  1.4161 -1.4867
15303TIP3   OH267399   3.812   3.001  13.587 -0.7879  0.4318 -0.2649
15303TIP3    H167400   3.743   2.936  13.573 -1.1695  1.2222 -2.3922
15303TIP3    H267401   3.767   3.085  13.581  0.0788  0.9379  0.1593
15304TIP3   OH267402   6.353   3.085   3.790 -0.0305 -0.5818  0.0633
15304TIP3    H167403   6.400   3.012   3.831 -1.0317 -1.3811 -0.1572
15304TIP3    H267404   6.270   3.089   3.837  0.0857  0.5437  0.1818
15305TIP3   OH267405   6.269   6.684  14.368  0.1026  0.4684 -0.3059
15305TIP3    H167406   6.233   6.623  14.303  1.3787  1.0285 -1.6193
15305TIP3    H267407   6.354   6.646  14.391  0.9879  1.7896 -1.2679
15306TIP3   OH267408   1.261   4.077   5.304 -0.2758  0.9420  0.3983
15306TIP3    H167409   1.354   4.066   5.287 -0.2415  2.2348 -0.4385
15306TIP3    H267410   1.234   3.997   5.348  0.6808 -0.5582 -1.6239
15307TIP3   OH267411   1.192   4.950   0.377 -0.2124 -0.2680 -0.6431
15307TIP3    H167412   1.145   4.899   0.312 -0.2727 -2.5225  1.0277
15307TIP3    H267413   1.283   4.920   0.371 -0.1909 -0.4008  0.1843
15308TIP3   OH267414   0.797   3.970   6.559  0.6809  0.6068  0.0349
15308TIP3    H167415   0.750   3.893   6.592 -0.3294  1.7730  1.5103
15308TIP3    H267416   0.729   4.020   6.513  1.5398  0.1881 -1.7296
15309TIP3   OH267417   3.947   3.644   3.323  0.1277 -0.1733  0.3949
15309TIP3    H167418   3.915   3.562   3.361  2.0592 -1.5324 -0.7273
15309TIP3    H267419   3.962   3.623   3.231 -0.4785  1.8354 -0.2193
15310TIP3   OH267420   6.110   6.638  16.231  0.2080 -0.4519  0.4910
15310TIP3    H167421   6.027   6.593  16.217  0.0102 -0.3343  1.2411
15310TIP3    H267422   6.088   6.711  16.290  1.1779 -1.6404  2.4471
15311TIP3   OH267423   4.376   0.555  11.096  0.1845  0.7023 -0.2413
15311TIP3    H167424   4.323   0.487  11.055  0.3001  0.4983 -0.0533
15311TIP3    H267425   4.314   0.626  11.114 -0.4599 -0.2698  1.7243
15312TIP3   OH267426   5.348   2.077   3.052  0.1463  0.3277  0.5570
15312TIP3    H167427   5.415   2.010   3.066  0.9701  1.0914  0.3430
15312TIP3    H267428   5.285   2.062   3.122 -0.1989 -1.2783 -0.0543
15313TIP3   OH267429   0.205   1.472   0.083  0.1868 -0.1934 -0.1694
15313TIP3    H167430   0.242   1.527   0.151 -0.6047  0.2329 -0.0672
15313TIP3    H267431   0.278   1.453   0.024  0.2543  1.9190 -0.8451
15314TIP3   OH267432   5.429   3.225   4.356  0.2702 -0.4106 -0.5124
15314TIP3    H167433   5.514   3.269   4.356 -0.1861  0.5095  0.2022
15314TIP3    H267434   5.449   3.134   4.377  1.1388 -0.3376 -0.9973
15315TIP3   OH267435   2.968   2.521  16.773 -0.4350 -0.4476 -0.7851
15315TIP3    H167436   3.021   2.457  16.725 -1.8319 -1.8642 -0.5529
15315TIP3    H267437   2.978   2.495  16.865 -0.8183 -0.1790 -0.6650
15316TIP3   OH267438   0.743   0.593  12.007 -0.0142 -0.4609 -0.2247
15316TIP3    H167439   0.698   0.568  12.087 -2.7601  0.9992 -1.1972
15316TIP3    H267440   0.813   0.653  12.036 -2.9703  2.7236  0.9971
15317TIP3   OH267441   6.061   3.202   3.208  0.5854 -0.1372 -0.7883
15317TIP3    H167442   6.061   3.285   3.255 -2.4662  1.5675 -3.4049
15317TIP3    H267443   6.043   3.136   3.275  1.3231  1.4634  1.0950
15318TIP3   OH267444   1.798   2.085  15.345 -0.3210 -0.3681 -0.1216
15318TIP3    H167445   1.806   2.180  15.343  2.0565 -0.5142 -1.6919
15318TIP3    H267446   1.821   2.061  15.435 -0.1481  0.4957  0.0790
15319TIP3   OH267447   6.473   3.462  14.655 -0.0738 -0.2049 -0.6823
15319TIP3    H167448   6.399   3.427  14.606 -0.3102 -0.6461 -0.0158
15319TIP3    H267449   6.490   3.398  14.723 -0.9551  1.2450  0.9894
15320TIP3   OH267450   0.046   6.011  15.567 -0.0868 -0.1768  0.0340
15320TIP3    H167451   0.134   6.032  15.599 -0.8173 -0.6875  2.5736
15320TIP3    H267452   0.008   6.096  15.544  0.3969  0.2517  0.7732
15321TIP3   OH267453   0.411   5.324  11.679  0.1723  0.3403 -0.7421
15321TIP3    H167454   0.343   5.373  11.726 -3.0405 -3.6035 -0.7223
15321TIP3    H267455   0.489   5.332  11.734 -2.0645 -0.0388  2.7670
15322TIP3   OH267456   0.105   0.505   0.408 -0.6923  0.1651  0.7636
15322TIP3    H167457   0.075   0.498   0.317 -0.2090  2.7465  0.3465
15322TIP3    H267458   0.047   0.446   0.457 -1.2137 -0.9855 -1.1392
15323TIP3   OH267459   2.170   3.242   1.332 -0.6612 -0.1944 -0.1413
15323TIP3    H167460   2.146   3.192   1.411 -1.4808  0.9185  0.3385
15323TIP3    H267461   2.091   3.238   1.277 -0.0160 -1.1651 -1.0467
15324TIP3   OH267462   3.858   2.157  17.209 -0.0769 -0.0346  0.2004
15324TIP3    H167463   3.935   2.112  17.242 -0.0514  1.1431  1.9071
15324TIP3    H267464   3.889   2.244  17.185 -0.4913 -0.2373 -1.1560
15325TIP3   OH267465   2.779   3.711  14.758  0.0398 -0.4819  0.2034
15325TIP3    H167466   2.724   3.683  14.684  2.5578  1.2783 -2.5599
15325TIP3    H267467   2.740   3.794  14.786  0.8993  0.5415 -1.4611
15326TIP3   OH267468   1.477   6.585  12.990 -0.3510  0.2494 -0.6398
15326TIP3    H167469   1.419   6.549  13.056  1.3348 -2.2413 -0.3699
15326TIP3    H267470   1.419   6.625  12.926 -2.6904 -3.9008 -1.4895
15327TIP3   OH267471   2.609   4.770   6.442  0.2696  0.2541  0.1396
15327TIP3    H167472   2.544   4.713   6.399  0.2152  1.9964 -2.3017
15327TIP3    H267473   2.692   4.723   6.430  0.3787  0.9498 -2.7084
15328TIP3   OH267474   1.963   0.930  11.464 -0.4070 -0.7925 -0.2874
15328TIP3    H167475   2.037   0.985  11.441 -2.0278  0.7695 -2.1240
15328TIP3    H267476   1.909   0.984  11.521 -1.3424 -0.9795 -0.9734
15329TIP3   OH267477   6.430   3.047   4.728  0.4117 -0.2543  0.2784
15329TIP3    H167478   6.403   2.967   4.684  2.9869 -0.7527 -0.5486
15329TIP3    H267479   6.393   3.040   4.816 -0.7527 -1.5527 -0.2833
15330TIP3   OH267480   3.190   5.163   0.323  0.1170 -0.1976  0.2490
15330TIP3    H167481   3.205   5.220   0.399 -0.0101 -0.1729  0.2561
15330TIP3    H267482   3.267   5.175   0.268  1.0045 -1.4997  1.1648
15331TIP3   OH267483   6.661   2.347   2.496  0.5611  0.1226 -0.0365
15331TIP3    H167484   6.725   2.380   2.433  0.6067 -0.0813 -0.0971
15331TIP3    H267485   6.577   2.354   2.451  0.6787 -0.7076 -0.3953
15332TIP3   OH267486   6.581   0.027   1.239 -0.1837 -0.0555 -0.0453
15332TIP3    H167487   6.505   0.017   1.296  1.1947  0.1866  1.9494
15332TIP3    H267488   6.639   0.086   1.286  0.5755  1.0699 -2.2592
15333TIP3   OH267489   6.299   0.749   0.106 -0.6710  0.3085  0.7379
15333TIP3    H167490   6.260   0.692   0.040 -2.4109  2.2554 -0.0364
15333TIP3    H267491   6.369   0.795   0.059 -0.8367  0.5213  0.6986
15334TIP3   OH267492   0.646   3.900   2.207  0.0076 -0.1089  0.6619
15334TIP3    H167493   0.614   3.811   2.193 -0.1546  0.1988 -1.2770
15334TIP3    H267494   0.735   3.890   2.239 -0.2528 -0.9705  1.1259
15335TIP3   OH267495   5.747   2.604   4.912 -0.0553  0.2149  0.2353
15335TIP3    H167496   5.831   2.581   4.952 -0.1572 -0.8614 -0.1194
15335TIP3    H267497   5.747   2.699   4.909  0.0159  0.3477  2.6484
15336TIP3   OH267498   0.845   4.289  14.186  0.0205 -0.4334 -0.0390
15336TIP3    H167499   0.761   4.293  14.141 -2.2439  0.1443  3.8811
15336TIP3    H267500   0.877   4.380  14.183 -0.4480 -0.2608  0.1407
15337TIP3   OH267501   0.034   0.660  11.437  0.2134 -0.1011  0.2948
15337TIP3    H167502   0.072   0.596  11.376  1.2035 -1.1813  1.9452
15337TIP3    H267503  -0.059   0.639  11.439  0.0005  0.5408 -1.4754
15338TIP3   OH267504   1.534   2.290  14.719 -0.0298  0.2156 -0.6674
15338TIP3    H167505   1.498   2.349  14.785  3.2285  0.1642  1.3515
15338TIP3    H267506   1.510   2.330  14.636 -1.0270  2.3906  0.5784
15339TIP3   OH267507   0.597   3.840  13.290  0.0517  0.8472  0.6022
15339TIP3    H167508   0.557   3.907  13.345 -0.2245  3.1023 -2.1652
15339TIP3    H267509   0.687   3.834  13.322 -0.1762  1.8480  1.4849
15340TIP3   OH267510   5.260   1.166   4.916 -0.2141 -0.6242  0.3217
15340TIP3    H167511   5.242   1.247   4.868  0.1949  0.2022  1.4851
15340TIP3    H267512   5.353   1.171   4.936 -0.0040 -1.8060 -0.3017
15341TIP3   OH267513   4.875   1.042   3.305  0.2321  0.0332 -0.0360
15341TIP3    H167514   4.827   0.960   3.290 -1.0209  0.6685  0.4565
15341TIP3    H267515   4.941   1.018   3.371 -0.0816 -0.5939  0.0642
15342TIP3   OH267516   1.354   6.159   5.574 -0.0660  0.1512 -0.4792
15342TIP3    H167517   1.409   6.219   5.624  0.7540 -0.4240 -0.6668
15342TIP3    H267518   1.268   6.202   5.570  0.0238  0.4800  0.8806
15343TIP3   OH267519   0.254   6.493   4.358  0.3599  0.4877  0.6052
15343TIP3    H167520   0.286   6.433   4.425  0.2833 -0.5646 -0.2718
15343TIP3    H267521   0.177   6.534   4.397  0.7687  0.4655  1.4420
15344TIP3   OH267522   2.622   5.848   2.079 -0.0824 -0.2647  0.1731
15344TIP3    H167523   2.574   5.820   2.001  0.3713 -0.9761  0.1443
15344TIP3    H267524   2.641   5.941   2.063 -0.3411 -0.2988 -0.3756
15345TIP3   OH267525   0.556   1.158   0.585 -0.1383 -0.3971  0.7670
15345TIP3    H167526   0.609   1.219   0.637 -0.9877 -1.1675  2.6380
15345TIP3    H267527   0.467   1.194   0.590 -0.8623 -2.2207  2.8001
15346TIP3   OH267528   1.510   1.408  10.625 -0.3137 -1.1066 -0.1965
15346TIP3    H167529   1.583   1.469  10.613  0.6417 -1.8670  1.4182
15346TIP3    H267530   1.497   1.370  10.538  1.1809 -0.8966 -0.5388
15347TIP3   OH267531   0.147   6.647  13.138 -0.2729  0.0854 -0.3048
15347TIP3    H167532   0.081   6.697  13.088 -1.4178 -0.2602  0.8028
15347TIP3    H267533   0.168   6.573  13.081 -0.0173  0.7858 -1.1395
15348TIP3   OH267534   3.254   1.208   1.153 -0.3499 -0.2125 -0.6514
15348TIP3    H167535   3.190   1.261   1.105 -0.6218 -0.5265 -0.6416
15348TIP3    H267536   3.339   1.243   1.126 -0.4902 -0.5302 -1.5366
15349TIP3   OH267537   5.620   4.109   0.315 -0.1170 -0.1659  0.2231
15349TIP3    H167538   5.573   4.051   0.375  1.9036 -1.0872  1.0177
15349TIP3    H267539   5.638   4.187   0.367 -0.2873 -0.0511  0.1080
15350TIP3   OH267540   3.824   4.276  16.827  0.0795 -0.0824  0.3049
15350TIP3    H167541   3.798   4.332  16.900 -1.0283  1.6580 -1.3564
15350TIP3    H267542   3.919   4.269  16.836  0.0535  0.7405  1.4777
15351TIP3   OH267543   0.311   6.271  14.771  0.1129  0.3419  0.0467
15351TIP3    H167544   0.358   6.239  14.848  0.9070 -0.0484 -0.5962
15351TIP3    H267545   0.318   6.201  14.707 -0.2702  0.7959 -0.5042
15352TIP3   OH267546   4.791   5.331  16.090  0.1047 -0.3827 -0.3239
15352TIP3    H167547   4.870   5.385  16.089  1.0854 -1.7401  0.4150
15352TIP3    H267548   4.752   5.347  16.176 -2.6154  3.1807 -1.9641
15353TIP3   OH267549   1.307   0.929   1.071 -0.3057 -0.3994 -0.9068
15353TIP3    H167550   1.356   0.882   1.004  0.7918 -0.5600 -0.0093
15353TIP3    H267551   1.251   0.989   1.021 -2.4642 -3.2084 -2.1569
15354TIP3   OH267552   2.286   3.750  16.705  0.2132 -0.4661  0.0347
15354TIP3    H167553   2.378   3.755  16.679 -0.2027 -0.6089 -1.5576
15354TIP3    H267554   2.253   3.672  16.659 -1.0032  0.3053 -0.4376
15355TIP3   OH267555   1.218   4.110   3.924 -0.6501 -0.0302 -0.2818
15355TIP3    H167556   1.153   4.169   3.886 -1.0240  0.6088  1.2775
15355TIP3    H267557   1.167   4.052   3.981  0.1645  0.7248  1.2646
15356TIP3   OH267558   2.215   0.793  12.445 -0.4592 -0.7503  0.0275
15356TIP3    H167559   2.183   0.856  12.381 -2.5686 -1.6523  0.1066
15356TIP3    H267560   2.303   0.772  12.416 -1.2599 -0.9573 -2.4964
15357TIP3   OH267561   3.003   3.404  16.226  0.2141  0.0464  0.0004
15357TIP3    H167562   2.925   3.393  16.172  0.1494 -0.4032  0.1834
15357TIP3    H267563   3.076   3.398  16.164  0.1452 -0.5757 -0.0232
15358TIP3   OH267564   5.502   6.554  14.610 -0.0343  0.0018  0.9266
15358TIP3    H167565   5.585   6.538  14.655  0.6885  0.0739 -0.3235
15358TIP3    H267566   5.511   6.508  14.526 -2.1266 -1.8435  1.6273
15359TIP3   OH267567   2.385   3.892  10.589  0.0418  0.5241  0.0816
15359TIP3    H167568   2.385   3.805  10.549  1.1357  0.3868  0.3302
15359TIP3    H267569   2.462   3.935  10.552  1.4258  0.2055  2.3574
15360TIP3   OH267570   6.635   0.792  16.366  0.2139  0.1495  0.6169
15360TIP3    H167571   6.680   0.771  16.447 -1.9633  0.3162  1.9494
15360TIP3    H267572   6.693   0.853  16.321  2.6318 -1.8559  0.7822
15361TIP3   OH267573   0.412   6.434  11.966  0.0733  0.3492  0.1531
15361TIP3    H167574   0.349   6.430  11.895  1.3258 -3.0048 -0.9365
15361TIP3    H267575   0.496   6.452  11.923  0.7243 -0.9318  0.8271
15362TIP3   OH267576   0.425   0.593  16.471  0.1410 -0.6496  0.1688
15362TIP3    H167577   0.495   0.556  16.417  0.4444 -1.1761  0.8957
15362TIP3    H267578   0.354   0.611  16.410  1.3044  0.9900 -0.7851
15363TIP3   OH267579   3.291   0.839   4.424 -0.5208  0.4826 -0.2756
15363TIP3    H167580   3.256   0.892   4.495 -1.2994  0.9722 -0.9932
15363TIP3    H267581   3.282   0.748   4.454  0.5009  0.7351  0.8228
15364TIP3   OH267582   0.886   5.866  12.781 -0.1459  0.4209  0.7274
15364TIP3    H167583   0.857   5.777  12.761 -0.7774  0.1513  2.6228
15364TIP3    H267584   0.805   5.912  12.804  0.0181  1.8313 -1.2898
15365TIP3   OH267585   0.916   6.459   1.932 -0.3986  0.7354 -0.2648
15365TIP3    H167586   0.963   6.393   1.983  1.3289  2.2730  0.2340
15365TIP3    H267587   0.851   6.409   1.882  0.5883 -1.2755  0.3560
15366TIP3   OH267588   1.087   2.998   5.482  0.0395  0.1451  0.3348
15366TIP3    H167589   1.100   2.909   5.450  0.7285 -0.3637  1.9028
15366TIP3    H267590   1.175   3.028   5.505 -0.0729  1.5629 -0.9215
15367TIP3   OH267591   2.119   4.439   3.886  0.2483 -0.0079  0.2633
15367TIP3    H167592   2.114   4.416   3.793  1.5958  0.3516  0.0884
15367TIP3    H267593   2.181   4.376   3.923  1.2562  1.0808  0.4961
15368TIP3   OH267594   3.366   2.729  16.433 -0.1278  0.0174 -0.4489
15368TIP3    H167595   3.358   2.663  16.364  2.1867 -1.0929  0.2646
15368TIP3    H267596   3.280   2.730  16.474 -0.3081 -2.4702 -0.5904
15369TIP3   OH267597   4.436   4.639   5.021  0.2204 -0.8233  0.0432
15369TIP3    H167598   4.453   4.651   5.115 -0.9526  1.9579 -0.0051
15369TIP3    H267599   4.341   4.626   5.015  0.1326  0.1191 -0.8202
15370TIP3   OH267600   4.047   0.415  17.103  0.0274 -0.2934 -0.1914
15370TIP3    H167601   4.084   0.484  17.158 -0.7905  1.0495 -1.2683
15370TIP3    H267602   3.953   0.432  17.103 -0.1773 -1.3450 -0.5745
15371TIP3   OH267603   2.953   6.307  12.060 -0.0132  0.2065 -0.1199
15371TIP3    H167604   2.928   6.339  11.974  0.4773 -0.3165 -0.4687
15371TIP3    H267605   2.995   6.222  12.043 -3.1538 -1.7239  0.9154
15372TIP3   OH267606   3.299   0.928   0.895  0.3150 -0.0122 -0.6646
15372TIP3    H167607   3.258   1.009   0.865 -0.4041 -0.7424 -1.7444
15372TIP3    H267608   3.371   0.913   0.834  1.5512  0.6893  0.5714
15373TIP3   OH267609   6.306   3.739   0.711 -0.3918  0.1482 -0.1856
15373TIP3    H167610   6.304   3.830   0.680  0.0960  0.3195  0.2710
15373TIP3    H267611   6.285   3.744   0.804 -0.7920 -0.2558 -0.2497
15374TIP3   OH267612   6.524   5.030   1.942  0.2706 -0.4374 -0.1914
15374TIP3    H167613   6.511   5.035   2.037 -2.9306  2.5828 -0.5389
15374TIP3    H267614   6.595   5.092   1.924 -0.0856  0.0806  0.1595
15375TIP3   OH267615   5.443   3.146   1.843 -0.0164 -0.2133  0.4095
15375TIP3    H167616   5.422   3.064   1.889  0.8836 -0.8166 -0.2235
15375TIP3    H267617   5.538   3.147   1.837  0.0182  1.1076  0.7742
15376TIP3   OH267618   0.151   3.289  11.532 -0.0685  0.2494 -0.5807
15376TIP3    H167619   0.094   3.333  11.595 -0.1390  1.1493 -1.2575
15376TIP3    H267620   0.229   3.344  11.528  0.2819 -0.2456 -0.6779
15377TIP3   OH267621   3.693   5.493  13.502  0.1111 -0.2437  0.4065
15377TIP3    H167622   3.673   5.474  13.410 -1.3840  0.8117  0.4661
15377TIP3    H267623   3.635   5.435  13.551  1.0525 -0.9519  0.7077
15378TIP3   OH267624   0.984   5.907  14.969 -0.2813  0.6140 -0.3832
15378TIP3    H167625   1.029   5.839  15.020 -0.1170  0.4798 -0.7036
15378TIP3    H267626   1.039   5.985  14.980 -1.1716  1.0632  1.0708
15379TIP3   OH267627   3.244   3.699  14.282 -0.3833 -0.6793 -0.5476
15379TIP3    H167628   3.193   3.657  14.212  0.3394 -0.9194 -0.9403
15379TIP3    H267629   3.231   3.643  14.358  0.8838 -1.8542 -1.1681
15380TIP3   OH267630   3.291   3.098  15.001  0.1019 -0.2441  0.1712
15380TIP3    H167631   3.293   3.152  14.922 -0.1174 -1.0315 -0.3831
15380TIP3    H267632   3.375   3.051  14.999 -0.1485 -0.6895  0.1010
15381TIP3   OH267633   5.195   2.672  14.505 -0.6567  0.3512  0.1691
15381TIP3    H167634   5.190   2.695  14.598  1.5675  0.5562  0.3063
15381TIP3    H267635   5.210   2.755  14.460 -0.8506  0.1500 -0.2782
15382TIP3   OH267636   1.066   5.726  16.074  0.3061  0.6936  0.2746
15382TIP3    H167637   1.060   5.781  15.996 -0.0409  1.2072  0.6567
15382TIP3    H267638   1.149   5.680  16.064  0.4802  1.0941 -0.1763
15383TIP3   OH267639   0.864   0.581   3.067 -0.4606 -0.3522 -0.7076
15383TIP3    H167640   0.855   0.573   2.972 -1.5384 -0.1053 -0.6476
15383TIP3    H267641   0.793   0.527   3.102 -0.7068  0.3554 -0.0799
15384TIP3   OH267642   0.185   4.759   5.410 -0.0793  0.4290 -0.6424
15384TIP3    H167643   0.134   4.705   5.470  2.2175 -1.7011 -0.4289
15384TIP3    H267644   0.243   4.809   5.467 -0.7046  1.5246 -0.9498
15385TIP3   OH267645   2.651   3.039   1.677  0.1264 -0.1110 -0.4278
15385TIP3    H167646   2.708   3.111   1.650 -0.7368  0.5981 -0.4050
15385TIP3    H267647   2.562   3.069   1.657 -0.3800 -0.5163  1.0383
15386TIP3   OH267648   0.927   6.008  14.034  0.1197  0.6268 -0.1197
15386TIP3    H167649   0.956   6.060  13.958  1.2328  2.3054  1.3781
15386TIP3    H267650   0.979   5.928  14.029 -1.2293 -0.2225 -2.1685
15387TIP3   OH267651   3.258   3.882   1.550 -0.2922 -0.7700 -0.5988
15387TIP3    H167652   3.284   3.876   1.642 -2.7563 -0.6864  0.1530
15387TIP3    H267653   3.336   3.915   1.506  0.4386  0.8696  1.7277
15388TIP3   OH267654   2.670   0.253  11.703 -0.2096 -0.0479  0.2540
15388TIP3    H167655   2.607   0.263  11.774 -2.0886 -0.6576 -1.2370
15388TIP3    H267656   2.741   0.314  11.724 -0.8959  0.0906  2.3908
15389TIP3   OH267657   3.330   6.302  16.179 -0.5993 -0.1712  0.1414
15389TIP3    H167658   3.257   6.338  16.129  0.9149  1.6282 -0.9117
15389TIP3    H267659   3.408   6.338  16.137  0.9027 -1.6730  1.4857
15390TIP3   OH267660   1.462   5.549  10.443  0.1142  0.2891  0.3147
15390TIP3    H167661   1.456   5.635  10.402 -0.3363 -0.1933 -0.6732
15390TIP3    H267662   1.484   5.567  10.534 -0.1751  1.4524  0.1680
15391TIP3   OH267663   5.758   1.223  14.851  0.0900 -0.0618  0.2396
15391TIP3    H167664   5.796   1.162  14.788 -1.6458 -1.1725  0.1806
15391TIP3    H267665   5.708   1.284  14.797 -0.5574 -0.3897  0.4550
15392TIP3   OH267666   6.282   6.249  11.285  0.1730 -0.2107 -0.3875
15392TIP3    H167667   6.352   6.184  11.272 -0.5787 -0.9083 -1.0534
15392TIP3    H267668   6.224   6.209  11.350 -0.2848 -0.2062 -0.7897
15393TIP3   OH267669   5.735   5.764  14.054  0.0276 -0.2902 -0.0311
15393TIP3    H167670   5.697   5.722  13.976 -0.1443 -0.6048  0.2181
15393TIP3    H267671   5.744   5.693  14.117 -1.0692  0.1875  0.7083
15394TIP3   OH267672   0.337   4.503  13.252  0.0891  0.6420 -0.1485
15394TIP3    H167673   0.290   4.420  13.245 -0.2907  0.7785  0.6267
15394TIP3    H267674   0.352   4.530  13.162 -0.9540  0.3863 -0.4038
15395TIP3   OH267675   3.538   2.836  13.684  0.4819 -0.0659  0.5775
15395TIP3    H167676   3.465   2.891  13.713 -0.8090 -2.8282  2.9982
15395TIP3    H267677   3.515   2.809  13.595 -0.4923  0.6007  0.6181
15396TIP3   OH267678   6.740   4.436   1.464 -0.7417  0.1677  0.4714
15396TIP3    H167679   6.679   4.500   1.500 -0.8647  0.4198 -0.1806
15396TIP3    H267680   6.693   4.353   1.467 -0.2680 -0.0814  2.1459
15397TIP3   OH267681   0.709   0.740  12.576  0.2206 -0.4068 -0.5709
15397TIP3    H167682   0.797   0.774  12.592 -0.8138  1.8136  0.8845
15397TIP3    H267683   0.701   0.666  12.636  0.5244  0.4601  0.5817
15398TIP3   OH267684   0.665   4.789  17.090  0.2588  0.5759  0.3910
15398TIP3    H167685   0.667   4.874  17.045  0.8285  0.6666  0.5821
15398TIP3    H267686   0.649   4.725  17.020  1.2041  0.7092  0.0400
15399TIP3   OH267687   1.553   3.389   3.640 -0.4300  0.2165 -0.0901
15399TIP3    H167688   1.572   3.483   3.641 -1.3643  0.4114  0.6959
15399TIP3    H267689   1.524   3.370   3.729 -2.0719 -0.4124 -0.7135
15400TIP3   OH267690   2.445   3.032  12.811 -0.0747 -0.4284 -0.5467
15400TIP3    H167691   2.400   2.971  12.869  0.0721 -0.6686 -0.6808
15400TIP3    H267692   2.408   3.117  12.832  0.9833 -0.2846  0.9123
15401TIP3   OH267693   2.411   2.436  13.927  0.3837  0.9552 -0.0322
15401TIP3    H167694   2.345   2.483  13.875  0.8905  0.0069 -1.5823
15401TIP3    H267695   2.495   2.460  13.886  0.7241 -0.4539 -0.1967
15402TIP3   OH267696   5.704   2.566   4.395 -0.2987 -0.2438  0.5337
15402TIP3    H167697   5.790   2.588   4.360 -0.5462  1.0431  0.6899
15402TIP3    H267698   5.721   2.502   4.464  0.4713 -0.4074  0.1954
15403TIP3   OH267699   4.866   1.264  11.946 -0.3440 -0.2931 -0.1634
15403TIP3    H167700   4.960   1.271  11.961 -0.4286  2.5331 -0.2859
15403TIP3    H267701   4.836   1.355  11.945 -3.2675 -1.1356  0.9501
15404TIP3   OH267702   0.610   5.198  15.512  0.1298  0.1579  0.2652
15404TIP3    H167703   0.684   5.207  15.452 -0.9619 -0.6218 -1.2651
15404TIP3    H267704   0.551   5.269  15.487 -0.4796 -0.3751  0.1720
15405TIP3   OH267705   3.505   6.262  12.796 -0.4642 -0.3046  0.4266
15405TIP3    H167706   3.424   6.226  12.761 -1.2856 -0.5057  2.4322
15405TIP3    H267707   3.568   6.191  12.789 -1.2043 -1.0749  1.3331
15406TIP3   OH267708   2.724   3.336   2.177  0.4906  0.0424  0.0696
15406TIP3    H167709   2.685   3.423   2.181  1.8747  0.6671  0.8794
15406TIP3    H267710   2.818   3.353   2.169  0.8256 -1.3787  0.7652
15407TIP3   OH267711   2.059   6.000   6.308 -0.3960  0.1672 -0.0741
15407TIP3    H167712   2.120   6.029   6.377 -1.0255 -0.3128  0.6987
15407TIP3    H267713   2.112   6.000   6.228  0.3234  0.8380  0.3818
15408TIP3   OH267714   0.898   3.595  11.001  0.2663 -0.7966 -0.5236
15408TIP3    H167715   0.834   3.663  11.023  0.3331 -0.9516  0.1705
15408TIP3    H267716   0.859   3.550  10.926 -0.6389 -1.1412  0.1326
15409TIP3   OH267717   0.956   2.327  16.192  0.4772 -0.2034 -0.1927
15409TIP3    H167718   0.921   2.351  16.278  0.6933 -1.2761  0.2123
15409TIP3    H267719   0.938   2.404  16.137  0.6955  0.6634  0.9013
15410TIP3   OH267720   4.409   2.024  15.487 -0.4304  0.3380 -0.1999
15410TIP3    H167721   4.431   2.103  15.438  1.0293  0.5637  0.7698
15410TIP3    H267722   4.435   1.952  15.429 -1.5517  0.5452 -0.9887
15411TIP3   OH267723   4.140   6.735  17.249 -0.6297  0.1618  0.3846
15411TIP3    H167724   4.114   6.661  17.194  0.5485 -0.4796  0.6691
15411TIP3    H267725   4.118   6.812  17.196  3.3570 -0.3830 -2.5499
15412TIP3   OH267726   3.391   1.670   5.646 -0.1832  0.2164  0.4293
15412TIP3    H167727   3.408   1.620   5.725  1.4875 -0.0312 -0.0618
15412TIP3    H267728   3.297   1.659   5.631 -0.4166 -0.2184  2.0299
15413TIP3   OH267729   2.215   5.778  15.330  0.1004 -0.6748 -0.0836
15413TIP3    H167730   2.255   5.736  15.254  0.1491 -0.7389 -0.0216
15413TIP3    H267731   2.282   5.837  15.363  0.6789 -1.8577  0.9074
15414TIP3   OH267732   5.726   4.070  14.483 -0.2638  0.0851 -0.2404
15414TIP3    H167733   5.687   4.151  14.515  0.0620  0.6011 -1.1359
15414TIP3    H267734   5.787   4.097  14.415  2.0418 -0.6617  1.4324
15415TIP3   OH267735   3.700   6.793  15.000 -0.0862  0.1118  0.0300
15415TIP3    H167736   3.777   6.747  14.968 -0.6648  0.6243 -2.2293
15415TIP3    H267737   3.630   6.727  15.000  0.0105 -0.0001  0.7239
15416TIP3   OH267738   0.877   0.756   4.111  0.1461  0.0858  0.7423
15416TIP3    H167739   0.882   0.660   4.112  0.0096  0.0716  0.2881
15416TIP3    H267740   0.854   0.778   4.020 -0.4813  0.5172  0.9994
15417TIP3   OH267741   4.618   3.429  15.608  0.4185  0.1985  0.1742
15417TIP3    H167742   4.540   3.416  15.662  0.4207 -0.2481  0.0764
15417TIP3    H267743   4.665   3.345  15.614  0.0490 -0.1218 -1.1074
15418TIP3   OH267744   3.761   3.057  15.617  0.0687 -0.1083  0.4901
15418TIP3    H167745   3.854   3.073  15.596 -0.3561  2.3352  0.2080
15418TIP3    H267746   3.727   3.015  15.538  0.9103 -0.9813  0.5692
15419TIP3   OH267747   5.127   0.388   4.128  0.1013 -0.0416  0.7599
15419TIP3    H167748   5.149   0.473   4.167 -1.4953  1.1132 -0.6589
15419TIP3    H267749   5.192   0.377   4.058  0.2012  0.1160  0.8260
15420TIP3   OH267750   3.752   0.381   2.283 -0.5329  0.1118 -0.5518
15420TIP3    H167751   3.796   0.332   2.213  2.9129 -0.3485  1.7296
15420TIP3    H267752   3.775   0.473   2.266 -0.3332  0.0854 -0.4174
15421TIP3   OH267753   4.755   3.256   0.139 -0.9492 -0.3111 -0.8164
15421TIP3    H167754   4.785   3.285   0.225  2.0222 -1.2361 -1.4458
15421TIP3    H267755   4.714   3.171   0.155  0.3637 -0.8820 -0.3933
15422TIP3   OH267756   0.544   0.547   4.120 -0.2307 -0.0459  0.0650
15422TIP3    H167757   0.589   0.531   4.202  1.7431  0.3877 -0.8740
15422TIP3    H267758   0.506   0.635   4.130  0.5492  0.2706  0.2898
15423TIP3   OH267759   3.616   6.697  11.693  0.8028 -0.5671  0.5223
15423TIP3    H167760   3.622   6.602  11.690 -1.2963 -0.7301 -0.6720
15423TIP3    H267761   3.702   6.728  11.664  0.5902 -2.1532 -2.1269
15424TIP3   OH267762   5.763   6.606   1.074  0.0919 -0.2267  0.2417
15424TIP3    H167763   5.721   6.657   1.144 -0.5635  3.1590 -2.3867
15424TIP3    H267764   5.709   6.528   1.066 -0.1158 -0.4842  3.1003
15425TIP3   OH267765   0.114   4.397   1.741 -0.2862 -0.1909  0.1868
15425TIP3    H167766   0.137   4.476   1.693  0.7544 -0.3629  0.3698
15425TIP3    H267767   0.025   4.376   1.712 -0.2871  0.6161 -0.4301
15426TIP3   OH267768   4.563   4.602  14.381  0.1135  0.2962  0.0416
15426TIP3    H167769   4.620   4.564  14.447 -0.6879  0.1980  0.6926
15426TIP3    H267770   4.531   4.527  14.331 -0.2811  0.2512  0.3599
15427TIP3   OH267771   4.670   3.641  11.695  0.7469 -1.0274  0.0640
15427TIP3    H167772   4.732   3.679  11.633  0.7557 -0.3710  0.4574
15427TIP3    H267773   4.708   3.658  11.781 -0.0177 -0.5025  0.3186
15428TIP3   OH267774   0.767   5.886   3.464  0.3708 -0.3228  0.0670
15428TIP3    H167775   0.737   5.810   3.414  0.4651  0.2107 -0.8154
15428TIP3    H267776   0.752   5.862   3.555 -0.2455 -1.1241 -0.2341
15429TIP3   OH267777   3.151   3.012  15.927 -0.0012 -0.3764  0.1153
15429TIP3    H167778   3.168   3.072  16.000 -0.1529  0.0997 -0.2322
15429TIP3    H267779   3.055   3.007  15.923  0.0120 -0.8431  0.2989
15430TIP3   OH267780   4.139   3.423   1.304  0.1110 -0.0980  0.2434
15430TIP3    H167781   4.164   3.493   1.365 -0.4301 -0.8980  1.4160
15430TIP3    H267782   4.063   3.460   1.256  0.7535  0.6620 -0.2243
15431TIP3   OH267783   6.793   3.099  15.886 -0.0404  0.3729 -0.3615
15431TIP3    H167784   6.781   3.183  15.930 -0.1430 -0.2042  0.7583
15431TIP3    H267785   6.859   3.054  15.939 -2.1661 -1.4679  0.9513
15432TIP3   OH267786   1.100   6.215  16.202 -0.7804  0.2276  0.4880
15432TIP3    H167787   1.091   6.120  16.212  1.0363  0.0560  0.7944
15432TIP3    H267788   1.165   6.240  16.267  0.7409  1.2584 -1.3163
15433TIP3   OH267789   5.270   2.289   2.840  0.1931 -0.2666  0.9682
15433TIP3    H167790   5.210   2.287   2.765 -0.2058  1.7518  1.1679
15433TIP3    H267791   5.316   2.205   2.837  0.1851 -0.2486 -1.5282
15434TIP3   OH267792   1.529   3.777  16.283 -0.4341 -0.2389 -0.3838
15434TIP3    H167793   1.580   3.842  16.333  0.6038  0.4627 -2.2778
15434TIP3    H267794   1.515   3.706  16.345  3.2929 -0.7195  0.1545
15435TIP3   OH267795   1.434   2.559  13.266  0.3829  0.3128 -0.5527
15435TIP3    H167796   1.481   2.594  13.341 -1.3937  0.1598  0.6813
15435TIP3    H267797   1.375   2.493  13.302 -0.4679  0.1726 -2.0879
15436TIP3   OH267798   0.077   6.354   0.914  0.3052 -0.1504  0.3389
15436TIP3    H167799   0.039   6.302   0.985  0.8558 -2.2946 -0.8472
15436TIP3    H267800   0.172   6.349   0.928  0.3767  0.3952  0.0956
15437TIP3   OH267801   2.391   1.987  11.831 -0.1897 -0.2479 -0.3521
15437TIP3    H167802   2.446   2.043  11.885  0.6041 -0.5469 -0.8380
15437TIP3    H267803   2.307   1.985  11.877 -0.1581  1.1117 -0.1810
15438TIP3   OH267804   4.780   1.156  14.957 -0.4183 -0.1249 -0.1405
15438TIP3    H167805   4.734   1.082  14.916 -1.4629  0.4096  0.0242
15438TIP3    H267806   4.711   1.205  15.001  0.1900  1.2022 -0.6247
15439TIP3   OH267807   6.012   5.547   2.886 -0.0584 -0.1940  0.1770
15439TIP3    H167808   6.013   5.640   2.908 -1.1427  0.1628 -1.1171
15439TIP3    H267809   5.946   5.540   2.817 -0.4245 -2.0215  0.6674
15440TIP3   OH267810   4.094   1.297   1.774  0.1422  0.3223 -0.5571
15440TIP3    H167811   4.000   1.308   1.785 -0.0102 -0.9742 -0.4256
15440TIP3    H267812   4.131   1.382   1.797 -0.8906  0.4558  0.7347
15441TIP3   OH267813   5.632   0.124  12.804 -0.1937  0.3915  0.3583
15441TIP3    H167814   5.677   0.095  12.883  0.3955 -1.7535 -0.6770
15441TIP3    H267815   5.674   0.074  12.734 -0.6935  2.2134 -1.3307
15442TIP3   OH267816   1.202   3.217  12.709 -0.5544  0.0026 -0.5276
15442TIP3    H167817   1.189   3.193  12.800 -0.3402 -0.2740 -0.5689
15442TIP3    H267818   1.188   3.312  12.706 -2.9916 -0.2979 -0.6293
15443TIP3   OH267819   1.323   4.539   0.845  0.0715 -0.4873  0.1239
15443TIP3    H167820   1.364   4.530   0.760  2.9198  0.2343  1.3083
15443TIP3    H267821   1.356   4.466   0.896 -1.5489 -0.8843  0.6710
15444TIP3   OH267822   0.588   5.093  11.178  0.1054 -0.5857 -0.0709
15444TIP3    H167823   0.513   5.036  11.165  0.8541 -1.1796 -2.0385
15444TIP3    H267824   0.641   5.082  11.100  1.6097  0.8070  0.6912
15445TIP3   OH267825   6.785   5.907   5.658  0.0811 -0.1926  0.1891
15445TIP3    H167826   6.759   5.815   5.654 -2.7396  0.4960  0.7661
15445TIP3    H267827   6.718   5.948   5.713  2.4716  1.8336  1.8135
15446TIP3   OH267828   1.720   1.957   2.235  0.3491 -0.2969 -0.5341
15446TIP3    H167829   1.735   1.914   2.320 -3.5572 -1.0908 -0.0773
15446TIP3    H267830   1.708   1.885   2.174  0.2593  0.2565 -1.1786
15447TIP3   OH267831   5.086   1.753  13.510  0.4890 -0.3109 -0.2864
15447TIP3    H167832   5.101   1.848  13.513 -0.1811 -0.1865 -0.6821
15447TIP3    H267833   5.094   1.730  13.417  0.0765 -0.5434 -0.2650
15448TIP3   OH267834   0.667   3.838   0.987 -0.0008 -0.6705  0.0262
15448TIP3    H167835   0.654   3.926   0.952 -0.7472 -0.3488  1.0701
15448TIP3    H267836   0.715   3.851   1.069  1.9939 -1.4344 -0.9433
15449TIP3   OH267837   3.913   1.052  11.021  0.4430  0.3801 -0.0060
15449TIP3    H167838   3.852   1.003  10.966  0.7562 -2.2410  1.8275
15449TIP3    H267839   3.861   1.126  11.054 -1.9125 -1.8174  1.6040
15450TIP3   OH267840   6.395   0.055   1.616 -0.8303 -0.4091  0.1287
15450TIP3    H167841   6.384   0.042   1.710 -0.0550 -0.1920  0.2578
15450TIP3    H267842   6.486   0.083   1.606 -1.1863  0.5845 -0.5744
15451TIP3   OH267843   0.048   5.789  15.411 -0.5107  0.0101 -0.1064
15451TIP3    H167844   0.028   5.868  15.461 -1.8597 -0.5297  0.2430
15451TIP3    H267845  -0.007   5.721  15.450  0.3695 -1.0296 -0.6277
15452TIP3   OH267846   4.250   0.037   3.061 -0.3784  1.1126  0.1426
15452TIP3    H167847   4.218   0.081   3.140 -0.2041  2.2001 -0.3863
15452TIP3    H267848   4.281   0.107   3.005  1.7542  0.1957  0.0825
15453TIP3   OH267849   4.687   2.329  13.792  0.2845  0.4662  0.4883
15453TIP3    H167850   4.741   2.252  13.809  0.5215  0.1356 -1.5892
15453TIP3    H267851   4.601   2.307  13.829  0.1857 -1.0559 -0.5521
15454TIP3   OH267852   2.644   4.442   0.508  0.7008 -0.0789 -0.2193
15454TIP3    H167853   2.723   4.495   0.508  1.1309 -0.5358  2.6810
15454TIP3    H267854   2.632   4.417   0.600 -1.8683 -1.4408 -0.8250
15455TIP3   OH267855   3.693   2.826  12.323  0.6424 -0.0055 -0.0046
15455TIP3    H167856   3.603   2.792  12.330  1.2577 -1.5489  0.8225
15455TIP3    H267857   3.744   2.752  12.291  1.8048  0.5285  0.5661
15456TIP3   OH267858   4.323   0.756  16.008  0.6173 -0.3223 -1.0193
15456TIP3    H167859   4.229   0.752  16.026  0.7964 -1.0532 -0.1757
15456TIP3    H267860   4.333   0.828  15.946 -0.2458  1.0860  0.4343
15457TIP3   OH267861   5.220   3.469  14.716 -0.3339 -0.0982  0.1668
15457TIP3    H167862   5.171   3.391  14.690 -1.1755  0.6544 -0.5296
15457TIP3    H267863   5.188   3.490  14.804  0.6718 -1.1407  0.8183
15458TIP3   OH267864   6.559   0.829  14.219  0.0946  0.3994 -0.1719
15458TIP3    H167865   6.511   0.844  14.138  0.3833 -1.9695 -0.8680
15458TIP3    H267866   6.558   0.734  14.230  2.4909  0.4317  1.0758
15459TIP3   OH267867   4.550   6.579   2.552  0.1296 -0.0848  0.2057
15459TIP3    H167868   4.492   6.566   2.627  0.2859  1.2411  0.5875
15459TIP3    H267869   4.591   6.494   2.538  0.2217 -0.3220  1.7315
15460TIP3   OH267870   4.245   4.014  13.033 -0.2177  0.0572  0.1757
15460TIP3    H167871   4.269   4.083  12.971 -1.5587  0.3385 -0.0645
15460TIP3    H267872   4.173   3.967  12.990 -1.4309  0.4981  1.6656
15461TIP3   OH267873   2.608   1.446  12.136 -0.4738  0.2132 -0.2008
15461TIP3    H167874   2.547   1.450  12.063 -0.4608 -1.3761 -0.3318
15461TIP3    H267875   2.554   1.458  12.214 -0.9046 -0.6975 -0.3445
15462TIP3   OH267876   2.874   4.261   2.262  0.3782 -0.4786  0.1206
15462TIP3    H167877   2.842   4.171   2.258 -1.0129 -0.4641  4.9538
15462TIP3    H267878   2.803   4.311   2.302  2.2520  2.1160  0.5256
15463TIP3   OH267879   5.198   2.640  17.024  0.8254  0.0784  0.0733
15463TIP3    H167880   5.189   2.552  16.988  1.9502  0.2307 -0.6353
15463TIP3    H267881   5.109   2.669  17.039  0.4153 -0.8936 -0.4009
15464TIP3   OH267882   6.821   0.809  12.332  0.0271  0.3347 -0.3558
15464TIP3    H167883   6.809   0.821  12.237  0.4781  0.3848 -0.4074
15464TIP3    H267884   6.878   0.733  12.339 -2.5770 -1.7226 -0.0396
15465TIP3   OH267885   6.289   0.028   4.029  0.4305 -0.2064 -0.5802
15465TIP3    H167886   6.339  -0.052   4.016 -0.0308 -0.5493 -0.2624
15465TIP3    H267887   6.209  -0.000   4.072 -0.1032  0.3191 -1.2089
15466TIP3   OH267888   6.237   0.460   6.048 -0.1755 -0.2325  0.1175
15466TIP3    H167889   6.289   0.421   5.978 -1.7199  0.9271 -1.8053
15466TIP3    H267890   6.189   0.387   6.087 -0.4118 -0.7383 -1.0767
15467TIP3   OH267891   0.538   0.664   4.436  0.2550 -0.1348 -0.4562
15467TIP3    H167892   0.539   0.751   4.394  0.4016  0.4232  0.6639
15467TIP3    H267893   0.446   0.646   4.450  0.2682  0.7236  1.0117
15468TIP3   OH267894   6.612   3.841   0.829  0.4487 -0.2764  0.3893
15468TIP3    H167895   6.698   3.810   0.801  0.7248 -0.1779  1.1141
15468TIP3    H267896   6.551   3.805   0.764  1.0081 -0.5317  0.0009
15469TIP3   OH267897   6.621   6.552  14.868  0.3749  0.6124  0.0213
15469TIP3    H167898   6.587   6.632  14.908  1.1301  0.6646  0.5673
15469TIP3    H267899   6.548   6.518  14.816 -0.1906  1.2439  0.3982
15470TIP3   OH267900   2.404   1.801   4.063 -0.6897 -0.6251 -0.4244
15470TIP3    H167901   2.483   1.829   4.017  0.3226 -0.3168  1.4049
15470TIP3    H267902   2.332   1.840   4.013  0.4578  1.3531 -0.6243
15471TIP3   OH267903   0.474   0.007   1.858  0.8497 -0.2077 -0.2752
15471TIP3    H167904   0.453   0.092   1.896 -0.2214 -1.3956  2.0045
15471TIP3    H267905   0.569   0.004   1.855  0.8929  1.1301 -0.5425
15472TIP3   OH267906   1.075   1.397   5.884  0.5642  0.5495  0.0758
15472TIP3    H167907   1.046   1.488   5.897  1.4655  0.8087  0.3242
15472TIP3    H267908   0.996   1.350   5.858 -0.4503  0.9150  2.2531
15473TIP3   OH267909   5.138   6.410  14.318 -0.0404 -0.2124 -0.1415
15473TIP3    H167910   5.196   6.378  14.248  0.2567 -0.5009  0.2282
15473TIP3    H267911   5.140   6.340  14.383 -0.9646 -0.3075 -0.2097
15474TIP3   OH267912   4.868   2.043  14.323  0.1955  0.3421 -0.1896
15474TIP3    H167913   4.864   2.089  14.408  1.3540 -2.8630  1.7663
15474TIP3    H267914   4.785   1.996  14.318  0.1179  0.5492 -0.9053
15475TIP3   OH267915   4.821   0.221   5.120  0.3087 -0.5969 -0.1338
15475TIP3    H167916   4.727   0.227   5.135 -0.2066 -1.4961 -2.5370
15475TIP3    H267917   4.844   0.131   5.146  0.6951 -0.1470  1.1660
15476TIP3   OH267918   3.601   2.810  13.399 -0.3177  0.1928 -0.1566
15476TIP3    H167919   3.536   2.756  13.354 -1.1627 -0.7149  2.0237
15476TIP3    H267920   3.684   2.786  13.359 -0.7400 -2.3397  0.3268
15477TIP3   OH267921   1.966   1.218  16.680  0.2181 -0.2002  0.1189
15477TIP3    H167922   1.881   1.201  16.639  0.7300  0.5769 -1.3338
15477TIP3    H267923   1.944   1.250  16.768 -1.0509  0.8707 -0.5430
15478TIP3   OH267924   0.052   3.765   2.107 -0.1511  0.0419 -0.2194
15478TIP3    H167925   0.023   3.856   2.100  0.5926  0.3184  0.1425
15478TIP3    H267926   0.123   3.758   2.044  0.5018  0.0151  0.5057
15479TIP3   OH267927   5.742   6.457  16.588  0.1512 -0.2440 -0.2735
15479TIP3    H167928   5.742   6.391  16.657  0.0132 -1.9748 -1.8351
15479TIP3    H267929   5.789   6.416  16.515 -2.0843  0.3692 -2.2000
15480TIP3   OH267930   1.292   0.837   3.768  0.1807  0.3065  0.0489
15480TIP3    H167931   1.229   0.787   3.716 -2.3165  0.8302  2.3323
15480TIP3    H267932   1.347   0.771   3.811 -0.1951 -0.2796 -0.3699
15481TIP3   OH267933   5.988   3.465   6.258  0.3668 -0.0334 -0.0235
15481TIP3    H167934   5.976   3.557   6.235 -3.1952 -0.1747  0.6401
15481TIP3    H267935   5.918   3.419   6.212  0.9083 -2.1488  1.0925
15482TIP3   OH267936   1.934   1.478  12.621  0.1389  0.1824 -0.0411
15482TIP3    H167937   1.882   1.444  12.693 -1.9191  0.1116 -1.4921
15482TIP3    H267938   1.993   1.542  12.662 -1.7312  0.9786  1.5712
15483TIP3   OH267939   6.240   0.711   3.654  0.2466  0.4468  0.3846
15483TIP3    H167940   6.203   0.770   3.588  0.4674 -1.1582 -1.2463
15483TIP3    H267941   6.315   0.670   3.611 -1.3193 -2.8492  0.5252
15484TIP3   OH267942   4.043   4.565   2.028 -0.4480 -0.1103  0.6432
15484TIP3    H167943   4.010   4.642   1.980  0.4805 -0.9518 -1.4895
15484TIP3    H267944   4.112   4.600   2.085 -2.2444  1.0724  2.2322
15485TIP3   OH267945   6.042   2.962   2.520 -0.1821  0.4718 -0.0098
15485TIP3    H167946   6.027   3.023   2.593 -1.1814  0.6534 -0.3586
15485TIP3    H267947   6.048   3.017   2.443 -2.3681  0.0748 -0.5149
15486TIP3   OH267948   0.692   2.317  14.452 -0.2228  0.4462  0.0064
15486TIP3    H167949   0.720   2.391  14.397  0.8282 -0.4460 -0.7184
15486TIP3    H267950   0.609   2.345  14.489  0.3956  2.2073  0.1841
15487TIP3   OH267951   3.470   4.643  13.288 -0.4547  0.4538 -0.3710
15487TIP3    H167952   3.427   4.661  13.205 -0.2677 -0.4997 -0.6983
15487TIP3    H267953   3.403   4.601  13.342 -0.1055 -0.5833 -0.7066
15488TIP3   OH267954   0.233   0.319  11.462 -0.1857 -0.1655  0.1169
15488TIP3    H167955   0.233   0.367  11.545  0.6427 -0.3031  0.2019
15488TIP3    H267956   0.207   0.383  11.397 -1.2476 -0.1495  0.5253
15489TIP3   OH267957   4.087   4.520  15.951 -0.1628  0.1297 -0.3739
15489TIP3    H167958   4.124   4.490  16.035  1.2385  2.0710 -0.2065
15489TIP3    H267959   3.994   4.500  15.957  0.0038 -0.3042  1.4175
15490TIP3   OH267960   2.612   4.820   2.361 -0.2588  0.0719  0.0148
15490TIP3    H167961   2.553   4.776   2.423  0.4009 -0.5745  0.1960
15490TIP3    H267962   2.556   4.838   2.285 -0.3732 -1.9181 -0.4446
15491TIP3   OH267963   1.990   2.714   4.211  0.1894  0.0305 -0.0472
15491TIP3    H167964   1.982   2.701   4.116 -1.1258  0.6261 -0.0377
15491TIP3    H267965   1.966   2.805   4.225  0.8718  0.0858  0.8195
15492TIP3   OH267966   4.588   0.025  16.437  0.7510 -0.3475  0.4350
15492TIP3    H167967   4.556   0.031  16.527 -4.3975  0.4785 -1.1344
15492TIP3    H267968   4.636   0.107  16.423  2.9175 -1.1186  2.6787
15493TIP3   OH267969   1.254   6.312  15.519  0.6749 -0.1898  0.2182
15493TIP3    H167970   1.251   6.389  15.576 -0.9105  0.8533 -1.1894
15493TIP3    H267971   1.346   6.286  15.519  0.6175 -1.1641  4.3611
15494TIP3   OH267972   2.824   0.937   1.216 -0.5681 -0.0795 -0.1362
15494TIP3    H167973   2.769   0.965   1.289 -2.6717  0.0052 -1.6432
15494TIP3    H267974   2.900   0.995   1.219  0.2843 -1.1825  2.9283
15495TIP3   OH267975   3.856   1.962   2.810 -0.2652  0.0358 -0.1050
15495TIP3    H167976   3.803   2.033   2.772  0.2177  1.1586  1.2372
15495TIP3    H267977   3.800   1.926   2.879 -0.3276 -0.6036 -0.4850
15496TIP3   OH267978   2.068   5.007   0.690 -0.1036  0.3593 -0.3273
15496TIP3    H167979   2.064   4.955   0.610 -2.0945  1.7046 -1.1871
15496TIP3    H267980   1.976   5.028   0.709  0.4123  1.0377  1.6782
15497TIP3   OH267981   3.721   1.798   3.049 -0.2448  0.3847 -0.1941
15497TIP3    H167982   3.639   1.762   3.083  0.8197 -2.0394 -0.0188
15497TIP3    H267983   3.754   1.853   3.121 -0.6695 -0.3705  0.6016
15498TIP3   OH267984   6.299   5.863   3.413 -0.0783  0.4290  0.4389
15498TIP3    H167985   6.316   5.936   3.354 -0.1083  0.4754  0.4872
15498TIP3    H267986   6.379   5.811   3.411 -1.6545 -2.3197 -3.4819
15499TIP3   OH267987   2.141   3.908   1.988  0.0314  0.5051 -0.3780
15499TIP3    H167988   2.189   3.958   2.055 -2.0653  0.5095  1.2567
15499TIP3    H267989   2.168   3.946   1.905  2.2797  0.9340  0.4827
15500TIP3   OH267990   2.287   4.284   4.618 -0.5687 -0.3019  0.3524
15500TIP3    H167991   2.370   4.267   4.662 -1.3620 -1.8795  1.3047
15500TIP3    H267992   2.306   4.273   4.525  0.8918  2.0888  0.2772
15501TIP3   OH267993   1.795   1.187  12.973  0.0271 -0.3992 -0.3907
15501TIP3    H167994   1.745   1.108  12.955  0.2833 -0.4866 -0.7385
15501TIP3    H267995   1.855   1.162  13.043 -0.7715 -0.1427  0.3954
15502TIP3   OH267996   3.431   0.860  15.948  0.2372 -0.2470 -0.0870
15502TIP3    H167997   3.450   0.910  15.869 -0.6077 -1.5072 -1.1307
15502TIP3    H267998   3.336   0.858  15.953  0.2853 -0.1301  1.0009
15503TIP3   OH267999   3.354   1.854  17.064  0.3554  0.5165 -0.3293
15503TIP3    H168000   3.357   1.950  17.058  0.8531  0.4072 -2.3313
15503TIP3    H268001   3.429   1.824  17.015 -1.0103 -0.9513 -1.6355
15504TIP3   OH268002   5.030   1.517   5.449 -0.3887  0.5179  0.1056
15504TIP3    H168003   5.057   1.521   5.357  0.8361  1.0623  0.4694
15504TIP3    H268004   5.042   1.426   5.473  0.6511  0.6489  0.1096
15505TIP3   OH268005   1.413   0.003  15.522  0.3236 -0.2273 -0.4167
15505TIP3    H168006   1.414  -0.030  15.612  0.2215  0.4932 -0.1470
15505TIP3    H268007   1.344  -0.049  15.479  1.2833 -1.5114 -0.4570
15506TIP3   OH268008   1.356   4.425  12.675 -0.6191  0.4579  0.4511
15506TIP3    H168009   1.407   4.345  12.664  0.0364  0.9392 -0.0848
15506TIP3    H268010   1.418   4.490  12.709  0.1836  2.0801 -3.5513
15507TIP3   OH268011   1.452   1.384   1.484 -0.5141  0.5334 -0.8261
15507TIP3    H168012   1.543   1.406   1.466 -0.4115  1.0317  0.2072
15507TIP3    H268013   1.445   1.290   1.467 -0.0434  0.6567 -1.7781
15508TIP3   OH268014   2.916   2.602   5.578  0.2551 -0.4186 -0.0771
15508TIP3    H168015   2.875   2.674   5.530 -0.0274  0.6941  1.7578
15508TIP3    H268016   2.973   2.645   5.642 -0.3245 -1.7955  1.4195
15509TIP3   OH268017   2.058   0.037  14.620 -0.1870 -0.5796  0.3248
15509TIP3    H168018   2.141  -0.008  14.636  1.0931  0.9639 -1.4893
15509TIP3    H268019   2.013  -0.018  14.555 -0.1383 -0.9094  0.5666
15510TIP3   OH268020   1.748   3.020  15.649  0.5134  0.5017  0.7200
15510TIP3    H168021   1.718   2.941  15.604 -1.5175  1.2204  0.6735
15510TIP3    H268022   1.720   3.092  15.592  2.9287  1.2743  0.4128
15511TIP3   OH268023   6.457   0.405   0.469 -0.1202  0.3186  0.3374
15511TIP3    H168024   6.399   0.333   0.443  1.5313 -1.1470  0.5114
15511TIP3    H268025   6.451   0.468   0.396  0.5079 -1.3071 -1.1976
15512TIP3   OH268026   1.749   0.187  16.068 -0.0738  0.2212  0.1759
15512TIP3    H168027   1.786   0.106  16.102 -1.0203 -1.5971 -2.7538
15512TIP3    H268028   1.658   0.166  16.047 -0.2560  1.9046 -0.9761
15513TIP3   OH268029   6.798   5.188  14.497  0.0355  0.0464  0.3107
15513TIP3    H168030   6.718   5.232  14.527  1.1122  2.7613 -0.4912
15513TIP3    H268031   6.820   5.126  14.567 -0.3899  2.4032  2.6706
15514TIP3   OH268032   3.922   1.804   3.844  0.4665 -0.1607  0.1204
15514TIP3    H168033   3.982   1.852   3.787  1.0753  1.2784  1.8819
15514TIP3    H268034   3.836   1.840   3.824  0.8241  1.2243  0.8769
15515TIP3   OH268035   4.106   1.543   2.466  0.2578  0.2235 -0.2708
15515TIP3    H168036   4.042   1.602   2.427 -2.2878 -2.5121 -0.5391
15515TIP3    H268037   4.129   1.585   2.549 -0.5913  2.0652 -0.9076
15516TIP3   OH268038   0.260   5.310   2.080 -0.5840  0.4543  0.2698
15516TIP3    H168039   0.313   5.297   2.001  0.3262 -1.6512  1.1655
15516TIP3    H268040   0.170   5.318   2.046 -0.5490 -2.8267 -0.9396
15517TIP3   OH268041   0.028   6.090  15.865  0.1287  0.0134  0.2665
15517TIP3    H168042   0.047   6.149  15.792  0.1865 -0.8890 -0.4633
15517TIP3    H268043  -0.059   6.115  15.894  0.0767  0.3358 -0.1611
15518TIP3   OH268044   2.967   4.730   5.010  0.1451  0.3665 -0.3014
15518TIP3    H168045   3.001   4.816   5.035  0.4434  0.2053 -0.1495
15518TIP3    H268046   2.982   4.675   5.087  0.2396  0.0981 -0.5096
15519TIP3   OH268047   1.389   5.372  16.663  0.3745 -0.2507  0.3794
15519TIP3    H168048   1.313   5.408  16.618  0.5916 -0.7884 -0.4374
15519TIP3    H268049   1.380   5.402  16.754  0.7657  2.2017 -0.3345
15520TIP3   OH268050   4.782   5.734  12.335  0.2746 -0.2301  0.2276
15520TIP3    H168051   4.822   5.727  12.249  0.2128  2.1138 -0.0544
15520TIP3    H268052   4.761   5.644  12.359  0.9675 -1.0073 -1.8605
15521TIP3   OH268053   3.809   0.297  16.448  0.2588 -0.4313 -0.4227
15521TIP3    H168054   3.719   0.270  16.465  0.0657 -0.3888 -1.3091
15521TIP3    H268055   3.861   0.219  16.465 -0.0541 -0.7284 -0.8171
15522TIP3   OH268056   1.802   1.134  13.757 -0.2267 -0.1137  0.0292
15522TIP3    H168057   1.745   1.174  13.823 -0.1111 -1.2363  0.8349
15522TIP3    H268058   1.764   1.161  13.673 -0.7929  0.7540  0.5462
15523TIP3   OH268059   0.981   6.684   2.549  0.0132  0.2794  0.1614
15523TIP3    H168060   0.905   6.678   2.607 -1.1133  0.4658 -1.2332
15523TIP3    H268061   0.953   6.640   2.468  1.8055 -0.6601  0.0135
15524TIP3   OH268062   5.713   3.622   5.564  0.1975 -0.2218 -0.4719
15524TIP3    H168063   5.791   3.674   5.549  0.0496  0.6365  1.5450
15524TIP3    H268064   5.718   3.596   5.656 -0.6766 -2.2276 -0.9292
15525TIP3   OH268065   5.324   6.119  13.798  0.1056 -0.6389 -0.2759
15525TIP3    H168066   5.387   6.146  13.864 -0.4623  0.2261 -0.0706
15525TIP3    H268067   5.344   6.027  13.781  0.2979 -0.8550  1.0468
15526TIP3   OH268068   2.083   2.763  13.223 -0.4724  0.1440 -0.3937
15526TIP3    H168069   2.073   2.775  13.128 -0.0910  1.8019 -0.2525
15526TIP3    H268070   2.115   2.847  13.254 -0.6569 -0.3640  1.2361
15527TIP3   OH268071   1.581   1.277  14.180  0.0423  0.5753 -0.3574
15527TIP3    H168072   1.594   1.336  14.254 -0.4922  0.0815  0.1361
15527TIP3    H268073   1.639   1.203  14.198  0.0732  0.5543 -0.5441
15528TIP3   OH268074   0.458   4.146  12.800  0.2740 -0.6202  0.1839
15528TIP3    H168075   0.473   4.227  12.848  0.5693  0.2101 -1.2502
15528TIP3    H268076   0.544   4.106  12.792 -0.1330 -2.2028  2.7034
15529TIP3   OH268077   3.309   6.747  14.562  0.0109  0.1690 -0.7987
15529TIP3    H168078   3.344   6.776  14.477  1.6293 -0.7915 -0.5095
15529TIP3    H268079   3.360   6.797  14.626  0.1247 -0.4985 -0.3698
15530TIP3   OH268080   4.602   1.399  14.639  0.0632  0.1492 -0.6224
15530TIP3    H168081   4.642   1.357  14.563  0.3738  1.1528 -1.0262
15530TIP3    H268082   4.509   1.405  14.617  0.1658  0.5101 -0.9595
15531TIP3   OH268083   4.418   2.093  15.759  0.1973 -0.5345  0.3214
15531TIP3    H168084   4.373   2.177  15.758  0.7943 -0.2034  0.6620
15531TIP3    H268085   4.426   2.068  15.667 -0.0703 -0.2678  0.2253
15532TIP3   OH268086   4.841   0.965   1.620  0.5372  0.3401 -0.1818
15532TIP3    H168087   4.850   0.871   1.632  1.2598  0.4589  0.2848
15532TIP3    H268088   4.747   0.981   1.617  0.3938 -0.2513  0.9365
15533TIP3   OH268089   0.257   2.391  14.369 -0.6618 -0.8524  0.2613
15533TIP3    H168090   0.276   2.320  14.431 -0.8533 -1.0592  0.0836
15533TIP3    H268091   0.336   2.446  14.371 -0.2780 -1.3802 -0.0315
15534TIP3   OH268092   6.052   5.735   0.653  0.0237  0.0072 -0.4095
15534TIP3    H168093   5.998   5.738   0.574 -0.2131  0.8679 -0.2305
15534TIP3    H268094   6.142   5.742   0.621 -0.0342 -0.3313 -0.6451
15535TIP3   OH268095   1.334   5.314  15.877 -0.2892 -0.1015  0.5076
15535TIP3    H168096   1.412   5.264  15.902  1.0182  0.7700 -1.6139
15535TIP3    H268097   1.301   5.270  15.799  0.5310  1.9263 -1.0386
15536TIP3   OH268098   5.323   0.962   2.368 -0.2515 -0.5026 -0.1346
15536TIP3    H168099   5.277   1.042   2.344  1.6001  0.6007 -0.1451
15536TIP3    H268100   5.260   0.914   2.423 -1.6356  0.6079 -0.6897
15537TIP3   OH268101   4.436   6.097   2.463 -1.2271 -0.0669 -0.2109
15537TIP3    H168102   4.351   6.129   2.495 -0.8827 -0.8434  1.6042
15537TIP3    H268103   4.436   6.004   2.485  0.2299 -0.0002  0.1239
15538TIP3   OH268104   1.400   5.164   5.891 -0.1622  0.3403 -0.5661
15538TIP3    H168105   1.386   5.225   5.818 -0.4313  1.3457  0.3065
15538TIP3    H268106   1.372   5.079   5.856 -1.7532  1.0695 -1.1559
15539TIP3   OH268107   6.606   2.681  16.681  0.4121  0.1556  0.1286
15539TIP3    H168108   6.646   2.763  16.654  0.6178  0.0054 -0.0300
15539TIP3    H268109   6.521   2.706  16.718 -0.6567  0.2360 -2.2132
15540TIP3   OH268110   5.313   0.464  16.352 -0.5563 -0.4158 -0.2099
15540TIP3    H168111   5.320   0.381  16.400 -1.7663 -0.6666 -0.4284
15540TIP3    H268112   5.235   0.453  16.297 -0.6373  0.8124 -0.3612
15541TIP3   OH268113   0.340   3.223  15.260 -0.1228 -0.4566 -0.3568
15541TIP3    H168114   0.249   3.196  15.248 -0.5143  1.1695 -1.2955
15541TIP3    H268115   0.370   3.247  15.173  0.9935 -0.2807  0.0607
15542TIP3   OH268116   4.662   0.919   2.567  0.4359  0.2702  0.1947
15542TIP3    H168117   4.686   1.007   2.597 -0.5366  0.4375  0.5236
15542TIP3    H268118   4.567   0.914   2.581  0.2681 -0.3598 -1.0468
15543TIP3   OH268119   3.553   6.319  11.999 -0.3722 -0.5096 -0.2820
15543TIP3    H168120   3.602   6.401  11.987 -0.0461 -0.7795 -0.8229
15543TIP3    H268121   3.595   6.257  11.939 -0.9749 -0.9219 -0.2840
15544TIP3   OH268122   1.338   4.949  11.970 -0.0251 -0.2173 -1.0852
15544TIP3    H168123   1.347   4.953  12.065 -2.0146 -0.5708 -0.8289
15544TIP3    H268124   1.428   4.949  11.937  0.7304  1.9775  0.6843
15545TIP3   OH268125   1.507   1.530   3.179  0.4694 -0.0668 -0.1868
15545TIP3    H168126   1.481   1.470   3.109 -1.0525  1.0169 -0.5870
15545TIP3    H268127   1.492   1.617   3.144  0.5305  0.5228  1.1750
15546TIP3   OH268128   6.097   1.750  15.532 -0.6206 -0.2350  0.3008
15546TIP3    H168129   6.166   1.800  15.574  0.2830 -1.8868  0.8993
15546TIP3    H268130   6.048   1.711  15.604 -1.3010 -0.2043 -0.1391
15547TIP3   OH268131   2.308   4.620  14.884 -0.1618 -0.5454 -0.2711
15547TIP3    H168132   2.380   4.682  14.881 -2.0651  1.7550 -1.4100
15547TIP3    H268133   2.275   4.616  14.794 -1.3388 -1.6978  0.1684
15548TIP3   OH268134   2.115   2.098  15.740 -0.0219 -0.4623 -0.4595
15548TIP3    H168135   2.120   2.022  15.799 -0.2022  0.0359  0.2109
15548TIP3    H268136   2.172   2.163  15.780 -0.2940 -0.0504 -0.7355
15549TIP3   OH268137   0.358   5.135   6.047 -0.2989 -0.1339 -0.3388
15549TIP3    H168138   0.421   5.064   6.043  0.2861  0.3671 -0.1038
15549TIP3    H268139   0.320   5.129   6.135 -0.8569 -0.6668 -0.6120
15550TIP3   OH268140   3.765   2.995  11.095  0.2369  0.0350  0.6221
15550TIP3    H168141   3.681   2.968  11.131 -0.8074  0.7938 -1.1479
15550TIP3    H268142   3.772   3.088  11.119  0.9378 -0.1872  1.3638
15551TIP3   OH268143   5.254   2.262  16.388  0.3144 -0.1609 -0.0080
15551TIP3    H168144   5.295   2.195  16.333 -1.3162  0.1238 -1.6799
15551TIP3    H268145   5.316   2.335  16.386  1.4951 -1.0925  0.7561
15552TIP3   OH268146   3.536   6.391   3.442 -0.4865 -0.1167 -0.0779
15552TIP3    H168147   3.451   6.366   3.406 -1.2731 -0.4562  1.8946
15552TIP3    H268148   3.598   6.332   3.400 -1.5016 -1.2407 -0.0478
15553TIP3   OH268149   5.793   1.278  16.008 -0.1108  0.0781  0.4023
15553TIP3    H168150   5.870   1.229  15.980  0.8751  1.7565  0.0084
15553TIP3    H268151   5.719   1.220  15.988  0.7882 -0.2102 -2.5791
15554TIP3   OH268152   5.812   0.393   1.426  0.3237  0.1119  0.0907
15554TIP3    H168153   5.741   0.330   1.424 -0.2169  0.6493  1.1553
15554TIP3    H268154   5.852   0.388   1.340  1.5343 -3.0361  0.7252
15555TIP3   OH268155   5.754   2.303   1.838  0.5817 -0.5963  0.1821
15555TIP3    H168156   5.752   2.399   1.835 -2.5875 -0.6002 -0.4995
15555TIP3    H268157   5.748   2.276   1.747 -1.3415 -1.3908  0.5118
15556TIP3   OH268158   1.711   1.620   4.686  0.4385  0.7001  0.0534
15556TIP3    H168159   1.682   1.535   4.653  2.4834 -0.1692  0.3222
15556TIP3    H268160   1.714   1.675   4.608  0.5055  0.0918 -0.3828
15557TIP3   OH268161   5.058   2.615   4.314  0.6853  0.4213  0.2931
15557TIP3    H168162   5.034   2.586   4.402 -0.9602 -0.7484 -0.4985
15557TIP3    H268163   5.029   2.545   4.256 -2.1271  2.8557 -1.5799
15558TIP3   OH268164   4.010   2.105  13.729 -0.6967 -0.1296 -0.2983
15558TIP3    H168165   4.057   2.141  13.654 -1.5293  1.8634  0.0708
15558TIP3    H268166   4.075   2.049  13.774  0.7678  1.1262 -0.7684
15559TIP3   OH268167   3.188   0.314   5.071 -0.1429  0.5551 -0.2582
15559TIP3    H168168   3.122   0.258   5.113  0.3654  0.0127 -0.1808
15559TIP3    H268169   3.173   0.401   5.109  0.5603 -0.0012  1.3789
15560TIP3   OH268170   2.149   4.001  15.037 -0.0013 -0.1998 -0.3514
15560TIP3    H168171   2.101   3.919  15.020  0.2324 -0.4104 -0.0235
15560TIP3    H268172   2.080   4.066  15.051 -0.1920 -0.3688 -0.4861
15561TIP3   OH268173   2.032   5.531  11.857  0.0959 -0.4317  0.0522
15561TIP3    H168174   2.037   5.620  11.823  1.1823  0.3700  2.1059
15561TIP3    H268175   2.102   5.484  11.812  0.5273  0.1951  0.0473
15562TIP3   OH268176   3.645   4.758   2.875 -0.5022  0.0896  1.1488
15562TIP3    H168177   3.551   4.738   2.880 -0.1024 -2.2985  0.4574
15562TIP3    H268178   3.687   4.672   2.877  1.5996  1.0206 -0.2311
15563TIP3   OH268179   4.215   4.843  12.954  0.1597 -0.4635  0.1942
15563TIP3    H168180   4.191   4.935  12.944  0.0540 -0.3970  0.9784
15563TIP3    H268181   4.247   4.837  13.044 -0.7669 -1.3989  0.4694
15564TIP3   OH268182   1.777   0.412  12.397 -0.4808  0.3904 -0.3522
15564TIP3    H168183   1.686   0.416  12.426 -0.0428  0.0728  1.0969
15564TIP3    H268184   1.805   0.504  12.393 -0.9843  0.5164 -1.2454
15565TIP3   OH268185   6.616   6.506   0.280 -0.1898 -0.0519  0.3879
15565TIP3    H168186   6.637   6.421   0.317  0.1111 -0.2561 -0.2536
15565TIP3    H268187   6.586   6.558   0.355  1.5912 -0.0701  1.1677
15566TIP3   OH268188   4.537   1.592   2.860  0.1793  0.1500 -0.3938
15566TIP3    H168189   4.535   1.580   2.765  2.0541 -1.4789 -0.2933
15566TIP3    H268190   4.506   1.508   2.896 -2.9123  1.5459  0.5129
15567TIP3   OH268191   5.735   0.606  13.047 -0.1473  0.4340  0.1146
15567TIP3    H168192   5.798   0.670  13.014 -0.9527  0.2174 -1.9590
15567TIP3    H268193   5.651   0.633  13.010 -0.6742 -1.2705 -0.0014
15568TIP3   OH268194   0.803   3.278   2.831 -0.9174  0.1913  0.8543
15568TIP3    H168195   0.889   3.256   2.866 -0.3763 -0.4798 -0.7673
15568TIP3    H268196   0.742   3.256   2.901  0.2761  1.6422  2.4265
15569TIP3   OH268197   5.742   5.507  17.236  0.2463 -0.0368  0.1459
15569TIP3    H168198   5.770   5.553  17.315  0.0112  0.4401 -0.0457
15569TIP3    H268199   5.724   5.417  17.265  0.6696  0.0042  0.5280
15570TIP3   OH268200   2.260   5.058  15.102  0.1524  0.0638  0.0528
15570TIP3    H168201   2.191   5.048  15.168  1.6452 -0.0353  1.6882
15570TIP3    H268202   2.251   4.980  15.047 -1.3302  0.2992 -0.0910
15571TIP3   OH268203   2.078   0.104  12.786 -0.0301 -0.0859  0.3409
15571TIP3    H168204   2.038   0.188  12.762 -0.6426  0.0338  1.7119
15571TIP3    H268205   2.157   0.128  12.835 -0.2697 -0.3045  0.8384
15572TIP3   OH268206   3.882   5.897   5.857  0.0728 -0.3975 -0.3052
15572TIP3    H168207   3.798   5.895   5.811 -0.7892  0.4680  1.1551
15572TIP3    H268208   3.859   5.908   5.950  1.7519 -1.6401  0.3114
15573TIP3   OH268209   5.911   1.891   3.566 -0.6442  0.4781 -0.0431
15573TIP3    H168210   5.888   1.860   3.654 -1.0065 -1.2916 -0.7216
15573TIP3    H268211   5.933   1.983   3.578 -1.0029  0.3536  1.8489
15574TIP3   OH268212   6.421   2.036  11.455 -0.1973  0.0908 -0.3828
15574TIP3    H168213   6.487   2.024  11.523  1.0866 -0.0149 -1.6040
15574TIP3    H268214   6.344   2.067  11.502  1.2080  1.8147  0.9133
15575TIP3   OH268215   5.632   0.455   2.051  0.3445 -0.1490 -0.1321
15575TIP3    H168216   5.567   0.393   2.019 -0.4078  0.9835 -0.9015
15575TIP3    H268217   5.632   0.444   2.146  0.9240 -1.9585 -0.3042
15576TIP3   OH268218   3.535   6.340   0.309  0.3645 -0.3867  0.3663
15576TIP3    H168219   3.585   6.385   0.241  0.4982  0.3658  0.9641
15576TIP3    H268220   3.497   6.264   0.263  0.1959  0.2772 -0.6290
15577TIP3   OH268221   6.317   2.357   4.462  0.4128  0.1174  0.2664
15577TIP3    H168222   6.331   2.449   4.436 -0.9562  0.0721 -0.7395
15577TIP3    H268223   6.387   2.309   4.418  0.0898  0.4775 -0.6725
15578TIP3   OH268224   0.641   0.101   3.648  0.2010 -0.2863  0.9028
15578TIP3    H168225   0.642   0.021   3.700 -0.8477 -1.8929 -1.4003
15578TIP3    H268226   0.717   0.093   3.591 -0.7757 -0.4179 -0.4091
15579TIP3   OH268227   3.818   1.834  15.856  0.5496 -0.6193  0.0735
15579TIP3    H168228   3.880   1.763  15.845  1.7924  0.2961  0.8843
15579TIP3    H268229   3.814   1.877  15.771  0.4746 -1.1107 -0.1732
15580TIP3   OH268230   5.711   1.087  14.086 -0.4954 -0.1341  0.0547
15580TIP3    H168231   5.658   1.164  14.107  0.4775  0.5948 -0.1011
15580TIP3    H268232   5.729   1.047  14.171 -2.0740 -0.9428  0.0422
15581TIP3   OH268233   5.449   3.913  14.485  0.6624  0.1387  0.2619
15581TIP3    H168234   5.461   3.893  14.392 -1.0255 -0.0717  0.0632
15581TIP3    H268235   5.527   3.877  14.528  1.5801  0.4506 -1.0875
15582TIP3   OH268236   4.746   0.844   0.996  0.4885  0.1861  0.4050
15582TIP3    H168237   4.813   0.856   1.063  0.7526  0.2290  0.1357
15582TIP3    H268238   4.753   0.922   0.940 -0.3882  0.6284  0.8883
15583TIP3   OH268239   4.019   0.068  13.031  0.0955 -0.0185 -0.0593
15583TIP3    H168240   3.969   0.117  12.965 -0.5990 -1.8427 -0.9409
15583TIP3    H268241   4.109   0.068  12.998 -0.3218 -1.2899 -1.2903
15584TIP3   OH268242   1.876   4.412   2.256  0.2935 -0.4182 -0.3082
15584TIP3    H168243   1.784   4.437   2.263  0.2629 -0.1318 -1.3961
15584TIP3    H268244   1.877   4.344   2.189  0.8765 -0.3376 -0.3893
15585TIP3   OH268245   4.511   4.934   6.381 -0.2481 -0.2933  0.4620
15585TIP3    H168246   4.507   4.853   6.331 -0.8524  0.0598 -0.0780
15585TIP3    H268247   4.566   4.913   6.457 -0.3854 -1.1935  0.3212
15586TIP3   OH268248   1.094   4.261   3.359  0.2669 -0.7055  0.1911
15586TIP3    H168249   1.097   4.331   3.425  1.1746 -1.3519  0.8637
15586TIP3    H268250   1.023   4.286   3.300  0.1672  0.4575  0.7835
15587TIP3   OH268251   2.467   4.303  12.719  0.2268 -0.3634 -0.8079
15587TIP3    H168252   2.386   4.268  12.757  0.1660 -0.3315 -0.9045
15587TIP3    H268253   2.482   4.249  12.641 -0.4532  0.4855 -1.5577
15588TIP3   OH268254   5.130   2.731   1.361  0.0606  0.1954 -0.0750
15588TIP3    H168255   5.041   2.764   1.348  0.7147  1.8329 -0.7147
15588TIP3    H268256   5.148   2.680   1.282  0.8661  2.7445 -1.6320
15589TIP3   OH268257   3.749   4.090   3.639  0.2609  0.0073  0.4451
15589TIP3    H168258   3.817   4.054   3.582  0.8967 -0.7196  1.6129
15589TIP3    H268259   3.766   4.184   3.640 -0.9358  0.3257 -2.0268
15590TIP3   OH268260   5.237   5.436  11.545 -0.1436  0.3486 -0.0346
15590TIP3    H168261   5.152   5.481  11.546 -0.7915 -0.7575 -1.5183
15590TIP3    H268262   5.219   5.351  11.504  1.7379  0.2247 -0.7234
15591TIP3   OH268263   4.469   4.398  14.219 -0.4827  0.3411 -0.2914
15591TIP3    H168264   4.523   4.353  14.283  0.7616  0.3353 -1.3134
15591TIP3    H268265   4.400   4.335  14.197 -0.5794  0.1300  0.5827
15592TIP3   OH268266   4.383   1.581   2.424  0.3632 -0.1537 -0.3066
15592TIP3    H168267   4.291   1.555   2.432  0.7966 -1.2582  1.5941
15592TIP3    H268268   4.379   1.675   2.405 -1.1467 -0.3344 -1.0923
15593TIP3   OH268269   2.754   1.736  11.751  0.3324 -0.4436  0.3540
15593TIP3    H168270   2.714   1.807  11.802  0.2804  0.1022 -0.4285
15593TIP3    H268271   2.839   1.771  11.725  0.3680 -0.7229  0.0894
15594TIP3   OH268272   4.994   3.297   3.521  0.1979  0.1720 -0.4246
15594TIP3    H168273   4.988   3.381   3.566 -0.6914 -0.2957  0.3746
15594TIP3    H268274   5.080   3.263   3.545  0.7656  1.0675 -1.1566
15595TIP3   OH268275   5.187   6.168  11.686 -0.4018  0.3055 -0.3620
15595TIP3    H168276   5.245   6.192  11.613  0.2715  1.4553  0.5025
15595TIP3    H268277   5.243   6.172  11.763 -1.0087 -1.2781  0.1985
15596TIP3   OH268278   2.322   1.870  11.550 -0.5370 -0.4482  0.1585
15596TIP3    H168279   2.333   1.929  11.625  1.8216 -0.7641  0.1227
15596TIP3    H268280   2.234   1.835  11.561 -0.7885  0.6173  1.9837
15597TIP3   OH268281   0.214   5.016   1.232 -0.5386 -0.1735 -0.1731
15597TIP3    H168282   0.225   5.078   1.159 -0.0428  0.4804  0.4374
15597TIP3    H268283   0.197   4.932   1.190  0.0746  0.1290 -1.0549
15598TIP3   OH268284   1.419   5.338   4.738 -0.2018 -1.5561 -0.5848
15598TIP3    H168285   1.339   5.312   4.692 -0.6982 -1.2031  0.0519
15598TIP3    H268286   1.387   5.385   4.815  0.6063 -2.6162  0.4085
15599TIP3   OH268287   0.461   3.348  14.560 -0.2358 -0.1366 -0.3438
15599TIP3    H168288   0.420   3.285  14.620  1.0558 -1.0797 -0.3917
15599TIP3    H268289   0.421   3.432  14.581 -0.7079 -0.6701  0.9788
15600TIP3   OH268290   0.192   4.085  12.772  0.1516  0.0711 -0.7907
15600TIP3    H168291   0.161   4.159  12.825  0.9563 -0.2802  0.2099
15600TIP3    H268292   0.276   4.114  12.738  0.6560 -0.5142 -0.0705
15601TIP3   OH268293   3.174   6.158   6.262 -0.1763  0.4168  0.0282
15601TIP3    H168294   3.148   6.249   6.274 -1.0570 -0.0124  1.6579
15601TIP3    H268295   3.174   6.121   6.350  0.8724 -0.9853 -0.5237
15602TIP3   OH268296   4.615   2.409   4.877  0.0707 -0.3935 -0.1476
15602TIP3    H168297   4.672   2.460   4.935 -0.4411  1.5744 -1.2605
15602TIP3    H268298   4.660   2.325   4.867  2.2599  0.7001 -0.1384
15603TIP3   OH268299   0.108   0.726  10.966  0.2608  0.0949  0.0549
15603TIP3    H168300   0.200   0.735  10.945  0.0048 -0.5887 -1.4334
15603TIP3    H268301   0.102   0.749  11.059  2.0139 -0.4529  0.3296
15604TIP3   OH268302   1.549   4.313   5.808 -0.4205  0.2290 -0.2498
15604TIP3    H168303   1.470   4.272   5.772 -0.1169 -0.1376 -0.5076
15604TIP3    H268304   1.517   4.392   5.852 -1.0195 -0.2879  0.2689
15605TIP3   OH268305   2.415   2.639  11.930  0.4892 -0.4476 -0.3037
15605TIP3    H168306   2.395   2.731  11.945  1.0124 -0.6340  1.7577
15605TIP3    H268307   2.329   2.599  11.914  0.2127  0.2967 -0.7561
15606TIP3   OH268308   2.010   4.408   4.963 -0.1387  0.2318 -0.0540
15606TIP3    H168309   1.983   4.413   4.872  0.1424 -1.5606 -0.2685
15606TIP3    H268310   2.091   4.459   4.967  0.7802 -1.0767 -1.2153
15607TIP3   OH268311   5.140   5.558   2.193 -0.8004 -0.3666 -0.2821
15607TIP3    H168312   5.205   5.543   2.262  0.4995 -2.7028 -1.8661
15607TIP3    H268313   5.093   5.636   2.222  4.1424  3.0227 -0.0597
15608TIP3   OH268314   6.050   5.605  13.831  0.1068  0.2815 -0.1488
15608TIP3    H168315   6.001   5.543  13.885  0.7390 -0.0844  0.0227
15608TIP3    H268316   5.991   5.680  13.820 -0.2555  0.1050  0.5476
15609TIP3   OH268317   3.387   4.846   0.290  0.0878  0.1739 -0.2281
15609TIP3    H168318   3.441   4.768   0.300  0.3513  0.2294 -1.2028
15609TIP3    H268319   3.302   4.821   0.326 -0.5465 -1.3269 -2.5663
15610TIP3   OH268320   4.811   6.255  11.917  0.1908 -0.8400 -0.1845
15610TIP3    H168321   4.759   6.178  11.896 -2.2324  0.8821 -0.8697
15610TIP3    H268322   4.753   6.311  11.969  1.8920  0.5193  0.3714
15611TIP3   OH268323   2.470   1.722  11.133  0.0893 -0.3809  0.1851
15611TIP3    H168324   2.475   1.708  11.228  0.3671 -0.2989  0.1810
15611TIP3    H268325   2.470   1.634  11.096  0.8077 -0.3941  0.2164
15612TIP3   OH268326   0.639   1.818  12.738 -0.3759 -0.1829 -0.0575
15612TIP3    H168327   0.709   1.879  12.715 -0.4152  0.1470  0.6732
15612TIP3    H268328   0.583   1.866  12.798 -0.8252 -0.6924 -0.0536
15613TIP3   OH268329   1.410   3.396  11.974  0.7241  0.1557 -0.1641
15613TIP3    H168330   1.321   3.371  11.999  1.1847  0.2614  1.7266
15613TIP3    H268331   1.462   3.318  11.991  1.1904  0.4958 -0.0122
15614TIP3   OH268332   4.570   6.006  14.748  0.2448  0.5667 -0.3332
15614TIP3    H168333   4.581   6.000  14.653 -1.0681  1.8548 -0.6081
15614TIP3    H268334   4.531   5.923  14.773  0.3901  0.3046 -0.9581
15615TIP3   OH268335   0.676   1.382   5.996 -0.3260 -0.4403 -0.1196
15615TIP3    H168336   0.768   1.387   6.021 -0.0224  0.7176 -1.3601
15615TIP3    H268337   0.674   1.413   5.905 -2.0270  0.2674  0.1232
15616TIP3   OH268338   3.938   0.139  16.851  0.6452  0.5347 -0.0104
15616TIP3    H168339   3.961   0.069  16.790  0.1578 -1.2268  1.7146
15616TIP3    H268340   4.011   0.141  16.914 -0.4955 -0.2000  1.3918
15617TIP3   OH268341   3.605   3.080   3.159  0.4818 -0.3588  1.0837
15617TIP3    H168342   3.658   3.012   3.200  0.5706 -0.7294  0.3701
15617TIP3    H268343   3.669   3.139   3.120  0.4122 -1.5311 -0.9637
15618TIP3   OH268344   4.135   4.830  15.972 -0.1128 -0.4670 -0.3558
15618TIP3    H168345   4.111   4.917  16.004 -0.5806 -0.0909 -1.6654
15618TIP3    H268346   4.055   4.795  15.932 -0.2041 -1.9362  1.0310
15619TIP3   OH268347   4.078   2.147  12.089 -0.0008 -0.2099 -0.7428
15619TIP3    H168348   4.111   2.218  12.034 -1.5141  0.9824 -0.1636
15619TIP3    H268349   4.144   2.138  12.158  0.1444  0.7296 -0.7439
15620TIP3   OH268350   1.460   1.488   4.875 -0.4347 -0.3178  0.4331
15620TIP3    H168351   1.446   1.430   4.950 -0.0344 -1.4368 -0.3184
15620TIP3    H268352   1.525   1.442   4.821 -0.0228  0.9031 -0.1391
15621TIP3   OH268353   3.017   3.888  12.472  0.8817  0.2769 -0.1117
15621TIP3    H168354   3.099   3.862  12.514  0.1691 -2.2071 -0.0798
15621TIP3    H268355   3.030   3.980  12.447  2.5573  0.8549  2.5143
15622TIP3   OH268356   6.547   4.729   4.710 -0.0122  0.4475 -0.0048
15622TIP3    H168357   6.516   4.661   4.770  0.6753 -0.5472 -0.7606
15622TIP3    H268358   6.472   4.789   4.703 -0.5008 -0.0117  0.9567
15623TIP3   OH268359   4.747   3.398  16.873  0.0623  0.1187  0.0144
15623TIP3    H168360   4.726   3.327  16.934 -0.6827  0.7507  0.5082
15623TIP3    H268361   4.828   3.436  16.907 -0.4326  0.5646  0.6928
15624TIP3   OH268362   1.970   3.041   2.347 -0.1276  0.0959  0.1265
15624TIP3    H168363   2.039   3.097   2.384 -2.0069  1.8180  1.2371
15624TIP3    H268364   2.016   2.984   2.286  2.1669  1.7169  0.1943
15625TIP3   OH268365   3.888   5.381   4.755  0.6106 -0.4301  0.1376
15625TIP3    H168366   3.949   5.447   4.723  0.8217 -0.5739  0.2398
15625TIP3    H268367   3.931   5.298   4.737  0.0401 -0.5724 -0.6419
15626TIP3   OH268368   3.010   0.500  12.178  0.7827 -0.0051  0.3911
15626TIP3    H168369   2.957   0.446  12.237 -0.0383 -0.5453 -0.8076
15626TIP3    H268370   2.955   0.576  12.159  0.5070 -0.4715 -0.7071
15627TIP3   OH268371   1.738   0.510   0.847 -0.3172  0.1496 -0.0896
15627TIP3    H168372   1.716   0.603   0.840 -2.2032 -0.2737 -0.3173
15627TIP3    H268373   1.832   0.506   0.827 -0.4464  1.8641 -1.2520
15628TIP3   OH268374   2.154   2.357  11.658  0.0315  0.3559  0.6995
15628TIP3    H168375   2.074   2.324  11.616  0.6868  1.8378 -1.9426
15628TIP3    H268376   2.222   2.344  11.592  1.0081  3.5148  0.9545
15629TIP3   OH268377   2.985   1.629  11.478 -0.6307 -0.1084  0.4795
15629TIP3    H168378   3.069   1.591  11.453 -1.3427 -1.5407  0.1657
15629TIP3    H268379   2.985   1.627  11.574 -0.4132 -0.3686  0.4738
15630TIP3   OH268380   1.951   2.549   3.449  0.1423  0.0754  0.4201
15630TIP3    H168381   1.972   2.466   3.406 -1.3276  0.3578 -0.9191
15630TIP3    H268382   1.858   2.561   3.433  0.4156  2.2042  0.2317
15631TIP3   OH268383   3.854   1.533   3.845 -0.2382  0.2678  0.1064
15631TIP3    H168384   3.846   1.496   3.933 -1.2126  0.5187  0.1380
15631TIP3    H268385   3.768   1.520   3.806 -0.7221  2.7044  0.2096
15632TIP3   OH268386   5.965   2.486  15.163 -0.6681 -0.0778  0.8480
15632TIP3    H168387   5.897   2.446  15.218 -1.2495  0.0134  0.2042
15632TIP3    H268388   6.043   2.488  15.219 -0.8088 -1.4800  1.1241
15633TIP3   OH268389   6.797   5.949   1.600 -0.5725 -0.2831  0.1054
15633TIP3    H168390   6.821   5.966   1.509 -3.0261 -0.3496 -0.6297
15633TIP3    H268391   6.792   6.036   1.640 -2.3905  0.0263 -0.6887
15634TIP3   OH268392   0.524   6.033   4.866  0.3705  0.2635 -0.7615
15634TIP3    H168393   0.568   5.996   4.943  0.6623  0.6793 -0.7305
15634TIP3    H268394   0.498   5.956   4.815  1.0632  0.0029 -0.7423
15635TIP3   OH268395   1.550   4.162  14.122  0.2732  0.6761  0.2238
15635TIP3    H168396   1.568   4.074  14.155  1.3431  1.0285  0.6094
15635TIP3    H268397   1.456   4.174  14.137  0.2486 -0.1343  0.7986
15636TIP3   OH268398   1.248   5.308  13.493 -0.6767 -0.1778 -0.1125
15636TIP3    H168399   1.155   5.290  13.484 -0.5550 -0.1571 -1.7664
15636TIP3    H268400   1.261   5.393  13.451  0.3834 -1.1170 -1.7972
15637TIP3   OH268401   1.720   3.014  13.514 -0.2312  0.0118 -0.2159
15637TIP3    H168402   1.771   2.934  13.506 -1.7701 -0.8828 -1.6716
15637TIP3    H268403   1.784   3.082  13.533  1.4249 -1.1148 -1.5657
15638TIP3   OH268404   0.003   3.024   0.899 -0.5303  0.0213  0.6642
15638TIP3    H168405   0.091   3.040   0.933  0.0741 -2.3540  0.4243
15638TIP3    H268406  -0.029   2.949   0.948 -2.5914  1.0051  0.9427
15639TIP3   OH268407   6.472   1.003   2.783 -0.2382 -0.3613 -0.0682
15639TIP3    H168408   6.538   1.070   2.802 -0.9852  1.0444 -2.1706
15639TIP3    H268409   6.394   1.031   2.831 -0.0327 -0.7393  0.5023
15640TIP3   OH268410   2.193   3.690  14.178  0.0481  0.1441 -0.5048
15640TIP3    H168411   2.131   3.762  14.166  0.0322  0.0996 -0.6919
15640TIP3    H268412   2.246   3.690  14.099 -1.1665 -1.2198 -1.3797
15641TIP3   OH268413   4.310   3.555   0.704  0.4120  0.0226 -0.1003
15641TIP3    H168414   4.251   3.565   0.629  0.0397  1.4824  0.3525
15641TIP3    H268415   4.378   3.621   0.689  0.3925  0.2525  0.8015
15642TIP3   OH268416   4.231   3.743   4.785  0.0446  0.0089  0.0497
15642TIP3    H168417   4.219   3.808   4.715  0.8628  0.6930  0.5237
15642TIP3    H268418   4.302   3.687   4.753  0.8353  0.6840  0.5552
15643TIP3   OH268419   4.670   1.945   4.996  0.1281 -0.6049 -1.2265
15643TIP3    H168420   4.635   2.035   4.993  1.4085 -0.0811 -0.9470
15643TIP3    H268421   4.625   1.905   5.070 -0.7658 -0.3320 -1.6073
15644TIP3   OH268422   3.037   2.058  15.163  0.3910  0.0222 -0.6564
15644TIP3    H168423   3.056   2.138  15.114  0.5486 -0.5813 -1.6054
15644TIP3    H268424   2.957   2.078  15.212  0.2016  0.6240 -1.2017
15645TIP3   OH268425   6.000   3.431   0.159 -0.5240  0.3232 -0.0095
15645TIP3    H168426   6.033   3.382   0.084 -0.0589 -1.1165  1.0973
15645TIP3    H268427   5.910   3.401   0.170 -0.9768  1.3710 -0.6451
15646TIP3   OH268428   1.282   5.516   4.913  0.2064  0.4980  0.1378
15646TIP3    H168429   1.246   5.604   4.922 -1.4340 -0.0734 -0.4997
15646TIP3    H268430   1.221   5.460   4.961  1.7129 -0.2191  1.2966
15647TIP3   OH268431   2.332   4.881  15.643  0.1759 -0.5912  0.3375
15647TIP3    H168432   2.277   4.912  15.714  0.0108 -0.8812  0.3377
15647TIP3    H268433   2.396   4.824  15.685  0.7967  0.1452  0.4054
15648TIP3   OH268434   4.706   2.739  12.984  0.5035 -0.0575  0.0052
15648TIP3    H168435   4.677   2.665  13.038  0.3145 -0.5570 -0.7675
15648TIP3    H268436   4.651   2.812  13.011 -1.2673 -0.8973 -1.1839
15649TIP3   OH268437   5.766   0.057   4.401  0.2616  0.3736 -0.1493
15649TIP3    H168438   5.848   0.105   4.410  1.0599 -1.2840  2.1740
15649TIP3    H268439   5.702   0.109   4.450  1.0263 -0.6117  1.9891
15650TIP3   OH268440   2.549   5.836   4.753 -0.3541 -0.0662 -0.2240
15650TIP3    H168441   2.577   5.814   4.841  0.8215 -1.6436 -0.9446
15650TIP3    H268442   2.454   5.848   4.760 -0.0871  1.4631  1.5212
15651TIP3   OH268443   2.669   4.350  11.905 -0.5704  0.3100 -0.5256
15651TIP3    H168444   2.596   4.384  11.958 -1.4448  0.6773 -1.9304
15651TIP3    H268445   2.716   4.293  11.965 -0.6842  1.8248  1.0959
15652TIP3   OH268446   5.457   2.013   5.657  0.1274  0.5637  0.1517
15652TIP3    H168447   5.509   2.089   5.630  0.7212 -0.3710 -1.4586
15652TIP3    H268448   5.518   1.960   5.708  0.2336  0.3202 -0.2281
15653TIP3   OH268449   5.032   1.894   2.585 -0.3631 -0.0015 -0.3648
15653TIP3    H168450   5.112   1.894   2.637 -0.2192 -1.5794 -0.5275
15653TIP3    H268451   4.988   1.812   2.609 -1.0650 -0.0046 -1.5545
15654TIP3   OH268452   0.296   3.986   2.749 -0.0090  0.2703  0.1789
15654TIP3    H168453   0.231   3.938   2.697 -1.0384  2.0405 -0.2528
15654TIP3    H268454   0.380   3.951   2.720 -0.4138  1.9881 -3.7878
15655TIP3   OH268455   1.631   1.498   0.342 -0.0964 -0.1493 -0.1658
15655TIP3    H168456   1.594   1.572   0.390 -1.6411 -0.4333 -0.8681
15655TIP3    H268457   1.690   1.537   0.278  0.3843  0.3528  0.5642
15656TIP3   OH268458   0.139   2.767   3.237 -0.1983 -0.2003 -0.0853
15656TIP3    H168459   0.132   2.696   3.300  0.9114 -0.1562  0.0996
15656TIP3    H268460   0.152   2.845   3.290 -1.0344  0.1035 -0.3055
15657TIP3   OH268461   3.294   2.223   0.412  0.0582  0.6223  0.0506
15657TIP3    H168462   3.309   2.135   0.448  0.9691  0.3467 -0.9431
15657TIP3    H268463   3.327   2.218   0.322  0.0786  1.9695 -0.0381
15658TIP3   OH268464   1.042   3.376  14.436  1.1669  0.6238  1.1299
15658TIP3    H168465   0.977   3.313  14.403  2.9502 -0.3841 -0.7051
15658TIP3    H268466   0.990   3.450  14.467 -0.8708  0.3288 -1.2323
15659TIP3   OH268467   3.496   1.987   2.984 -0.3477  0.5708 -0.0166
15659TIP3    H168468   3.479   1.922   3.053  1.0485 -1.7202 -1.6754
15659TIP3    H268469   3.563   2.045   3.021  1.3203 -1.3761  0.2248
15660TIP3   OH268470   1.324   6.606   3.747 -0.0327  0.1196  0.2939
15660TIP3    H168471   1.248   6.660   3.725  0.1552  0.0051 -0.6812
15660TIP3    H268472   1.374   6.659   3.808  0.5372  1.4100 -1.2191
15661TIP3   OH268473   4.608   3.219  14.464 -0.0577 -0.2058  0.2422
15661TIP3    H168474   4.625   3.302  14.418  0.4216 -0.1811  0.4515
15661TIP3    H268475   4.517   3.199  14.445 -0.1529  0.3305  0.1172
15662TIP3   OH268476   1.433   0.191   1.197  0.2120 -0.1462  0.4965
15662TIP3    H168477   1.416   0.184   1.103  2.0568  1.4096 -0.0314
15662TIP3    H268478   1.525   0.165   1.206  0.2575  0.3898  1.7645
15663TIP3   OH268479   0.333   2.417   0.491  0.1136  0.3961 -0.1950
15663TIP3    H168480   0.396   2.434   0.561  0.9712  0.1045 -0.8867
15663TIP3    H268481   0.248   2.431   0.532  0.6090  0.4222  0.8549
15664TIP3   OH268482   0.178   5.461  12.611 -0.0912  0.0632  0.2375
15664TIP3    H168483   0.084   5.458  12.630 -0.0391  1.1002  0.7629
15664TIP3    H268484   0.217   5.402  12.675 -0.6802 -3.9015 -2.6821
15665TIP3   OH268485   6.503   5.136   6.345 -0.0893 -0.0887  0.3575
15665TIP3    H168486   6.574   5.091   6.392  1.5396  0.3986 -1.5239
15665TIP3    H268487   6.514   5.111   6.254 -0.0632  2.8503 -0.5522
15666TIP3   OH268488   5.514   1.422   5.055 -0.7024  0.0692  0.2313
15666TIP3    H168489   5.582   1.369   5.096  0.1061 -0.3955 -1.5847
15666TIP3    H268490   5.504   1.498   5.112 -0.2159 -0.9133  1.6694
15667TIP3   OH268491   5.531   5.221   3.869  0.4297 -0.0988  0.4832
15667TIP3    H168492   5.561   5.180   3.950 -0.9215  0.6499  1.4096
15667TIP3    H268493   5.440   5.245   3.887 -0.0628 -0.3945 -1.4583
15668TIP3   OH268494   3.932   3.356   0.193  0.2378 -0.3686  0.3651
15668TIP3    H168495   3.860   3.314   0.240  0.5473 -0.8603  0.4084
15668TIP3    H268496   3.949   3.297   0.119  1.7251 -1.1730  1.2976
15669TIP3   OH268497   3.275   5.509  12.012 -0.3325 -0.5754 -0.4992
15669TIP3    H168498   3.309   5.592  12.046  1.2374 -0.4992 -2.0736
15669TIP3    H268499   3.251   5.529  11.921 -4.3415 -0.7545  0.3429
15670TIP3   OH268500   6.550   0.569   5.829 -0.4578  0.8322  0.0680
15670TIP3    H168501   6.528   0.476   5.820  0.2004  0.7926 -1.5636
15670TIP3    H268502   6.626   0.581   5.772 -0.1350  2.2480  0.7483
15671TIP3   OH268503   0.101   4.004   0.884  0.3448  0.6074 -0.1915
15671TIP3    H168504   0.056   4.059   0.820  0.4000  0.2280 -0.5638
15671TIP3    H268505   0.049   3.923   0.887 -1.1651  1.5671  2.1686
15672TIP3   OH268506   2.908   4.403   0.075 -0.3369 -0.2969 -0.5983
15672TIP3    H168507   2.898   4.490   0.035 -1.7308 -0.7828 -1.3677
15672TIP3    H268508   2.955   4.419   0.156 -1.7067  1.3520 -0.0815
15673TIP3   OH268509   0.037   2.113  17.144 -0.2944 -0.2353  0.2557
15673TIP3    H168510  -0.002   2.195  17.113 -0.1803  0.4575  1.8744
15673TIP3    H268511   0.011   2.049  17.078 -0.7879  0.9965 -0.7984
15674TIP3   OH268512   0.602   6.276   2.152 -0.0013  0.2477  0.2194
15674TIP3    H168513   0.533   6.216   2.122  0.2318 -0.0781  0.3342
15674TIP3    H268514   0.557   6.360   2.161 -0.2855  0.1372 -0.1343
15675TIP3   OH268515   6.236   0.842   6.681 -0.5768  0.1164  0.0991
15675TIP3    H168516   6.296   0.797   6.621 -0.9175 -0.2545  0.0339
15675TIP3    H268517   6.292   0.868   6.754 -0.3173 -0.1545  0.0021
15676TIP3   OH268518   2.725   4.393   3.174  0.2035  0.3132  0.0355
15676TIP3    H168519   2.722   4.488   3.168 -2.3924  0.2494 -1.1641
15676TIP3    H268520   2.642   4.369   3.216  0.0063 -1.4588 -1.2592
15677TIP3   OH268521   5.922   6.353   5.320  0.6442  0.2478 -0.0994
15677TIP3    H168522   5.928   6.388   5.409  0.0229 -1.1744  0.5361
15677TIP3    H268523   6.002   6.384   5.277  2.6652 -1.6667  1.9692
15678TIP3   OH268524   3.770   3.570   4.538 -0.1290  0.4579  0.2744
15678TIP3    H168525   3.717   3.650   4.539 -1.1668 -0.1894 -0.7827
15678TIP3    H268526   3.829   3.581   4.464 -1.5300 -0.5102 -1.0327
15679TIP3   OH268527   6.299   6.202  12.017 -0.6381 -0.1245 -0.2988
15679TIP3    H168528   6.378   6.211  12.070 -1.8317  0.2607  1.5301
15679TIP3    H268529   6.317   6.252  11.938  0.4846  1.0556  0.6569
15680TIP3   OH268530   0.473   0.141   6.388 -0.2477  0.1008 -0.2581
15680TIP3    H168531   0.380   0.141   6.407 -0.5138 -2.0637 -1.3350
15680TIP3    H268532   0.514   0.108   6.468 -0.3401  1.1982  0.2717
15681TIP3   OH268533   5.843   6.556  14.347  0.1917  0.0123 -0.1072
15681TIP3    H168534   5.846   6.505  14.266  0.0155 -1.5442  0.8380
15681TIP3    H268535   5.755   6.595  14.346  0.1149 -0.1593 -0.5575
15682TIP3   OH268536   0.500   2.169  13.766 -0.0068  0.0787 -0.4420
15682TIP3    H168537   0.425   2.125  13.727  0.3078 -0.3541 -0.5697
15682TIP3    H268538   0.521   2.116  13.844  1.2493 -0.8601 -1.3670
15683TIP3   OH268539   4.452   5.966  15.417 -0.5339 -0.0696 -0.1175
15683TIP3    H168540   4.449   6.062  15.425 -0.0321  0.0449 -1.1219
15683TIP3    H268541   4.418   5.949  15.329 -2.9144 -1.0019  0.8813
15684TIP3   OH268542   3.530   4.408   4.791  0.0594 -0.1696 -0.5201
15684TIP3    H168543   3.451   4.400   4.844  0.9528 -0.3274  0.8119
15684TIP3    H268544   3.602   4.415   4.854  1.0240  1.0327 -1.6950
15685TIP3   OH268545   2.304   6.278  13.433  0.2872  0.3697 -0.2813
15685TIP3    H168546   2.363   6.247  13.501  0.5237 -0.2202 -0.7500
15685TIP3    H268547   2.329   6.369  13.420  0.4228  0.4103  0.2212
15686TIP3   OH268548   0.536   5.553   0.740  0.7223 -0.3242 -0.8258
15686TIP3    H168549   0.508   5.491   0.672  0.1023 -0.1503 -0.7382
15686TIP3    H268550   0.487   5.633   0.722  2.0591  0.4056 -1.3700
15687TIP3   OH268551   2.401   6.696  11.928 -0.3585 -0.4160 -0.1111
15687TIP3    H168552   2.345   6.772  11.911 -0.6596  0.0335  2.5472
15687TIP3    H268553   2.448   6.683  11.846 -3.8372 -0.4239 -2.3581
15688TIP3   OH268554   1.647   1.126  17.103 -0.2304 -0.0912 -0.5718
15688TIP3    H168555   1.724   1.125  17.045  0.4460 -2.9652  0.2073
15688TIP3    H268556   1.574   1.146  17.046  0.8810  0.9978 -1.6716
15689TIP3   OH268557   6.420   0.079   3.366 -0.0990  0.5168  0.1946
15689TIP3    H168558   6.387   0.162   3.401 -1.4306 -0.8922  2.5222
15689TIP3    H268559   6.352   0.015   3.388  1.8488 -1.5904  0.4530
15690TIP3   OH268560   3.872   3.867  14.922  0.0765  0.2156  0.6955
15690TIP3    H168561   3.838   3.955  14.940  1.1888  1.5058 -2.7349
15690TIP3    H268562   3.966   3.880  14.909  0.6273 -1.8975  2.0130
15691TIP3   OH268563   0.728   0.899   4.505  0.2863  0.7506 -0.1956
15691TIP3    H168564   0.799   0.884   4.443 -1.3506 -0.5986 -1.8938
15691TIP3    H268565   0.658   0.937   4.452 -1.8481 -2.1451  0.3230
15692TIP3   OH268566   5.538   0.230  10.982  0.5319  0.0501  0.8641
15692TIP3    H168567   5.453   0.209  11.020  1.2088 -1.5891  1.5769
15692TIP3    H268568   5.538   0.186  10.897 -0.4310  2.5282 -0.4964
15693TIP3   OH268569   4.912   1.472  13.046  0.0296  0.1913  0.3926
15693TIP3    H168570   4.959   1.399  13.007  2.7105  2.3191 -0.6839
15693TIP3    H268571   4.904   1.536  12.975 -0.0098  1.9119  1.8770
15694TIP3   OH268572   5.060   2.900  16.109 -0.1601  0.2850 -0.3632
15694TIP3    H168573   5.091   2.826  16.161  0.1536  0.1349 -0.7510
15694TIP3    H268574   5.018   2.958  16.172 -0.8213 -0.4381 -0.1223
15695TIP3   OH268575   3.128   5.454  13.221 -0.2751 -0.2166  0.4847
15695TIP3    H168576   3.100   5.379  13.168  1.4596 -0.9951  0.5959
15695TIP3    H268577   3.087   5.530  13.180  0.8293 -0.8053 -1.8761
15696TIP3   OH268578   2.230   2.603   4.320 -0.2111  0.0206  0.6448
15696TIP3    H168579   2.180   2.653   4.255  0.9362 -0.9357 -1.0591
15696TIP3    H268580   2.193   2.515   4.316  1.3880 -0.6739 -0.5548
15697TIP3   OH268581   4.759   5.139   4.345  0.1831  0.4961  0.0764
15697TIP3    H168582   4.698   5.153   4.417 -0.2833 -1.9057  0.2482
15697TIP3    H268583   4.844   5.132   4.387 -0.0008 -0.2494  0.3404
15698TIP3   OH268584   5.797   4.609   4.554 -0.5366  0.6171 -0.2425
15698TIP3    H168585   5.888   4.578   4.551 -0.1689  1.6865 -0.9802
15698TIP3    H268586   5.752   4.559   4.485 -0.5163  0.0921  0.1185
15699TIP3   OH268587   1.876   5.379  11.992  0.1258  0.9547  0.2421
15699TIP3    H168588   1.786   5.376  11.959  0.4342 -2.4998 -0.6314
15699TIP3    H268589   1.925   5.424  11.924 -0.7329  1.9640  0.2582
15700TIP3   OH268590   3.227   1.708   1.249  0.1953  0.2180  0.0410
15700TIP3    H168591   3.322   1.717   1.263  0.1146  1.1618  0.0140
15700TIP3    H268592   3.213   1.743   1.161 -0.6534  3.5527  1.3499
15701TIP3   OH268593   4.221   1.740  15.098 -0.1319 -0.0186  0.1543
15701TIP3    H168594   4.247   1.649  15.081  2.4939  0.7471 -0.3124
15701TIP3    H268595   4.135   1.748  15.056 -0.2627 -2.1756 -0.1122
15702TIP3   OH268596   6.479   5.002  16.302  0.0599 -0.3492 -0.4272
15702TIP3    H168597   6.566   5.041  16.292 -1.5309  3.2535 -1.9639
15702TIP3    H268598   6.429   5.036  16.228 -2.7397 -2.1700  0.4729
15703TIP3   OH268599   6.768   3.778  13.368 -0.1046  0.1484 -0.1115
15703TIP3    H168600   6.849   3.817  13.400 -0.2539 -0.3053  0.8611
15703TIP3    H268601   6.725   3.848  13.319  0.7317  0.4800 -0.3783
15704TIP3   OH268602   0.605   0.517  16.220 -0.0344 -0.1277 -0.2849
15704TIP3    H168603   0.578   0.444  16.165  2.7644 -1.8162  0.3739
15704TIP3    H268604   0.572   0.595  16.175 -1.7293 -1.6939 -1.8750
15705TIP3   OH268605   3.062   0.919  14.819 -0.2322 -0.0727 -0.3322
15705TIP3    H168606   3.130   0.854  14.837  0.0932 -0.4294 -2.4963
15705TIP3    H268607   3.111   0.999  14.801  0.2674 -1.2270 -6.1537
15706TIP3   OH268608   4.622   3.043  13.517 -0.0375 -0.5002  0.3442
15706TIP3    H168609   4.558   3.114  13.523  0.9335  0.6717 -1.7817
15706TIP3    H268610   4.603   3.001  13.433 -0.1940 -2.4252  1.2867
15707TIP3   OH268611   4.985   2.552  14.926 -0.1377 -0.3191  0.0433
15707TIP3    H168612   4.922   2.623  14.937 -0.1727 -0.4148  0.4765
15707TIP3    H268613   5.025   2.542  15.013  1.6548  0.8432 -0.5923
15708TIP3   OH268614   0.372   6.607  11.692  0.1765 -0.0439 -0.0236
15708TIP3    H168615   0.345   6.697  11.673  0.8300 -0.1521 -1.6220
15708TIP3    H268616   0.290   6.557  11.694 -0.2677  0.6721  1.6446
15709TIP3   OH268617   6.114   4.794   1.706  0.2510 -0.0378 -0.6075
15709TIP3    H168618   6.019   4.791   1.713  0.3258 -0.2031  0.5142
15709TIP3    H268619   6.140   4.870   1.757  0.6475  0.7465 -1.9467
15710TIP3   OH268620   0.482   2.835   0.079 -1.1062  0.2157 -0.1221
15710TIP3    H168621   0.404   2.851   0.026 -1.1378  0.1644 -0.0908
15710TIP3    H268622   0.449   2.831   0.169 -0.7553  2.7922  0.1927
15711TIP3   OH268623   5.096   5.274  12.964  0.7369 -0.0557 -0.4526
15711TIP3    H168624   5.087   5.242  12.874 -0.2739 -0.9395 -0.0649
15711TIP3    H268625   5.040   5.351  12.969 -0.4732 -0.9113 -0.1948
15712TIP3   OH268626   2.714   5.710  12.793 -0.6581 -0.2015  0.5563
15712TIP3    H168627   2.798   5.667  12.777 -2.5214 -4.0333  0.0503
15712TIP3    H268628   2.703   5.770  12.719  1.0544 -0.5705 -0.0286
15713TIP3   OH268629   3.234   5.834   2.800 -0.0236  0.1767 -0.4933
15713TIP3    H168630   3.211   5.806   2.711  0.8173  0.7134 -0.8954
15713TIP3    H268631   3.223   5.929   2.799  0.0680  0.1950 -0.0496
15714TIP3   OH268632   0.481   2.751   6.067  0.5172  0.4695 -0.0374
15714TIP3    H168633   0.529   2.680   6.109  1.0043  0.8653  0.0857
15714TIP3    H268634   0.453   2.715   5.983 -0.1450 -0.2041  0.4708
15715TIP3   OH268635   0.232   2.845   5.772  0.1834 -0.4779 -0.4753
15715TIP3    H168636   0.322   2.811   5.774  1.5097  2.6117 -1.1177
15715TIP3    H268637   0.203   2.828   5.682  0.4731 -0.7364 -0.5242
15716TIP3   OH268638   4.388   0.101   0.932 -0.0932  0.2057  0.5079
15716TIP3    H168639   4.357   0.158   1.002  0.0034 -0.9460  1.5377
15716TIP3    H268640   4.315   0.098   0.870 -1.2610 -0.7532  1.8306
15717TIP3   OH268641   5.052   2.332  12.356  0.2667 -0.1737 -0.2020
15717TIP3    H168642   5.003   2.250  12.348  1.7326 -1.1271  0.2849
15717TIP3    H268643   5.001   2.384  12.418 -0.0613 -1.2104  0.4325
15718TIP3   OH268644   2.816   2.702   3.052 -0.3701 -0.1024 -0.7271
15718TIP3    H168645   2.892   2.663   3.096 -0.2848  1.4892  0.6242
15718TIP3    H268646   2.750   2.634   3.053  0.0651 -0.5349  0.7816
15719TIP3   OH268647   2.044   0.548   4.708  0.1834 -0.1160  0.0840
15719TIP3    H168648   2.022   0.468   4.756 -1.4000  0.9566  1.2495
15719TIP3    H268649   2.129   0.574   4.743  0.1863 -0.6785  0.5125
15720TIP3   OH268650   3.008   0.371  16.046  0.0488  0.3037  0.2485
15720TIP3    H168651   2.927   0.402  16.006  0.0057  0.6677  0.6070
15720TIP3    H268652   2.986   0.362  16.139  0.5985  1.0500  0.4634
15721TIP3   OH268653   6.648   2.743   5.892 -0.7107 -0.1383  0.0627
15721TIP3    H168654   6.579   2.781   5.947  0.0089 -0.6095  1.3484
15721TIP3    H268655   6.661   2.806   5.822 -2.1253  0.1721  0.0478
15722TIP3   OH268656   5.971   4.397   5.254 -0.3426  0.4141 -0.0976
15722TIP3    H168657   5.927   4.445   5.325 -0.0037  0.9389 -0.2330
15722TIP3    H268658   5.997   4.314   5.294  1.2810  1.3350  0.8917
15723TIP3   OH268659   2.007   0.870   4.697 -0.2236  0.0420  0.6589
15723TIP3    H168660   1.941   0.826   4.642  1.4097 -0.6899 -0.8302
15723TIP3    H268661   1.987   0.841   4.786 -2.3722  0.4754  0.3720
15724TIP3   OH268662   3.700   0.662   3.773 -0.4587 -0.1583 -0.5433
15724TIP3    H168663   3.656   0.592   3.820  0.0137  0.0484  0.2340
15724TIP3    H268664   3.671   0.653   3.682 -0.7787 -1.0508 -0.3583
15725TIP3   OH268665   4.018   6.006  15.390  0.1575  0.5558  0.2926
15725TIP3    H168666   4.073   6.054  15.329  0.3510  0.2875  0.2511
15725TIP3    H268667   4.068   5.925  15.408  0.3645  0.8842  1.2418
15726TIP3   OH268668   0.396   6.075   3.744  0.3663 -0.4159  0.0055
15726TIP3    H168669   0.402   6.054   3.651  1.0505 -2.7855  0.4939
15726TIP3    H268670   0.329   6.016   3.777 -0.5117  1.0261  0.8979
15727TIP3   OH268671   5.978   2.185  16.299  0.6300  0.4595  0.0683
15727TIP3    H168672   5.906   2.247  16.307  1.9146  2.2001 -1.0543
15727TIP3    H268673   5.951   2.124  16.231 -1.8581 -2.1552  3.0359
15728TIP3   OH268674   4.959   1.599   1.952 -0.0671 -0.3429 -0.0313
15728TIP3    H168675   5.046   1.608   1.990 -0.0783 -0.8778  0.1261
15728TIP3    H268676   4.902   1.650   2.009  0.2648  0.7109 -0.6063
15729TIP3   OH268677   6.341   5.402   6.395  0.0632  0.6558  0.2547
15729TIP3    H168678   6.378   5.326   6.349  1.3525 -0.4973  2.9916
15729TIP3    H268679   6.410   5.430   6.455 -1.6673  1.7644  1.8330
15730TIP3   OH268680   0.050   5.930  11.698 -0.8010  0.2362 -1.0374
15730TIP3    H168681   0.080   6.021  11.700  0.5235 -0.1965  0.6025
15730TIP3    H268682   0.055   5.906  11.605 -1.0951  1.7844 -1.4905
15731TIP3   OH268683   2.691   0.405   2.473  0.5774 -0.4511 -0.0705
15731TIP3    H168684   2.701   0.311   2.456  0.3069 -0.1351 -2.1706
15731TIP3    H268685   2.680   0.444   2.387 -0.6677  1.3702  0.8592
15732TIP3   OH268686   5.099   4.625   6.495 -0.0925 -0.6017  0.6151
15732TIP3    H168687   5.117   4.531   6.489  0.4522 -0.4289 -1.1255
15732TIP3    H268688   5.180   4.667   6.467 -0.8971  0.3408 -0.3926
15733TIP3   OH268689   5.179   5.426   4.949  0.0533  0.3144  0.0781
15733TIP3    H168690   5.140   5.425   4.861  0.4638  0.0470 -0.1026
15733TIP3    H268691   5.250   5.489   4.944  0.6805 -0.3892 -0.0500
15734TIP3   OH268692   1.286   5.723   2.257  0.3978  0.5150 -0.2452
15734TIP3    H168693   1.369   5.676   2.266 -0.5228 -1.3098 -0.8125
15734TIP3    H268694   1.278   5.740   2.164 -1.0079 -1.6387 -0.5927
15735TIP3   OH268695   3.085   1.490  16.938  0.4873 -0.4257  0.4890
15735TIP3    H168696   3.064   1.426  16.870 -0.1426 -3.7522  3.4748
15735TIP3    H268697   3.024   1.562  16.923  0.5021 -0.8881 -2.4575
15736TIP3   OH268698   2.114   0.524  14.411 -0.3997 -0.7106  0.4570
15736TIP3    H168699   2.082   0.529  14.321 -1.8947 -0.2637  0.9849
15736TIP3    H268700   2.050   0.574  14.462  1.3803  0.5736  1.5349
15737TIP3   OH268701   6.060   2.194  10.635  0.0792  0.4007 -0.5328
15737TIP3    H168702   5.979   2.239  10.657 -0.0034 -0.7500  1.8741
15737TIP3    H268703   6.035   2.101  10.631  1.2091  0.0540  0.0264
15738TIP3   OH268704   2.798   5.335   5.606 -0.5019 -0.2739 -0.5017
15738TIP3    H168705   2.893   5.347   5.614 -0.2643 -0.8405 -2.0410
15738TIP3    H268706   2.786   5.240   5.605 -1.0007 -0.2067 -1.0733
15739TIP3   OH268707   1.419   2.762  14.402  0.0562 -0.3886 -0.0555
15739TIP3    H168708   1.441   2.734  14.313 -1.2468  1.1624 -0.9121
15739TIP3    H268709   1.343   2.709  14.426 -1.9250  1.6846 -1.3762
15740TIP3   OH268710   5.760   6.173  16.505  0.0628 -0.3118 -0.4533
15740TIP3    H168711   5.838   6.125  16.533 -0.1202 -1.0229 -1.1204
15740TIP3    H268712   5.690   6.140  16.561  0.5131  1.5099  1.2712
15741TIP3   OH268713   2.898   5.966   5.179 -0.3746  0.3848  0.4158
15741TIP3    H168714   2.829   6.018   5.139 -1.1323 -1.0376 -0.1977
15741TIP3    H268715   2.919   5.898   5.114  0.4586 -0.1833  1.2384
15742TIP3   OH268716   1.268   2.688   3.318  0.1415 -0.2799 -0.0311
15742TIP3    H168717   1.196   2.744   3.345 -0.2760 -0.3614 -0.9548
15742TIP3    H268718   1.242   2.600   3.344  0.3646 -0.1789  0.5448
15743TIP3   OH268719   0.591   4.032   5.518 -0.3375 -0.1750  0.1996
15743TIP3    H168720   0.635   4.117   5.520 -1.1072  0.2363 -0.0716
15743TIP3    H268721   0.502   4.050   5.546 -1.3290 -0.3977 -2.5084
15744TIP3   OH268722   1.586   5.735   0.595  0.1843  0.4073 -0.0442
15744TIP3    H168723   1.540   5.730   0.511  0.0978 -0.6107  0.0504
15744TIP3    H268724   1.523   5.700   0.659 -0.3218  2.5639  0.7113
15745TIP3   OH268725   5.188   4.895   2.418  0.4170  0.2578 -0.2687
15745TIP3    H168726   5.124   4.852   2.362  1.8075 -1.0770 -0.9278
15745TIP3    H268727   5.164   4.868   2.507 -1.3210  1.7444 -0.2280
15746TIP3   OH268728   2.035   1.463  16.231  1.2255  0.0641  0.2987
15746TIP3    H168729   2.105   1.528  16.222 -0.5949  2.0107 -0.6391
15746TIP3    H268730   1.999   1.479  16.318  1.8888 -0.9333  0.7763
15747TIP3   OH268731   4.697   3.481  12.582 -0.0733 -0.3571 -0.0346
15747TIP3    H168732   4.784   3.481  12.543  0.4335  0.2683  1.0554
15747TIP3    H268733   4.663   3.568  12.563 -0.4954 -0.6150 -0.4962
15748TIP3   OH268734   4.516   0.850  11.136  0.3457 -0.3837 -0.6276
15748TIP3    H168735   4.461   0.795  11.080  0.1209  1.6226 -2.5083
15748TIP3    H268736   4.526   0.932  11.087  0.8213  1.2080  1.9497
15749TIP3   OH268737   0.840   6.672  16.157 -0.2429 -0.0551 -0.4493
15749TIP3    H168738   0.817   6.617  16.233 -2.2661 -0.6957 -1.4499
15749TIP3    H268739   0.933   6.689  16.168 -0.2505 -0.9548  1.6549
15750TIP3   OH268740   4.786   0.044  13.672  0.6303 -0.1188 -0.5613
15750TIP3    H168741   4.834   0.025  13.591 -2.0698 -1.7778 -1.9217
15750TIP3    H268742   4.708   0.092  13.642 -1.0306 -1.7841  0.8198
15751TIP3   OH268743   2.694   4.839   5.691 -0.0635  0.5507  0.0773
15751TIP3    H168744   2.609   4.836   5.735 -1.0635  1.1850 -1.7217
15751TIP3    H268745   2.679   4.797   5.606  1.3449  0.9673 -0.4161
15752TIP3   OH268746   0.460   1.860   4.476 -0.1424  0.0422 -0.1961
15752TIP3    H168747   0.381   1.885   4.427 -0.2334 -0.0470 -0.0964
15752TIP3    H268748   0.499   1.943   4.501  0.3586  0.1052 -1.1312
15753TIP3   OH268749   3.564   4.305  10.553  0.4616 -0.6646  0.3785
15753TIP3    H168750   3.475   4.284  10.523  0.0061  1.6894 -0.1120
15753TIP3    H268751   3.565   4.400  10.559  2.1210 -0.7404  3.0775
15754TIP3   OH268752   6.763   5.194   3.158  0.2891  0.4268  0.8407
15754TIP3    H168753   6.782   5.268   3.099  1.6296  0.9996  1.9480
15754TIP3    H268754   6.794   5.117   3.110 -1.5629  0.4563 -0.5384
15755TIP3   OH268755   2.952   5.667   5.667 -0.3232 -0.0016 -0.0766
15755TIP3    H168756   2.947   5.603   5.739 -0.6983  1.4787  1.2772
15755TIP3    H268757   2.861   5.686   5.646 -0.2234 -0.7461 -1.2994
15756TIP3   OH268758   6.024   5.470   3.964 -0.0001 -0.8253  0.3151
15756TIP3    H168759   6.066   5.386   3.984  0.8409 -0.7534 -1.0677
15756TIP3    H268760   5.992   5.461   3.875  0.9203  0.6215 -0.2035
15757TIP3   OH268761   2.167   4.972   2.543  0.6354  0.6635 -0.7050
15757TIP3    H168762   2.215   4.995   2.464  2.1042  1.0133  0.2449
15757TIP3    H268763   2.224   4.910   2.589 -0.7789 -0.5594 -0.5452
15758TIP3   OH268764   3.075   0.480   3.218  0.0356 -0.8139 -0.2831
15758TIP3    H168765   3.032   0.561   3.191  2.0986  0.5104  0.1388
15758TIP3    H268766   3.007   0.429   3.259 -1.3651  0.6660 -0.6608
15759TIP3   OH268767   1.346   0.160   0.185 -0.0843 -0.1556 -0.3724
15759TIP3    H168768   1.283   0.232   0.182  1.6182  1.4556  0.5383
15759TIP3    H268769   1.323   0.106   0.109 -1.8394  0.9564 -0.7070
15760TIP3   OH268770   5.759   0.357   0.878 -0.2482  0.2324  1.1138
15760TIP3    H168771   5.667   0.380   0.869 -0.4751  0.3584  3.2522
15760TIP3    H268772   5.764   0.266   0.848 -0.9027  0.4464  0.3114
15761TIP3   OH268773   0.898   2.652   4.135  0.4188 -0.1040  0.3474
15761TIP3    H168774   0.961   2.583   4.152  0.0115 -0.4097  0.6322
15761TIP3    H268775   0.858   2.670   4.221  1.0299  0.9915  0.4290
15762TIP3   OH268776   1.744   4.307  15.461  0.3373  0.4381  0.3106
15762TIP3    H168777   1.775   4.220  15.487 -0.3955 -0.2049 -0.8832
15762TIP3    H268778   1.658   4.316  15.502 -0.1243  0.0737 -0.5435
15763TIP3   OH268779   0.029   6.220   1.162  0.4038 -0.4620  0.0669
15763TIP3    H168780   0.096   6.182   1.220 -0.7032  1.8962  3.1589
15763TIP3    H268781  -0.010   6.290   1.214 -1.1310  1.5026 -3.4379
15764TIP3   OH268782   0.353   3.757  13.182 -0.3269 -0.2971  0.7765
15764TIP3    H168783   0.447   3.773  13.190 -0.1904 -1.3404  1.4971
15764TIP3    H268784   0.329   3.718  13.266 -1.8872  2.1026  1.5210
15765TIP3   OH268785   1.712   4.354   0.726  0.2540  0.5263 -0.2491
15765TIP3    H168786   1.691   4.266   0.756  0.0580  1.3976  2.4952
15765TIP3    H268787   1.753   4.342   0.641 -0.5895 -2.1155 -0.3637
15766TIP3   OH268788   1.421   5.782  12.466  0.3312  0.7691 -0.1077
15766TIP3    H168789   1.426   5.777  12.370 -1.9327 -1.4872 -0.2128
15766TIP3    H268790   1.509   5.762  12.496  0.8823  0.6588 -1.7106
15767TIP3   OH268791   0.723   3.686  13.906 -0.2604  0.8578  0.3344
15767TIP3    H168792   0.741   3.764  13.959  1.2981  0.4815  0.4071
15767TIP3    H268793   0.634   3.700  13.872  0.1370  2.8805 -0.0132
15768TIP3   OH268794   0.544   2.384  12.114 -0.3231  0.6392 -0.5405
15768TIP3    H168795   0.560   2.475  12.087  0.6248  0.6645  0.0711
15768TIP3    H268796   0.617   2.335  12.075  0.4036  0.4918  0.9393
15769TIP3   OH268797   5.773   4.659   1.909  0.7727  0.5218 -0.0902
15769TIP3    H168798   5.738   4.577   1.944  0.5387  1.3065  1.6026
15769TIP3    H268799   5.696   4.713   1.893  0.8994  0.3254 -1.5355
15770TIP3   OH268800   2.449   0.327  12.993  0.1063 -0.9721 -0.4396
15770TIP3    H168801   2.428   0.281  13.074 -3.5636  1.4464  0.2528
15770TIP3    H268802   2.413   0.272  12.924 -1.1511 -0.8212  0.0671
15771TIP3   OH268803   3.227   2.042   2.897 -0.6296  0.4769  0.0191
15771TIP3    H168804   3.177   1.970   2.935 -1.1426 -0.2582 -1.9376
15771TIP3    H268805   3.318   2.014   2.903 -0.7288  0.2111  0.3272
15772TIP3   OH268806   2.064   0.382   3.761  0.1947 -0.1072 -0.6005
15772TIP3    H168807   2.055   0.301   3.811  3.4985  0.5903  1.4522
15772TIP3    H268808   2.158   0.393   3.750 -0.0012  4.0460  0.2979
15773TIP3   OH268809   3.373   3.123   4.484 -0.3150 -0.0671 -0.2099
15773TIP3    H168810   3.395   3.214   4.465 -0.7309  0.2109  0.6168
15773TIP3    H268811   3.278   3.117   4.471 -0.3960 -0.2066  0.3952
15774TIP3   OH268812   6.146   4.530   4.132 -0.4267  0.0110  0.4081
15774TIP3    H168813   6.224   4.562   4.177  0.4981 -1.6591  0.1024
15774TIP3    H268814   6.165   4.540   4.039 -1.1615  0.8493  0.3331
15775TIP3   OH268815   0.763   4.318   3.920  0.0046  0.6151 -0.6603
15775TIP3    H168816   0.705   4.268   3.862 -0.9786 -0.8697  1.4741
15775TIP3    H268817   0.746   4.410   3.898  0.5146  0.1192 -3.4336
15776TIP3   OH268818   1.755   3.008  15.931  0.2088 -0.8113 -0.0883
15776TIP3    H168819   1.678   2.978  15.978  1.0078 -1.1101  1.0942
15776TIP3    H268820   1.724   3.027  15.843 -1.6467  1.0151  0.8584
15777TIP3   OH268821   3.884   5.388   2.750  0.4380 -0.2303 -0.2038
15777TIP3    H168822   3.791   5.393   2.728 -0.1106  0.7387  2.0177
15777TIP3    H268823   3.901   5.295   2.764 -0.1938 -0.4101 -0.5905
15778TIP3   OH268824   6.495   3.320  12.134  0.1173 -0.1918  0.2994
15778TIP3    H168825   6.415   3.362  12.167 -0.6783 -1.4639  0.0804
15778TIP3    H268826   6.541   3.290  12.212 -0.5050 -0.9820  0.3769
15779TIP3   OH268827   0.887   3.950  15.846  0.0447  0.0769  0.1046
15779TIP3    H168828   0.839   3.868  15.845  0.0400  0.0779  0.2704
15779TIP3    H268829   0.962   3.934  15.902 -0.6132  0.5537  1.1604
15780TIP3   OH268830   3.674   0.459   0.917 -0.2813  0.2042  0.2087
15780TIP3    H168831   3.678   0.397   0.843 -2.2380 -1.6609  1.5288
15780TIP3    H268832   3.587   0.497   0.910 -0.3049  0.3560  1.2802
15781TIP3   OH268833   1.390   5.149   1.217  0.0634  0.0711  0.1160
15781TIP3    H168834   1.472   5.185   1.181 -1.0191  0.7957 -1.7951
15781TIP3    H268835   1.334   5.226   1.228 -1.2803 -0.6556 -1.2416
15782TIP3   OH268836   4.010   5.732  14.682 -0.6434  0.1951  0.0613
15782TIP3    H168837   3.934   5.676  14.692 -1.6795  1.4675 -0.3688
15782TIP3    H268838   3.984   5.797  14.616  1.0781  0.2168 -0.6585
15783TIP3   OH268839   5.382   1.394  14.592 -0.2291  0.0298  0.2483
15783TIP3    H168840   5.306   1.348  14.629  1.4491 -3.3676 -0.1743
15783TIP3    H268841   5.374   1.382  14.498  1.9655 -2.6313  0.2766
15784TIP3   OH268842   1.561   1.709  16.106 -0.1732 -0.2870 -0.2015
15784TIP3    H168843   1.620   1.770  16.063  0.3796 -0.3709  0.4146
15784TIP3    H268844   1.515   1.664  16.035  1.8014 -1.5104 -0.7865
15785TIP3   OH268845   6.813   0.140   6.696 -0.2518 -0.9813  0.5763
15785TIP3    H168846   6.867   0.217   6.676 -0.3139 -0.7950  1.1288
15785TIP3    H268847   6.746   0.140   6.627 -0.7781 -0.0359  1.0628
15786TIP3   OH268848   1.057   3.098   0.213 -0.1896 -0.0932 -0.4368
15786TIP3    H168849   1.026   3.023   0.264 -2.1790 -0.7320 -2.4323
15786TIP3    H268850   1.123   3.061   0.154  0.7247  0.2665  0.3468
15787TIP3   OH268851   4.779   5.079  14.120  0.1452 -0.0244  0.4115
15787TIP3    H168852   4.866   5.049  14.146  0.5620  1.3124  0.6584
15787TIP3    H268853   4.732   5.089  14.203 -0.6515 -1.7990  0.2265
15788TIP3   OH268854   3.614   3.542  10.973  0.0415 -0.6876 -0.0948
15788TIP3    H168855   3.645   3.624  10.934 -1.9130  0.7701  1.1896
15788TIP3    H268856   3.677   3.476  10.944  2.2939  1.4245 -0.3762
15789TIP3   OH268857   4.434   3.204   4.562 -0.0875 -0.7393  0.0174
15789TIP3    H168858   4.477   3.144   4.502  3.2636  1.4956 -0.1094
15789TIP3    H268859   4.382   3.262   4.506  1.5629  0.1847 -0.6357
15790TIP3   OH268860   4.475   4.007  11.993  0.5250  0.8467  0.3243
15790TIP3    H168861   4.391   3.978  12.029  0.0248  1.4688 -0.2934
15790TIP3    H268862   4.451   4.052  11.912  1.6276 -0.5696 -0.8229
15791TIP3   OH268863   1.336   4.600   5.554 -0.3827  0.2690  0.1343
15791TIP3    H168864   1.379   4.528   5.508 -1.9922 -1.1842  0.8044
15791TIP3    H268865   1.246   4.598   5.523 -0.4425  2.1402  0.0513
15792TIP3   OH268866   5.857   6.409  13.462  0.1531 -0.0159 -0.0352
15792TIP3    H168867   5.781   6.366  13.423 -1.3335 -0.5562  3.1891
15792TIP3    H268868   5.906   6.338  13.505  1.0875  0.6990  0.1281
15793TIP3   OH268869   4.806   0.415  16.005  0.1599  0.2989  0.0910
15793TIP3    H168870   4.746   0.404  15.932  0.4395 -1.0558  0.0345
15793TIP3    H268871   4.881   0.360  15.983  0.2327 -0.1772  1.4046
15794TIP3   OH268872   0.760   1.544  16.017  0.0849 -0.0571  0.3296
15794TIP3    H168873   0.820   1.483  15.973  1.5714  2.5995 -1.6051
15794TIP3    H268874   0.774   1.527  16.110  1.4554 -1.7104 -0.1028
15795TIP3   OH268875   1.911   0.815  12.823 -0.2009 -0.0318  0.5652
15795TIP3    H168876   1.871   0.780  12.902  1.1514  0.3875  1.4595
15795TIP3    H268877   1.869   0.899  12.809 -0.3964 -0.0770  0.8795
15796TIP3   OH268878   2.778   3.943  14.389 -0.5008  0.0929 -0.3331
15796TIP3    H168879   2.856   3.908  14.432  0.2189  2.7703  0.7523
15796TIP3    H268880   2.743   4.006  14.452 -0.8832  2.3268 -2.6387
15797TIP3   OH268881   3.257   2.210   0.763 -0.6479  0.1662  0.3000
15797TIP3    H168882   3.296   2.297   0.754  1.1381 -0.7344 -1.4298
15797TIP3    H268883   3.260   2.193   0.857 -0.0311  1.5390  0.5580
15798TIP3   OH268884   6.143   3.161   1.661 -0.5812 -0.2755  0.4615
15798TIP3    H168885   6.229   3.173   1.623 -1.7918  1.0042 -2.1320
15798TIP3    H268886   6.156   3.176   1.755  2.7603 -4.6963  0.9865
15799TIP3   OH268887   6.424   5.444  16.796  0.1710  0.1468 -0.2933
15799TIP3    H168888   6.489   5.513  16.805  0.7706 -0.3130 -0.9889
15799TIP3    H268889   6.460   5.386  16.729 -0.2709 -0.8956  0.3468
15800TIP3   OH268890   0.773   3.888   4.274 -0.3323 -0.2084 -0.0117
15800TIP3    H168891   0.795   3.955   4.338 -0.2155 -0.2598  0.0029
15800TIP3    H268892   0.857   3.846   4.253 -0.0151  1.1570 -1.7241
15801TIP3   OH268893   3.926   4.032   2.803 -0.1748 -0.4917 -0.3210
15801TIP3    H168894   3.912   4.123   2.825  1.5682 -0.4444  0.7669
15801TIP3    H268895   4.021   4.018   2.814 -0.5126 -2.6453  0.4975
15802TIP3   OH268896   6.053   0.743  12.396 -0.2322  0.3499 -0.1294
15802TIP3    H168897   6.145   0.767  12.411  0.6220 -0.2621 -3.4794
15802TIP3    H268898   6.058   0.656  12.356 -2.4804 -0.5710  1.4301
15803TIP3   OH268899   2.132   1.762  12.050  0.2026 -0.3361 -0.3411
15803TIP3    H168900   2.040   1.784  12.032  0.3038  0.8561  0.3984
15803TIP3    H268901   2.175   1.765  11.965 -0.3561 -0.4284 -0.6326
15804TIP3   OH268902   2.122   2.821  16.154  0.1902 -0.3826  0.3594
15804TIP3    H168903   2.108   2.905  16.197 -0.6092 -1.2412  1.8802
15804TIP3    H268904   2.049   2.812  16.093 -1.3056 -1.0978  2.1442
15805TIP3   OH268905   0.238   6.185  11.602  0.0481 -0.4056  0.4542
15805TIP3    H168906   0.201   6.197  11.515  0.7650 -0.4255  0.1350
15805TIP3    H268907   0.225   6.269  11.645 -2.7932 -1.1995  1.3378
15806TIP3   OH268908   6.802   6.220  16.202 -0.5048 -0.5671 -0.2588
15806TIP3    H168909   6.864   6.293  16.198 -0.6630 -0.1994  2.2445
15806TIP3    H268910   6.718   6.261  16.224 -0.2397 -1.5235  3.0935
15807TIP3   OH268911   1.373   2.356   3.218 -0.1069  0.1316 -0.6173
15807TIP3    H168912   1.289   2.352   3.264  1.2796 -1.4978  2.0592
15807TIP3    H268913   1.354   2.324   3.130 -1.9381 -2.4452  0.5968
15808TIP3   OH268914   6.316   5.410   5.366  0.4297 -0.0507  0.0357
15808TIP3    H168915   6.233   5.441   5.403 -0.2394 -0.6374 -0.9268
15808TIP3    H268916   6.379   5.480   5.385 -0.3235  0.4834  0.6183
15809TIP3   OH268917   1.647   1.424   5.463 -0.7647 -0.4517 -0.3254
15809TIP3    H168918   1.736   1.441   5.494 -1.2483  1.2315  0.2465
15809TIP3    H268919   1.654   1.429   5.367 -0.1824 -0.7180 -0.3013
15810TIP3   OH268920   2.817   1.522  11.320 -0.4182 -0.2354  0.0079
15810TIP3    H168921   2.767   1.599  11.293 -0.0482  0.1186  0.3150
15810TIP3    H268922   2.858   1.548  11.403 -0.3827 -0.8033  0.1716
15811TIP3   OH268923   4.116   5.062  16.114 -0.1241 -0.5775 -0.2414
15811TIP3    H168924   4.022   5.070  16.099 -0.0187 -0.1042 -0.6934
15811TIP3    H268925   4.124   5.000  16.187 -0.7339 -1.3707 -0.8359
15812TIP3   OH268926   2.161   1.856  15.930 -0.3962 -1.0849  0.0221
15812TIP3    H168927   2.189   1.789  15.993  1.5538 -1.7054 -1.4141
15812TIP3    H268928   2.112   1.807  15.864 -0.1592 -0.8666 -0.3140
15813TIP3   OH268929   2.031   6.636  14.472  0.0142 -0.3495  0.4495
15813TIP3    H168930   2.019   6.618  14.379  0.2660  0.4521  0.2550
15813TIP3    H268931   2.123   6.617  14.489  0.3015  0.7683  0.2251
15814TIP3   OH268932   3.292   1.369  15.419  0.0845 -0.7984 -0.6133
15814TIP3    H168933   3.314   1.397  15.330 -2.9763  0.9669 -0.9803
15814TIP3    H268934   3.233   1.295  15.407 -0.3588 -0.5384 -0.0991
15815TIP3   OH268935   5.658   2.654   5.186 -0.4821  0.0887 -0.2776
15815TIP3    H168936   5.622   2.726   5.135 -0.2426 -0.9884 -2.0640
15815TIP3    H268937   5.726   2.616   5.129 -0.9365 -1.8324  0.3719
15816TIP3   OH268938   3.710   4.646   6.044  0.1298  0.0816  0.6511
15816TIP3    H168939   3.638   4.675   6.099 -0.3428  2.6072 -1.1468
15816TIP3    H268940   3.789   4.677   6.089 -0.0435 -0.4232  1.3181
15817TIP3   OH268941   1.829   6.007  15.809 -0.0564  1.2732  0.4860
15817TIP3    H168942   1.860   6.041  15.893 -0.9169  1.5063  0.7160
15817TIP3    H268943   1.870   6.064  15.744 -1.3964  2.7397  0.8630
15818TIP3   OH268944   2.880   3.328  11.178 -0.1764  0.1018 -0.2785
15818TIP3    H168945   2.953   3.311  11.118  0.8954  0.9333  0.7354
15818TIP3    H268946   2.802   3.319  11.125  0.7212  0.2753 -1.6646
15819TIP3   OH268947   3.521   5.648  12.515 -0.3239 -0.3146 -0.1667
15819TIP3    H168948   3.525   5.555  12.493  0.1002 -0.1761 -0.7022
15819TIP3    H268949   3.585   5.660  12.585 -1.3889 -0.6821  0.9017
15820TIP3   OH268950   2.033   4.478  13.048 -0.0062  0.0176  0.4437
15820TIP3    H168951   1.989   4.559  13.072  0.2329 -0.2126  1.7013
15820TIP3    H268952   2.100   4.466  13.115  0.0870 -1.1202  0.1715
15821TIP3   OH268953   4.633   2.016  12.796 -0.5723  0.1316 -1.0147
15821TIP3    H168954   4.556   1.974  12.834 -0.5809  0.1523 -1.0087
15821TIP3    H268955   4.620   2.010  12.702 -0.6108  0.1890 -1.0135
15822TIP3   OH268956   3.149   0.837  12.059 -0.1737  0.2168  0.1130
15822TIP3    H168957   3.069   0.888  12.071 -0.4176  0.5403 -2.3665
15822TIP3    H268958   3.153   0.780  12.135 -2.2949  0.8078  0.7299
15823TIP3   OH268959   5.344   4.728  13.116 -0.1517  0.8159  0.3132
15823TIP3    H168960   5.324   4.774  13.197  0.2436  0.1203  0.8154
15823TIP3    H268961   5.409   4.662  13.141 -0.6531  0.0295 -0.3991
15824TIP3   OH268962   5.522   2.040  14.994  0.2440 -0.2750  0.3320
15824TIP3    H168963   5.528   1.969  14.930 -0.8043 -1.5260  1.5711
15824TIP3    H268964   5.521   2.120  14.940  1.3802 -1.1646 -1.0977
15825TIP3   OH268965   1.537   0.061  11.711 -0.9675  0.2263  0.2167
15825TIP3    H168966   1.475   0.095  11.646  1.0459  3.2635 -0.3015
15825TIP3    H268967   1.600   0.010  11.660 -0.2262  1.3831 -0.0662
15826TIP3   OH268968   0.934   0.513   2.159 -0.0726 -0.2180 -0.0523
15826TIP3    H168969   0.861   0.499   2.098 -0.8987  0.2285  0.8123
15826TIP3    H268970   0.903   0.581   2.219  1.7951  1.4302 -0.8475
15827TIP3   OH268971   0.749   4.861   3.727  0.2664  0.0061  0.5061
15827TIP3    H168972   0.811   4.855   3.655  0.4876  0.7666  0.6198
15827TIP3    H268973   0.804   4.875   3.805  0.1068 -1.9274  1.0111
15828TIP3   OH268974   1.020   3.407  16.231  0.4851 -0.1659 -0.0532
15828TIP3    H168975   1.041   3.486  16.279  1.8379 -1.1064  0.9869
15828TIP3    H268976   1.099   3.353  16.237 -0.1345 -1.3001 -1.3444
15829TIP3   OH268977   2.855   5.816  11.454  0.5292 -0.2609 -0.0974
15829TIP3    H168978   2.846   5.755  11.527  0.2162  0.6245  0.6265
15829TIP3    H268979   2.945   5.847  11.460  0.6592 -0.5738 -0.4062
15830TIP3   OH268980   3.401   2.325  10.758  0.3535 -0.6430 -0.9544
15830TIP3    H168981   3.434   2.410  10.786 -1.4266  0.1043 -0.9965
15830TIP3    H268982   3.469   2.290  10.701  1.7779  0.0706  0.2456
15831TIP3   OH268983   4.876   6.345   4.557 -0.0164 -0.5266  0.1467
15831TIP3    H168984   4.893   6.252   4.540  0.5841 -0.7578  1.7638
15831TIP3    H268985   4.792   6.363   4.516  0.4356 -1.4657 -1.2361
15832TIP3   OH268986   4.497   3.205   2.723 -0.8257  0.5820  0.0943
15832TIP3    H168987   4.541   3.122   2.708  0.2928  1.4214 -1.7189
15832TIP3    H268988   4.567   3.264   2.753 -1.3042  1.2193 -0.0143
15833TIP3   OH268989   3.288   1.468  14.867 -0.0498 -0.1987 -0.1248
15833TIP3    H168990   3.313   1.435  14.780 -0.4103 -1.9277  0.3977
15833TIP3    H268991   3.215   1.528  14.849  0.9443  0.7480 -1.1522
15834TIP3   OH268992   5.330   0.427  13.963 -0.4706  0.1793 -0.4316
15834TIP3    H168993   5.408   0.442  13.909  0.7493 -0.7949  0.9815
15834TIP3    H268994   5.276   0.504  13.949  0.0885  0.2609 -2.5133
15835TIP3   OH268995   2.309   3.220   0.883  0.2215  0.2512 -0.1121
15835TIP3    H168996   2.377   3.179   0.830 -0.6414  0.8112 -1.6882
15835TIP3    H268997   2.358   3.272   0.948  1.2990  0.2571 -0.9048
15836TIP3   OH268998   5.367   2.187   1.061 -0.3678  0.3252  0.0178
15836TIP3    H168999   5.394   2.100   1.031  1.6576  1.1190 -0.7039
15836TIP3    H269000   5.401   2.193   1.150  3.9244  1.9734 -1.4688
15837TIP3   OH269001   5.334   6.706   6.555  0.5634 -0.4003 -0.5026
15837TIP3    H169002   5.256   6.749   6.590  1.8441  0.8290  0.9669
15837TIP3    H269003   5.395   6.777   6.536  1.1517 -1.2941 -2.1616
15838TIP3   OH269004   0.232   4.801  10.461  0.0769  0.0583  0.2048
15838TIP3    H169005   0.164   4.803  10.393  0.2394 -3.4357 -0.2827
15838TIP3    H269006   0.310   4.836  10.419 -0.0605 -1.1970 -1.1833
15839TIP3   OH269007   6.351   6.005  13.819  0.2885  0.2851 -0.2441
15839TIP3    H169008   6.410   5.935  13.789 -1.1253 -0.8042 -0.5621
15839TIP3    H269009   6.396   6.086  13.792  1.2105 -0.5320 -1.2974
15840TIP3   OH269010   1.668   4.486   4.394  0.1255  0.5187 -0.5174
15840TIP3    H169011   1.639   4.514   4.481  3.1342 -0.6886  1.0264
15840TIP3    H269012   1.720   4.559   4.361 -1.5740  1.2624 -1.7229
15841TIP3   OH269013   1.457   5.551  16.922 -0.4135  0.6061 -0.3500
15841TIP3    H169014   1.517   5.597  16.863  0.9298 -1.4448 -0.6718
15841TIP3    H269015   1.503   5.550  17.006  0.1178 -1.0885 -0.6279
15842TIP3   OH269016   1.620   5.519  12.172 -0.3774 -0.2698  0.0809
15842TIP3    H169017   1.644   5.445  12.228 -1.1895 -2.0414 -1.7829
15842TIP3    H269018   1.553   5.484  12.114 -0.3680  1.7891 -1.2718
15843TIP3   OH269019   2.993   1.989  11.463 -0.8236 -0.7647 -0.7024
15843TIP3    H169020   2.901   2.013  11.473 -0.5189  1.3955 -2.4183
15843TIP3    H269021   3.013   2.007  11.371  2.0118  1.6486  0.2230
15844TIP3   OH269022   3.072   5.969  12.202  0.4974  0.0644 -0.2956
15844TIP3    H169023   3.134   6.002  12.136 -0.0143  0.7549 -0.4441
15844TIP3    H269024   3.003   5.928  12.151 -0.3806  1.4329 -0.2569
15845TIP3   OH269025   3.424   1.442  11.236 -0.6243  0.1926  0.7263
15845TIP3    H169026   3.512   1.466  11.206 -1.4043  0.8187 -1.2294
15845TIP3    H269027   3.368   1.458  11.160 -2.2222 -1.5781  1.4586
15846TIP3   OH269028   2.514   0.057   4.664  0.1105  0.2727  0.1798
15846TIP3    H169029   2.589   0.116   4.649  1.4571 -0.6429  2.6907
15846TIP3    H269030   2.489   0.028   4.576  2.9799  0.3221 -0.7805
15847TIP3   OH269031   5.385   2.501   2.017  0.0794 -0.4980  0.0639
15847TIP3    H169032   5.290   2.514   2.008 -0.0382 -1.2442  0.1467
15847TIP3    H269033   5.393   2.435   2.085  0.7663  1.3684  1.8858
15848TIP3   OH269034   0.306   3.133   5.104 -0.3027 -0.0111 -0.2885
15848TIP3    H169035   0.264   3.152   5.187 -0.8324  1.6483 -0.8910
15848TIP3    H269036   0.286   3.041   5.087  0.5933 -0.6551  1.8087
15849TIP3   OH269037   6.797   2.101   6.018  0.3027  0.5909  0.2718
15849TIP3    H169038   6.746   2.127   6.095 -0.2392 -0.0204  0.1270
15849TIP3    H269039   6.881   2.146   6.029  0.2752  0.4341  1.2808
15850TIP3   OH269040   0.057   3.353  11.247 -0.3242 -0.4775  0.2328
15850TIP3    H169041   0.069   3.371  11.340  1.0752  0.5764 -0.1137
15850TIP3    H269042   0.033   3.438  11.209 -1.9547 -1.1103 -0.2345
15851TIP3   OH269043   2.457   2.709   4.240  0.2122  0.4994  0.0195
15851TIP3    H169044   2.373   2.665   4.250  1.0552 -1.5311 -1.0894
15851TIP3    H269045   2.438   2.787   4.188 -0.8054 -0.7372 -1.5533
15852TIP3   OH269046   5.439   0.806   4.328  0.2764 -0.0858 -0.1880
15852TIP3    H169047   5.380   0.863   4.377 -1.6924 -1.3336 -0.9639
15852TIP3    H269048   5.482   0.864   4.265  0.1593  0.9219  0.6433
15853TIP3   OH269049   5.103   0.248  13.122  0.6980  0.0350 -0.1380
15853TIP3    H169050   5.053   0.267  13.043  0.5844  4.7709  0.7875
15853TIP3    H269051   5.039   0.256  13.193  1.5279 -0.3560  0.6740
15854TIP3   OH269052   6.563   0.199   6.490 -0.8913 -0.1372 -0.1570
15854TIP3    H169053   6.549   0.276   6.546  1.2536 -0.3230  0.7233
15854TIP3    H269054   6.492   0.139   6.513 -0.6853  0.2437  1.5740
15855TIP3   OH269055   3.095   2.235  13.538 -0.1669  0.3149  0.2711
15855TIP3    H169056   3.031   2.275  13.597 -0.6956  0.6544 -0.4989
15855TIP3    H269057   3.180   2.251  13.579 -0.4190  1.7058  0.2841
15856TIP3   OH269058   5.450   2.559  11.593  0.2913 -0.1413 -0.0997
15856TIP3    H169059   5.540   2.527  11.604  0.1568 -0.5372 -0.1186
15856TIP3    H269060   5.447   2.590  11.502  0.8234  1.2485  0.3297
15857TIP3   OH269061   1.494   1.085  16.881 -0.6661  0.1346  0.4309
15857TIP3    H169062   1.544   1.165  16.868  0.7744 -0.4690  1.8657
15857TIP3    H269063   1.504   1.037  16.799 -2.0039  1.6088 -0.6538
15858TIP3   OH269064   6.329   4.145   4.753 -0.2072 -0.5689  0.0405
15858TIP3    H169065   6.422   4.164   4.759 -0.6329  1.3695  2.3116
15858TIP3    H269066   6.300   4.193   4.675  0.3190  1.0384  0.7732
15859TIP3   OH269067   4.771   3.756   0.828  0.0885  0.6681 -0.3880
15859TIP3    H169068   4.804   3.734   0.914  0.0559  2.9543  0.2846
15859TIP3    H269069   4.763   3.852   0.829 -0.3555  0.7246 -2.7591
15860TIP3   OH269070   6.775   5.666  16.781 -0.2809  0.3812 -0.1416
15860TIP3    H169071   6.712   5.705  16.720  0.8760 -0.5729 -2.0487
15860TIP3    H269072   6.725   5.655  16.862 -2.7123 -0.5791 -1.6227
15861TIP3   OH269073   6.399   4.376  10.605 -0.0528  0.7367 -0.0254
15861TIP3    H169074   6.320   4.415  10.568 -0.8011 -0.4839  0.2293
15861TIP3    H269075   6.433   4.442  10.666 -1.0357  1.1538  0.0819
15862TIP3   OH269076   1.261   5.804  14.419  0.1741  0.2722  0.1076
15862TIP3    H169077   1.193   5.867  14.395  0.8506  0.7886 -0.5231
15862TIP3    H269078   1.335   5.859  14.447  0.6702 -0.2433 -0.1641
15863TIP3   OH269079   3.617   2.465  13.919  0.1138  0.1038 -0.1967
15863TIP3    H169080   3.641   2.374  13.932  1.5411  0.7469  2.4951
15863TIP3    H269081   3.545   2.480  13.980  0.2283  0.9016 -0.2443
15864TIP3   OH269082   3.850   2.949   4.147  0.6956  0.4914 -0.4941
15864TIP3    H169083   3.923   2.980   4.095  0.8118  0.1763 -0.5187
15864TIP3    H269084   3.866   2.985   4.235  0.5682  0.9108 -0.6417
15865TIP3   OH269085   1.392   3.335  11.212  0.0354  0.5327 -0.4606
15865TIP3    H169086   1.449   3.259  11.201 -0.9088  0.1158 -2.9924
15865TIP3    H269087   1.414   3.393  11.139 -1.8534  0.9717 -0.7143
15866TIP3   OH269088   2.664   2.476   2.979 -0.2622  0.3007 -0.1623
15866TIP3    H169089   2.756   2.451   2.967 -0.6289 -1.7542  0.8854
15866TIP3    H269090   2.626   2.404   3.030 -2.3470  1.3414 -0.1503
15867TIP3   OH269091   2.431   6.396   4.047 -0.0736  0.4494  0.0189
15867TIP3    H169092   2.526   6.408   4.037  0.2190 -1.0960  0.7564
15867TIP3    H269093   2.422   6.340   4.123 -1.6974  2.1928  1.1757
15868TIP3   OH269094   1.449   4.526   3.456 -0.2550 -0.3474  0.1896
15868TIP3    H169095   1.402   4.598   3.499 -1.3863 -1.5414  1.0322
15868TIP3    H269096   1.393   4.502   3.382 -0.1519 -0.6871  0.2189
15869TIP3   OH269097   1.457   0.504   4.131  0.2713 -0.8252  0.2997
15869TIP3    H169098   1.417   0.457   4.205  2.0299  0.3825  2.1073
15869TIP3    H269099   1.519   0.442   4.094  1.2821 -0.5742  1.5339
15870TIP3   OH269100   3.397   4.564   4.135  0.4711 -0.4638 -0.2302
15870TIP3    H169101   3.413   4.492   4.074 -1.6265 -1.5432  0.3931
15870TIP3    H269102   3.303   4.559   4.154  0.2714  2.3318  0.0023
15871TIP3   OH269103   1.567   6.693  16.053 -0.4365  0.0517 -0.1825
15871TIP3    H169104   1.652   6.738  16.051 -0.3958  0.2380  2.5147
15871TIP3    H269105   1.590   6.600  16.046 -0.0926  0.1495 -0.4217
15872TIP3   OH269106   3.850   5.690  15.884  0.3707  0.2026 -0.4845
15872TIP3    H169107   3.846   5.701  15.979  1.9832  0.8522 -0.4783
15872TIP3    H269108   3.893   5.769  15.852  1.3247 -0.7277 -1.5827
15873TIP3   OH269109   1.096   3.398   4.784  0.2335 -0.2171 -0.2093
15873TIP3    H169110   1.118   3.467   4.721 -1.3747  0.0255 -0.5332
15873TIP3    H269111   1.011   3.364   4.755 -0.2291 -0.5584  1.4415
15874TIP3   OH269112   0.561   4.481   3.581 -0.1782 -0.3533  0.0606
15874TIP3    H169113   0.598   4.459   3.496 -1.3331 -0.2178 -0.5044
15874TIP3    H269114   0.605   4.423   3.642  2.5737  1.2825 -0.1894
15875TIP3   OH269115   0.006   4.182  11.887  0.2496 -0.2373 -0.1168
15875TIP3    H169116  -0.068   4.141  11.841 -1.5745  2.3641  0.2607
15875TIP3    H269117  -0.000   4.150  11.976 -0.7554  0.3011  0.0229
15876TIP3   OH269118   3.747   5.254  14.308 -0.0842 -0.2039  0.4339
15876TIP3    H169119   3.778   5.203  14.383  2.7866 -1.9624 -1.7641
15876TIP3    H269120   3.783   5.342  14.323  1.1247 -0.7347  0.7690
15877TIP3   OH269121   1.141   1.422  10.585 -0.1219  0.1322 -0.0583
15877TIP3    H169122   1.212   1.484  10.602  0.6969 -1.0766  1.1228
15877TIP3    H269123   1.065   1.459  10.629  0.2901  0.4193  0.4141
15878TIP3   OH269124   4.342   3.247  17.153 -0.0380  0.0641 -0.2202
15878TIP3    H169125   4.359   3.217  17.064 -0.3675 -2.0562  0.3906
15878TIP3    H269126   4.298   3.174  17.196 -0.1207  1.1291  1.6257
15879TIP3   OH269127   2.117   2.992  13.944 -0.2456 -0.2612  0.5199
15879TIP3    H169128   2.097   2.948  13.861 -1.2505  0.8658  0.1318
15879TIP3    H269129   2.149   2.922  14.000  0.0361 -1.1353 -0.6763
15880TIP3   OH269130   3.925   0.738  14.974 -0.6369 -0.0604  0.6627
15880TIP3    H169131   3.913   0.650  14.939 -0.9858 -0.3420  1.4794
15880TIP3    H269132   3.969   0.725  15.058 -0.2362  0.5777  0.5614
15881TIP3   OH269133   5.684   5.525  13.156 -0.6028  0.0129 -0.2627
15881TIP3    H169134   5.740   5.582  13.209  0.6506 -0.1965 -1.3057
15881TIP3    H269135   5.652   5.582  13.086  0.4130 -0.4602 -1.1389
15882TIP3   OH269136   3.977   6.634   3.390 -0.4106 -0.0249 -0.4591
15882TIP3    H169137   4.016   6.708   3.436 -0.9287  0.1082 -0.2273
15882TIP3    H269138   3.898   6.613   3.441 -0.2414 -0.7658 -0.4946
15883TIP3   OH269139   1.498   5.389   5.540 -0.0417 -0.5484 -0.2915
15883TIP3    H169140   1.543   5.322   5.591 -1.7478 -1.8068 -0.3290
15883TIP3    H269141   1.493   5.465   5.598  3.3658  0.2198 -0.8171
15884TIP3   OH269142   6.519   0.950   1.640 -0.1078 -0.1279 -0.3377
15884TIP3    H169143   6.466   1.015   1.686 -0.9228 -0.8516 -0.2279
15884TIP3    H269144   6.540   0.885   1.707  0.1744 -0.3005 -0.5895
15885TIP3   OH269145   3.794   4.620  11.927  0.6457 -0.5056 -0.4855
15885TIP3    H169146   3.751   4.539  11.900 -0.5584 -0.4156  0.9981
15885TIP3    H269147   3.867   4.591  11.981 -1.3001 -0.7065  2.2724
15886TIP3   OH269148   3.149   4.920  11.989  0.6275 -0.0306  0.1804
15886TIP3    H169149   3.209   4.928  12.063  1.1886  0.4486 -0.3185
15886TIP3    H269150   3.189   4.972  11.919 -0.7684  0.9643  0.0815
15887TIP3   OH269151   3.258   5.065  15.452 -0.2240  0.0610  0.2994
15887TIP3    H169152   3.188   5.085  15.514  0.0278  2.4206 -0.0940
15887TIP3    H269153   3.293   5.151  15.426 -0.0420 -0.8322 -2.8109
15888TIP3   OH269154   3.919   3.409   1.119 -0.1208 -0.2441  0.1874
15888TIP3    H169155   3.948   3.482   1.065 -0.9528 -0.2878 -0.3314
15888TIP3    H269156   3.930   3.332   1.064  0.7210 -0.5253  0.7222
15889TIP3   OH269157   5.433   3.897   2.223 -0.4443  0.2979  0.0569
15889TIP3    H169158   5.365   3.832   2.237 -0.7846  0.7779  0.6467
15889TIP3    H269159   5.437   3.908   2.128 -1.2519  0.3265  0.0237
15890TIP3   OH269160   1.427   3.876  16.998  0.4551 -0.0651 -0.4635
15890TIP3    H169161   1.489   3.804  16.984  1.6407  0.4877  1.4913
15890TIP3    H269162   1.456   3.945  16.938  1.2305 -0.1234 -0.1662
15891TIP3   OH269163   5.064   5.464  13.416 -0.1842  0.2457  0.0469
15891TIP3    H169164   5.051   5.414  13.336 -1.2824 -0.1656  0.4656
15891TIP3    H269165   5.009   5.541  13.407 -1.4324 -0.4964  0.9725
15892TIP3   OH269166   0.007   6.300   4.031  0.0979 -0.1647 -0.2043
15892TIP3    H169167  -0.086   6.279   4.019  0.0691  0.5683 -1.3579
15892TIP3    H269168   0.010   6.396   4.031  0.5887 -0.1123  2.1657
15893TIP3   OH269169   4.910   0.150  14.679 -0.0574  0.3431  0.5338
15893TIP3    H169170   4.851   0.173  14.751 -2.8428  1.2478 -1.8466
15893TIP3    H269171   4.908   0.226  14.621  0.7019 -0.9901 -1.3489
15894TIP3   OH269172   0.243   3.007   2.318  1.3198  0.6923 -0.0136
15894TIP3    H169173   0.199   2.924   2.338 -0.6556  0.3750 -4.5522
15894TIP3    H269174   0.191   3.073   2.363 -0.8636 -0.1310 -1.1951
15895TIP3   OH269175   5.193   4.539   2.638 -0.1429  0.0482 -0.0958
15895TIP3    H169176   5.287   4.517   2.641 -0.1659  0.0213  0.6963
15895TIP3    H269177   5.165   4.509   2.552  0.0690 -2.1134  0.5242
15896TIP3   OH269178   0.894   5.635  15.476 -0.4988 -0.3756 -0.0676
15896TIP3    H169179   0.967   5.575  15.492  0.3415  0.4942 -0.5497
15896TIP3    H269180   0.933   5.722  15.480 -1.7060  0.1620  0.6712
15897TIP3   OH269181   1.956   5.044  16.138 -0.4661  0.5953 -0.3967
15897TIP3    H169182   1.987   5.076  16.222  3.2050 -1.9577 -0.5561
15897TIP3    H269183   1.997   5.102  16.074  0.2059  0.0270 -0.4923
15898TIP3   OH269184   5.258   1.770  15.802 -0.5255 -0.3348  0.0700
15898TIP3    H169185   5.283   1.762  15.894 -2.0944  2.2298  0.8358
15898TIP3    H269186   5.336   1.806  15.759 -0.3287  0.0915  0.7627
15899TIP3   OH269187   4.321   4.575   2.188  0.2729 -0.1393  0.5443
15899TIP3    H169188   4.305   4.544   2.277 -1.6647 -1.2714 -0.1244
15899TIP3    H269189   4.287   4.665   2.187  2.3516  0.7304  1.4661
15900TIP3   OH269190   4.951   1.366   3.715 -0.5133 -0.3085  0.7351
15900TIP3    H169191   4.906   1.296   3.667  0.0264  0.3184 -0.7210
15900TIP3    H269192   4.904   1.446   3.691  1.9505  0.5455 -1.7441
15901TIP3   OH269193   6.009   6.510  11.476 -0.3016  0.2907  0.3834
15901TIP3    H169194   5.998   6.582  11.538  1.6132 -0.0211  1.1837
15901TIP3    H269195   6.052   6.551  11.401 -2.5307  0.6482 -0.7770
15902TIP3   OH269196   3.066   5.575  17.100 -0.0066 -0.6147 -0.3346
15902TIP3    H169197   3.112   5.550  17.020  0.7307 -1.9387  0.4496
15902TIP3    H269198   3.128   5.556  17.170 -0.4150  1.0721  0.5295
15903TIP3   OH269199   2.124   5.719  11.216 -0.1613  0.1538  0.4894
15903TIP3    H169200   2.080   5.686  11.137  0.3267 -0.6600  0.5407
15903TIP3    H269201   2.078   5.799  11.238 -1.4061 -0.5036  0.3561
15904TIP3   OH269202   2.985   3.438  12.289 -0.0684  0.0431 -0.4306
15904TIP3    H169203   2.997   3.503  12.220  0.9775  0.5164  0.1679
15904TIP3    H269204   2.893   3.413  12.283 -0.3435  1.1347 -1.0511
15905TIP3   OH269205   1.460   5.731  16.494  0.4905  0.1050 -0.0730
15905TIP3    H169206   1.389   5.669  16.513  0.5298  0.1753  0.3150
15905TIP3    H269207   1.461   5.790  16.569  1.5329 -0.4186  0.3438
15906TIP3   OH269208   1.409   1.547   5.536 -0.3888  0.8883  0.0966
15906TIP3    H169209   1.345   1.496   5.487  0.4917 -0.1143 -0.0405
15906TIP3    H269210   1.491   1.498   5.527  0.0648  1.3341  1.5379
15907TIP3   OH269211   3.291   4.275  17.153 -0.5364 -0.0294  0.0016
15907TIP3    H169212   3.292   4.334  17.078 -2.2021 -0.0579 -0.0682
15907TIP3    H269213   3.384   4.265  17.176 -0.2150  2.9882  0.3613
15908TIP3   OH269214   4.636   1.871  11.404 -0.1549  0.5144 -0.2702
15908TIP3    H169215   4.656   1.839  11.316 -0.3647 -0.9405  0.1820
15908TIP3    H269216   4.543   1.893  11.402 -0.6689 -1.4482  0.1046
15909TIP3   OH269217   0.608   1.431   5.188 -0.2181  0.0338 -0.3270
15909TIP3    H169218   0.634   1.503   5.130  0.7733 -0.5947 -0.6957
15909TIP3    H269219   0.571   1.475   5.265  0.2084  0.9351 -0.6176
15910TIP3   OH269220   3.104   0.724  16.756  0.2425 -0.2896 -0.1765
15910TIP3    H169221   3.165   0.755  16.688 -0.4335  0.6650 -0.3679
15910TIP3    H269222   3.021   0.765  16.733  0.1565  0.6088  1.6330
15911TIP3   OH269223   1.612   1.794   0.365 -0.0996  0.1252 -0.2466
15911TIP3    H169224   1.620   1.835   0.452  0.2772 -2.6570  1.1330
15911TIP3    H269225   1.702   1.774   0.340 -0.2209  0.8211 -1.2656
15912TIP3   OH269226   4.100   4.283   5.609 -0.1927  0.1909 -0.0517
15912TIP3    H169227   4.012   4.291   5.646 -0.6940 -0.8988 -0.9464
15912TIP3    H269228   4.088   4.295   5.515  0.5812 -0.2303 -0.2123
15913TIP3   OH269229   5.556   4.562   1.682  0.1246  0.3534 -0.1481
15913TIP3    H169230   5.574   4.656   1.678  0.7292  0.3889  2.0283
15913TIP3    H269231   5.503   4.544   1.604 -0.6180  2.6275 -0.2432
15914TIP3   OH269232   0.955   4.364   2.275  0.4278  0.1979 -0.4935
15914TIP3    H169233   0.864   4.372   2.303  0.6633 -1.6529  0.9343
15914TIP3    H269234   0.953   4.301   2.203  0.7282 -1.0510  0.5615
15915TIP3   OH269235   4.409   1.944  15.088 -0.4760  0.2392  0.4194
15915TIP3    H169236   4.435   1.951  14.996  0.9829  0.3744  0.8185
15915TIP3    H269237   4.333   1.887  15.087 -1.4907  1.5256 -1.0453
15916TIP3   OH269238   4.707   5.401   1.783  0.3969 -0.2644  0.2024
15916TIP3    H169239   4.683   5.467   1.718  1.5718 -0.3071 -0.2991
15916TIP3    H269240   4.722   5.451   1.863  4.0529  0.5840 -0.8153
15917TIP3   OH269241   0.565   5.928  14.223 -0.2524  0.0879  0.5566
15917TIP3    H169242   0.564   5.887  14.137  0.6592 -2.1715  1.5335
15917TIP3    H269243   0.492   5.887  14.270 -0.1193  0.5577  1.1933
15918TIP3   OH269244   5.443   0.592   4.503  0.5703 -1.1182  0.3371
15918TIP3    H169245   5.455   0.513   4.450 -2.3119 -0.9853 -0.6923
15918TIP3    H269246   5.447   0.664   4.440 -1.0641 -0.8236  0.5087
15919TIP3   OH269247   4.512   0.294  16.134 -0.3093 -0.2915 -0.0033
15919TIP3    H169248   4.536   0.386  16.145 -1.4508  0.2760 -1.7865
15919TIP3    H269249   4.419   0.297  16.109 -0.2386 -1.8944 -0.5460
15920TIP3   OH269250   5.104   4.730   0.406 -0.3097 -0.1773 -0.5429
15920TIP3    H169251   5.198   4.715   0.412 -0.4428 -0.4600  1.9313
15920TIP3    H269252   5.075   4.675   0.333  1.1922 -1.4509 -0.2193
15921TIP3   OH269253   3.165   1.963   6.311 -0.7810 -0.0919  0.0387
15921TIP3    H169254   3.132   1.874   6.306 -4.1926  1.0928 -2.6990
15921TIP3    H269255   3.087   2.017   6.323  1.1298  2.5851  1.4500
15922TIP3   OH269256   2.120   3.792   5.312  0.0429  0.0715  0.3661
15922TIP3    H169257   2.203   3.839   5.318 -0.3944  1.2944 -1.8866
15922TIP3    H269258   2.063   3.851   5.263 -1.6166 -1.4576  0.3636
15923TIP3   OH269259   1.034   4.614  12.412  0.0244  0.2361  0.1303
15923TIP3    H169260   1.009   4.539  12.467 -0.3740 -1.0036 -1.6579
15923TIP3    H269261   1.119   4.590  12.376  0.0913  0.8378 -0.1214
15924TIP3   OH269262   0.875   5.536  16.873 -0.0143  0.2846 -0.1232
15924TIP3    H169263   0.912   5.448  16.878 -2.4688 -0.7466  2.0229
15924TIP3    H269264   0.888   5.573  16.960 -1.9077  0.7372  0.0109
15925TIP3   OH269265   5.429   0.419   5.108 -0.7171  0.4504 -0.2073
15925TIP3    H169266   5.381   0.348   5.066 -0.8273  1.3224 -1.6443
15925TIP3    H269267   5.408   0.496   5.055  1.5494  1.0332 -0.3601
15926TIP3   OH269268   5.848   2.257  12.217 -0.2476 -0.3121  0.3550
15926TIP3    H169269   5.850   2.344  12.257 -0.4129 -0.1357 -0.0110
15926TIP3    H269270   5.755   2.236  12.209 -0.2113 -0.4715  0.3322
15927TIP3   OH269271   3.927   5.622   4.591 -1.0263  0.1097  0.6336
15927TIP3    H169272   4.008   5.575   4.578 -1.2861 -0.1016 -0.2294
15927TIP3    H269273   3.900   5.650   4.504 -2.1537 -0.2773  0.8443
15928TIP3   OH269274   0.807   0.164   2.045  0.5115  0.3157 -0.3897
15928TIP3    H169275   0.851   0.198   2.123  0.2908 -0.5096  0.1154
15928TIP3    H269276   0.827   0.070   2.046 -1.4470 -0.1411  0.0114
15929TIP3   OH269277   5.183   5.693  16.699 -0.2359  0.4094  0.3508
15929TIP3    H169278   5.196   5.702  16.604 -1.5729  1.2361  0.2322
15929TIP3    H269279   5.254   5.746  16.737  0.3599  0.0075 -0.1666
15930TIP3   OH269280   2.698   5.377   4.084 -0.5013  0.4366  0.2235
15930TIP3    H169281   2.672   5.390   4.175 -1.0338  0.0124  0.1363
15930TIP3    H269282   2.695   5.282   4.072  2.1099  0.2434  0.5024
15931TIP3   OH269283   5.715   3.559   2.095 -0.5023 -0.0155  0.0835
15931TIP3    H169284   5.735   3.651   2.079  2.1536 -0.1801  1.7518
15931TIP3    H269285   5.686   3.525   2.011  0.4107  1.9172 -1.0671
15932TIP3   OH269286   4.321   3.077   3.263 -0.0852 -0.0911  0.0080
15932TIP3    H169287   4.314   3.088   3.168  1.5285 -0.4777 -0.1725
15932TIP3    H269288   4.408   3.109   3.285  0.2265 -1.5677  1.1053
15933TIP3   OH269289   2.153   0.923   2.125 -0.0804  0.3687 -0.0507
15933TIP3    H169290   2.076   0.935   2.180  0.8860 -0.5461  1.5952
15933TIP3    H269291   2.207   1.001   2.143  0.2240  0.0812  0.3106
15934TIP3   OH269292   2.872   1.797   3.545 -0.0522  0.0505 -0.4042
15934TIP3    H169293   2.897   1.752   3.465  0.0590 -2.3377  0.8730
15934TIP3    H269294   2.781   1.824   3.530  0.2348  0.4015 -1.6127
15935TIP3   OH269295   6.802   0.005  15.012 -0.1950  0.0255 -0.2221
15935TIP3    H169296   6.854  -0.040  14.945  0.5648  2.0461 -1.0978
15935TIP3    H269297   6.751   0.070  14.962 -1.6598 -0.2206  0.9001
15936TIP3   OH269298   4.639   1.530  13.269  0.1933 -0.1492 -0.2596
15936TIP3    H169299   4.569   1.522  13.204  1.4202  0.1803 -1.6949
15936TIP3    H269300   4.693   1.602  13.236  0.9249 -0.0595  1.0792
15937TIP3   OH269301   4.048   6.670   1.607 -0.1255 -0.0557  0.1919
15937TIP3    H169302   4.030   6.626   1.524  0.9888 -1.9030  0.8684
15937TIP3    H269303   4.115   6.735   1.587  2.6227 -2.7161  0.1223
15938TIP3   OH269304   0.006   1.752  16.074 -0.2726  0.4868  0.8902
15938TIP3    H169305  -0.060   1.739  16.006  2.7404 -1.6808 -1.9669
15938TIP3    H269306   0.046   1.836  16.053  1.2955 -0.6014 -0.8415
15939TIP3   OH269307   0.868   0.130  10.823 -0.3880  0.1840  0.1582
15939TIP3    H169308   0.889   0.089  10.740  0.2821  2.5855 -0.9333
15939TIP3    H269309   0.889   0.223  10.811 -0.6024  0.6797  2.8909
15940TIP3   OH269310   1.681   1.529   1.307 -0.3898  0.6029 -0.9405
15940TIP3    H169311   1.730   1.513   1.387  1.6546  1.0355 -2.0296
15940TIP3    H269312   1.625   1.604   1.327 -0.4865  0.2179  0.2905
15941TIP3   OH269313   4.365   2.664   2.196  0.3679  0.0930 -0.4966
15941TIP3    H169314   4.337   2.645   2.286 -0.5361  0.8108 -0.6100
15941TIP3    H269315   4.415   2.745   2.203 -1.5704  1.4006 -0.8924
15942TIP3   OH269316   1.623   5.748  14.115  0.2674 -0.0326 -0.1560
15942TIP3    H169317   1.707   5.733  14.071  0.7458  0.7775  0.4541
15942TIP3    H269318   1.561   5.763  14.044  0.9265  0.7697 -0.5843
15943TIP3   OH269319   1.115   4.235   5.458  0.3124 -0.0035 -0.6080
15943TIP3    H169320   1.185   4.172   5.443  1.2572  0.8895 -0.0134
15943TIP3    H269321   1.122   4.259   5.550  0.3708  1.4336 -0.9631
15944TIP3   OH269322   5.803   5.184   2.800 -0.2650  0.4256  0.5731
15944TIP3    H169323   5.872   5.192   2.867 -1.1556  1.3645  1.4254
15944TIP3    H269324   5.850   5.180   2.717  0.8442  3.4226  0.9074
15945TIP3   OH269325   5.239   3.809  10.427 -0.3422 -0.0433  0.0186
15945TIP3    H169326   5.184   3.731  10.424 -0.0901 -0.2108 -0.3212
15945TIP3    H269327   5.324   3.780  10.392  0.2017  0.0208  1.2372
15946TIP3   OH269328   6.503   0.381  13.649  0.4473 -0.2048  0.4449
15946TIP3    H169329   6.477   0.314  13.585  1.2642 -0.7889  0.7123
15946TIP3    H269330   6.441   0.453  13.634  1.2531  0.1073 -1.7189
15947TIP3   OH269331   2.769   2.676  16.968 -0.2695  0.5291  0.8816
15947TIP3    H169332   2.697   2.738  16.956  0.1894  0.9347  0.0834
15947TIP3    H269333   2.835   2.726  17.016 -1.1774 -0.3776  3.1815
15948TIP3   OH269334   0.297   3.214   2.996  0.1529  0.2731 -0.0315
15948TIP3    H169335   0.264   3.199   2.907  1.6071  0.5440 -0.6423
15948TIP3    H269336   0.389   3.188   2.992  0.3758  0.7969  1.2608
15949TIP3   OH269337   3.446   5.035   0.824  0.2465 -0.0251 -0.1413
15949TIP3    H169338   3.455   5.012   0.917 -0.1471  0.6491  0.0729
15949TIP3    H269339   3.435   4.952   0.779 -1.6903 -0.2466  0.6616
15950TIP3   OH269340   6.737   0.373  14.394 -0.3803  0.1401  0.5208
15950TIP3    H169341   6.722   0.344  14.484  0.6693 -0.4097  0.5440
15950TIP3    H269342   6.757   0.293  14.346  1.0381  0.6293  0.2448
15951TIP3   OH269343   5.167   3.874   2.028  0.1868  0.5971  0.1100
15951TIP3    H169344   5.110   3.798   2.038 -0.6088  1.3605  1.8514
15951TIP3    H269345   5.169   3.891   1.934  1.3477 -2.2517 -0.4814
15952TIP3   OH269346   6.741   6.508   0.649  0.5792 -0.2462 -0.1516
15952TIP3    H169347   6.821   6.549   0.616 -0.1666  1.3210 -0.0779
15952TIP3    H269348   6.697   6.577   0.698  0.0074 -1.5693  1.2755
15953TIP3   OH269349   1.950   1.970   3.735  0.0853 -0.1105  0.1206
15953TIP3    H169350   1.917   1.900   3.791 -1.5864 -0.0867 -0.7485
15953TIP3    H269351   2.027   1.933   3.692 -0.2750 -1.1185  0.3201
15954TIP3   OH269352   0.836   4.046   2.747  0.1680 -0.4917 -0.4918
15954TIP3    H169353   0.836   3.972   2.807 -1.5550  0.6748  1.0822
15954TIP3    H269354   0.898   4.108   2.785  0.1224 -0.3276 -0.6817
15955TIP3   OH269355   4.049   2.578  12.866  0.0762 -0.1685  0.0718
15955TIP3    H169356   4.139   2.578  12.899  0.7242 -1.7475 -1.5681
15955TIP3    H269357   4.005   2.647  12.917  2.7792  2.3562 -0.7115
15956TIP3   OH269358   5.928   4.458   2.180  0.1170 -0.2033 -0.7626
15956TIP3    H169359   5.942   4.543   2.221  0.0255 -0.3067 -0.5192
15956TIP3    H269360   6.011   4.412   2.191  0.7170  0.4429 -2.3007
15957TIP3   OH269361   1.828   2.984   4.264  0.0748  0.6011 -0.1245
15957TIP3    H169362   1.781   2.961   4.344  0.4704  0.2469  0.0084
15957TIP3    H269363   1.760   3.018   4.205 -1.2215 -3.7751 -1.5284
15958TIP3   OH269364   6.209   2.220  14.990  0.1765 -0.1037 -0.3274
15958TIP3    H169365   6.279   2.182  15.044  0.0710  0.4366  0.2092
15958TIP3    H269366   6.207   2.312  15.017 -0.1637  0.0770 -0.9640
15959TIP3   OH269367   2.869   1.714  13.977  0.1441 -0.4943 -0.1071
15959TIP3    H169368   2.806   1.662  13.927 -0.0235 -0.8809  0.4854
15959TIP3    H269369   2.921   1.759  13.911  1.6016 -2.9166 -0.7265
15960TIP3   OH269370   3.819   6.432  15.245 -0.2943 -0.0338 -0.0304
15960TIP3    H169371   3.801   6.449  15.337  0.8870  0.6220  0.1053
15960TIP3    H269372   3.915   6.434  15.239 -0.3646  2.0265 -1.6494
15961TIP3   OH269373   2.354   0.576  14.540  0.4427  0.6501 -0.4186
15961TIP3    H169374   2.304   0.652  14.569 -1.5832 -0.4055 -0.9274
15961TIP3    H269375   2.297   0.533  14.476  1.4639 -1.3520 -0.0677
15962TIP3   OH269376   5.545   0.793  15.862  0.2827 -0.1025 -0.0846
15962TIP3    H169377   5.521   0.885  15.845 -0.4591 -0.0001  1.3093
15962TIP3    H269378   5.506   0.774  15.948  0.8925 -1.5638 -0.1009
15963TIP3   OH269379   5.289   2.845   1.706  0.0482 -0.2892  0.4324
15963TIP3    H169380   5.306   2.802   1.622 -0.1783  1.3354 -0.4888
15963TIP3    H269381   5.221   2.910   1.687 -0.8537 -0.6714  2.1406
15964TIP3   OH269382   1.740   3.779  16.793 -0.2681 -0.1158  0.7953
15964TIP3    H169383   1.663   3.740  16.833  0.3716 -1.4841  0.7637
15964TIP3    H269384   1.707   3.853  16.742 -1.2468  0.8814  2.7746
15965TIP3   OH269385   1.074   3.820  11.383  0.3251 -0.0558  0.1222
15965TIP3    H169386   0.981   3.799  11.382  0.2334  0.1282  1.7326
15965TIP3    H269387   1.078   3.910  11.418  1.1661 -0.7889  2.0704
15966TIP3   OH269388   5.111   4.286   4.536 -0.3173  0.2510  0.1235
15966TIP3    H169389   5.061   4.246   4.608 -0.1371 -1.1484 -0.4904
15966TIP3    H269390   5.199   4.248   4.545  0.0931  1.1514 -0.0031
15967TIP3   OH269391   0.551   1.622   4.786  0.4729 -0.3607  0.3086
15967TIP3    H169392   0.596   1.623   4.870 -0.1330 -0.8446  0.6431
15967TIP3    H269393   0.483   1.689   4.794  0.8104  0.0329 -0.0267
15968TIP3   OH269394   4.553   0.985  14.506 -0.2033  0.5693  0.6795
15968TIP3    H169395   4.596   1.002  14.422 -0.1619  0.2720  0.6417
15968TIP3    H269396   4.502   0.906  14.492 -0.4698  0.7105  0.8349
15969TIP3   OH269397   1.006   6.178  11.706  0.2647  0.3044  0.1351
15969TIP3    H169398   1.040   6.228  11.780  0.1786  1.5206 -0.6249
15969TIP3    H269399   1.079   6.121  11.681  0.1200 -0.4920  1.4596
15970TIP3   OH269400   5.079   1.815   5.056  0.1755 -0.1160 -0.0276
15970TIP3    H169401   5.077   1.719   5.051  1.9003 -0.2203  0.7957
15970TIP3    H269402   5.066   1.834   5.149 -0.5276  0.4923 -0.2403
15971TIP3   OH269403   5.173   1.446   5.873 -0.0329 -0.3194 -0.1321
15971TIP3    H169404   5.247   1.454   5.933  0.3649  1.0272 -0.7622
15971TIP3    H269405   5.208   1.395   5.800  1.0377  2.1644 -1.4802
15972TIP3   OH269406   3.022   5.547   1.304 -0.1926  0.2320  0.0977
15972TIP3    H169407   3.030   5.642   1.305 -0.5306  0.2658  0.9924
15972TIP3    H269408   2.931   5.531   1.276  0.0126  0.1501 -0.5410
15973TIP3   OH269409   6.229   1.134   2.436 -0.0520  0.6922  0.4402
15973TIP3    H169410   6.142   1.108   2.404  0.4389  1.6140 -1.8452
15973TIP3    H269411   6.222   1.228   2.451  1.1896  1.3419 -2.4004
15974TIP3   OH269412   1.780   3.269  15.413 -0.0352  0.0786 -0.4354
15974TIP3    H169413   1.776   3.292  15.506  0.4704 -1.9270  0.1408
15974TIP3    H269414   1.838   3.334  15.374  0.7576  0.2127  0.9276
15975TIP3   OH269415   1.695   6.340   3.533 -0.8523  0.0109 -0.1049
15975TIP3    H169416   1.699   6.431   3.502  0.8684 -0.6460 -2.0209
15975TIP3    H269417   1.708   6.347   3.628 -0.3974  1.7396 -0.2546
15976TIP3   OH269418   2.690   3.786  16.815 -0.2779 -0.4280  0.5224
15976TIP3    H169419   2.694   3.708  16.870 -1.8209 -1.1070 -0.2455
15976TIP3    H269420   2.718   3.858  16.872  3.5696 -1.7583  0.5980
15977TIP3   OH269421   4.721   6.291  14.149 -0.1913 -0.0949  0.4078
15977TIP3    H169422   4.809   6.324  14.135 -0.0724 -1.1708 -1.7429
15977TIP3    H269423   4.664   6.357  14.109 -0.1913 -0.6023 -0.4425
15978TIP3   OH269424   5.835   3.106   0.240  0.0093  0.0468 -0.3828
15978TIP3    H169425   5.771   3.072   0.302  0.8507 -1.5357 -0.3203
15978TIP3    H269426   5.904   3.143   0.295  0.6245 -1.1121 -0.3269
15979TIP3   OH269427   2.930   2.416  14.088 -0.4732  0.3743  0.6681
15979TIP3    H169428   2.993   2.388  14.023 -0.0491  1.3043  0.6655
15979TIP3    H269429   2.845   2.389  14.053 -0.3482  1.7058 -0.7473
15980TIP3   OH269430   1.252   0.313   3.478 -0.1492 -0.1029 -0.1234
15980TIP3    H169431   1.319   0.285   3.416  1.5824  0.1307  1.5742
15980TIP3    H269432   1.222   0.232   3.519  0.1181 -0.0788  0.1207
15981TIP3   OH269433   4.930   6.632   0.163  0.5142  0.0886 -0.3155
15981TIP3    H169434   4.867   6.576   0.117  0.7449  1.7266 -2.8274
15981TIP3    H269435   4.927   6.601   0.253 -0.0433 -3.3261 -1.3311
15982TIP3   OH269436   2.269   2.597   2.913 -0.1565  0.7262 -0.2699
15982TIP3    H169437   2.226   2.661   2.857  0.8406  0.2476 -1.6335
15982TIP3    H269438   2.363   2.608   2.895 -0.0037 -1.9087 -1.4754
15983TIP3   OH269439   5.819   1.971  14.384 -0.3779 -0.2854  0.4375
15983TIP3    H169440   5.877   1.971  14.461 -0.3443 -0.3950  0.4133
15983TIP3    H269441   5.872   2.008  14.314 -0.5755  0.2904  0.5910
15984TIP3   OH269442   5.955   1.121  10.971 -0.6971 -0.7367 -0.0975
15984TIP3    H169443   5.866   1.155  10.984 -0.3816 -0.4701  1.5807
15984TIP3    H269444   6.011   1.180  11.022  0.2558 -1.8210  0.1381
15985TIP3   OH269445   4.053   3.240  13.206  0.4824 -0.6934  0.1440
15985TIP3    H169446   3.995   3.260  13.279 -0.1382  2.7806 -1.1034
15985TIP3    H269447   4.141   3.237  13.244 -0.0174 -1.1853  1.3085
15986TIP3   OH269448   4.699   4.507  17.140  0.0845 -0.3453  1.0110
15986TIP3    H169449   4.695   4.418  17.177  2.6614 -0.8705  0.2110
15986TIP3    H269450   4.720   4.493  17.048  1.5494  1.0825  1.0897
15987TIP3   OH269451   3.420   6.400   2.857  0.2927  0.0364 -0.3361
15987TIP3    H169452   3.474   6.402   2.936 -0.3662  0.9304  0.1198
15987TIP3    H269453   3.464   6.338   2.799  2.4081  1.5117 -0.4291
15988TIP3   OH269454   5.634   2.839  16.861 -0.1794 -0.1848  0.6739
15988TIP3    H169455   5.688   2.824  16.938  1.9059 -1.4885 -0.9272
15988TIP3    H269456   5.556   2.786  16.876  0.2352 -0.5057  1.8131
15989TIP3   OH269457   0.940   5.448   6.149  0.4471  0.6187  0.4719
15989TIP3    H169458   0.943   5.386   6.076 -2.2312 -0.5310  1.2102
15989TIP3    H269459   1.029   5.449   6.183  0.9555 -1.6211 -0.5709
15990TIP3   OH269460   1.567   4.656  15.597 -0.5613 -0.6453 -0.7812
15990TIP3    H169461   1.543   4.572  15.635 -0.6470 -0.6290 -0.7977
15990TIP3    H269462   1.485   4.705  15.594 -0.1317  0.2967  1.3271
15991TIP3   OH269463   0.911   4.922  14.537  0.3660 -0.4896  0.4156
15991TIP3    H169464   0.941   4.862  14.469  2.8340  1.0604  0.0120
15991TIP3    H269465   0.861   4.989  14.490  0.0876 -0.6640  0.4621
15992TIP3   OH269466   5.505   4.276  11.826  0.0412 -0.2196 -0.7840
15992TIP3    H169467   5.410   4.288  11.838  0.1299  1.9423 -1.7016
15992TIP3    H269468   5.544   4.340  11.886  0.8842 -0.2928 -1.2458
15993TIP3   OH269469   5.444   6.474   4.493 -0.6155  0.7383 -0.1436
15993TIP3    H169470   5.387   6.550   4.483 -1.5648 -0.2649 -3.5394
15993TIP3    H269471   5.533   6.511   4.497 -1.0638  2.0993 -1.6146
15994TIP3   OH269472   1.500   6.763   5.859  0.8034  0.3077  0.1955
15994TIP3    H169473   1.526   6.855   5.869  1.8364 -0.0804  1.3589
15994TIP3    H269474   1.406   6.762   5.879  0.8770  1.0469  0.6101
15995TIP3   OH269475   3.724   1.154   1.045 -0.0781  0.4301 -0.1968
15995TIP3    H169476   3.662   1.163   0.973  0.3833 -0.1381 -0.6742
15995TIP3    H269477   3.785   1.085   1.016  0.4864  0.6410  0.4607
15996TIP3   OH269478   1.938   0.355   4.886  0.2376  0.2779 -0.0374
15996TIP3    H169479   2.016   0.304   4.867  0.2175 -0.0000  0.6033
15996TIP3    H269480   1.873   0.323   4.824  0.3268 -0.2426  0.1317
15997TIP3   OH269481   6.248   6.292  13.485 -0.6260 -0.6534 -0.3340
15997TIP3    H169482   6.217   6.382  13.491  2.3523  0.6238 -2.0294
15997TIP3    H269483   6.256   6.276  13.391  1.8350 -1.5255 -0.0384
15998TIP3   OH269484   1.552   4.975  11.817  0.6873  0.3351  0.2724
15998TIP3    H169485   1.584   4.924  11.742 -1.4383  2.0343 -1.9432
15998TIP3    H269486   1.632   5.001  11.863  1.9871 -2.2082 -0.3150
15999TIP3   OH269487   2.800   5.290  11.714 -0.2730 -0.5492  0.8021
15999TIP3    H169488   2.815   5.360  11.651  1.0043 -0.2262  1.4242
15999TIP3    H269489   2.781   5.336  11.796 -2.1425 -0.9588  0.6507
16000TIP3   OH269490   3.048   3.031   3.157 -0.7119 -0.8572  0.2096
16000TIP3    H169491   3.010   3.027   3.245  0.1895 -0.9726  0.6053
16000TIP3    H269492   3.140   3.009   3.170 -0.1571  0.8764 -0.5089
16001TIP3   OH269493   3.401   1.268   2.832 -0.1393 -0.3532 -0.1048
16001TIP3    H169494   3.364   1.206   2.894  1.3147  1.0225  2.2911
16001TIP3    H269495   3.467   1.218   2.784  1.1770 -0.6766  1.9527
16002TIP3   OH269496   5.398   0.615   6.582 -0.1295  0.4606  0.2239
16002TIP3    H169497   5.477   0.571   6.552 -0.0531 -0.3096  1.5154
16002TIP3    H269498   5.359   0.651   6.502 -0.8481 -2.9504 -1.1332
16003TIP3   OH269499   5.333   0.977  14.990 -0.3567 -0.4651  0.2304
16003TIP3    H169500   5.266   1.044  15.003 -0.0770 -0.1979  0.3033
16003TIP3    H269501   5.376   0.968  15.075 -2.4143 -2.9674  1.1228
16004TIP3   OH269502   4.666   1.713   4.870 -0.2840  0.1103  0.0702
16004TIP3    H169503   4.696   1.786   4.925  1.6269 -1.4299  1.2037
16004TIP3    H269504   4.624   1.755   4.795  2.1091  2.4438 -0.0938
16005TIP3   OH269505   6.436   6.261   0.206 -0.1922  0.4438 -0.2433
16005TIP3    H169506   6.363   6.268   0.267 -0.1616 -0.2886 -0.1064
16005TIP3    H269507   6.514   6.268   0.261 -0.1641 -0.3089 -0.1679
16006TIP3   OH269508   1.534   3.862  11.208  0.3693 -0.3118 -0.7812
16006TIP3    H169509   1.459   3.811  11.240 -0.0583  1.8448  2.0476
16006TIP3    H269510   1.599   3.796  11.183 -1.0094 -2.2231  0.4059
16007TIP3   OH269511   4.887   4.188  14.500  0.3791  0.1033  0.1316
16007TIP3    H169512   4.840   4.139  14.567  1.1021 -0.2631  0.3853
16007TIP3    H269513   4.957   4.233  14.548  1.6299 -1.0924 -0.5059
16008TIP3   OH269514   6.510   6.651   4.764  0.0258 -0.5881 -0.0070
16008TIP3    H169515   6.457   6.636   4.843 -0.9442  0.1086 -0.5071
16008TIP3    H269516   6.516   6.565   4.723 -1.1326 -0.5915 -0.1890
16009TIP3   OH269517   2.772   3.090  12.279 -0.1916  0.7365  0.2423
16009TIP3    H169518   2.777   3.181  12.307  0.6959  0.8496 -0.2630
16009TIP3    H269519   2.845   3.079  12.218  0.2836 -0.5472  0.9894
16010TIP3   OH269520   3.622   1.863   5.017 -0.1465  0.0059  0.2112
16010TIP3    H169521   3.704   1.911   5.007  0.0409 -0.2055  0.7059
16010TIP3    H269522   3.636   1.808   5.094 -1.6948  1.9199  1.9822
16011TIP3   OH269523   4.903   0.716  15.873  0.9331 -0.0644 -0.3298
16011TIP3    H169524   4.827   0.674  15.831  0.3639  0.2118  0.4065
16011TIP3    H269525   4.944   0.646  15.924 -0.1885  0.2938  1.1395
16012TIP3   OH269526   0.740   0.325  16.800  0.3041  0.2400 -0.0073
16012TIP3    H169527   0.789   0.261  16.852  0.1248  0.8100  0.8857
16012TIP3    H269528   0.785   0.326  16.715  1.7216  0.5725  0.7084
16013TIP3   OH269529   0.115   6.275   2.467  0.0853 -0.1920 -0.3505
16013TIP3    H169530   0.163   6.202   2.430  0.1677 -0.1472 -0.3330
16013TIP3    H269531   0.093   6.330   2.391 -1.2043 -0.9438 -0.5425
16014TIP3   OH269532   1.179   3.701  13.157  0.2756 -0.5681 -0.4959
16014TIP3    H169533   1.106   3.711  13.096 -0.7387 -2.7175  0.2678
16014TIP3    H269534   1.137   3.684  13.241  1.6775  0.1949  0.4046
16015TIP3   OH269535   3.388   4.542  11.750 -0.1998  0.3698  0.3496
16015TIP3    H169536   3.391   4.636  11.768  0.8446  0.5347 -0.6202
16015TIP3    H269537   3.345   4.535  11.665 -0.7855 -0.0885  0.6730
16016TIP3   OH269538   6.759   4.241   3.063  0.2972  0.0969  0.0150
16016TIP3    H169539   6.695   4.186   3.019  1.9154 -1.1254 -0.9577
16016TIP3    H269540   6.811   4.180   3.116  0.3628  1.1104  1.1441
16017TIP3   OH269541   4.807   6.198   0.524 -0.4244 -0.7599 -0.4126
16017TIP3    H169542   4.740   6.145   0.482 -1.4206 -0.0817  0.2732
16017TIP3    H269543   4.763   6.236   0.600  0.2733  1.0244 -0.8687
16018TIP3   OH269544   5.586   6.314   1.919  0.0110 -0.2490 -0.4635
16018TIP3    H169545   5.535   6.256   1.863 -1.7977  0.1831  0.6415
16018TIP3    H269546   5.667   6.266   1.937 -0.1580 -1.1352 -1.9483
16019TIP3   OH269547   1.934   3.798  14.509  0.0100 -1.1051  0.2730
16019TIP3    H169548   1.871   3.810  14.579 -0.4895 -1.9740 -0.0075
16019TIP3    H269549   1.889   3.830  14.430 -0.3861 -2.3990 -0.0528
16020TIP3   OH269550   6.453   1.981   0.254 -0.4695  0.1803  0.3098
16020TIP3    H169551   6.498   2.062   0.231  0.9137 -0.9114 -0.9892
16020TIP3    H269552   6.456   1.979   0.350  1.4600  0.5940  0.2983
16021TIP3   OH269553   1.559   6.476  16.411 -0.3786  0.3624  0.2384
16021TIP3    H169554   1.559   6.568  16.383  0.3250  0.9882  2.1286
16021TIP3    H269555   1.651   6.453  16.417 -0.4972  0.2125  1.7626
16022TIP3   OH269556   4.504   1.324   3.016 -0.6686 -0.0371 -0.3587
16022TIP3    H169557   4.500   1.234   2.983 -2.0113 -0.5519  1.0826
16022TIP3    H269558   4.414   1.345   3.040  0.1355  0.2942  2.8201
16023TIP3   OH269559   3.161   0.150  12.815  0.4240 -0.2652 -0.2896
16023TIP3    H169560   3.164   0.173  12.722  1.3225 -0.2603 -0.2639
16023TIP3    H269561   3.097   0.079  12.819 -0.2124  0.2611 -0.7866
16024TIP3   OH269562   3.387   0.335   5.366 -0.5241 -0.0324  0.1699
16024TIP3    H169563   3.295   0.362   5.367 -0.4000  0.3845  1.1340
16024TIP3    H269564   3.427   0.382   5.439  0.7561  0.7951 -1.0164
16025TIP3   OH269565   4.289   5.309   1.447  0.1373 -0.3284  0.3533
16025TIP3    H169566   4.207   5.282   1.407  1.6659 -0.7216 -2.8121
16025TIP3    H269567   4.267   5.325   1.539 -3.4719 -0.1918 -0.4055
16026TIP3   OH269568   0.479   5.560  14.183 -0.0044 -0.0708  0.4766
16026TIP3    H169569   0.456   5.646  14.148  2.3367  0.0019 -1.1054
16026TIP3    H269570   0.533   5.520  14.115 -0.3902 -2.5251  1.4923
16027TIP3   OH269571   3.965   6.796  15.718 -0.1206  0.7528 -0.1827
16027TIP3    H169572   3.891   6.764  15.769  1.8732 -2.3686  1.0111
16027TIP3    H269573   4.001   6.868  15.770 -1.1566  1.0543  0.1481
16028TIP3   OH269574   1.508   1.890  11.286  0.1981  0.1154  0.3216
16028TIP3    H169575   1.518   1.821  11.353  1.5119  0.4040  0.4397
16028TIP3    H269576   1.523   1.972  11.334  0.3483  0.3737 -0.1676
16029TIP3   OH269577   6.382   1.323   0.907 -0.3881 -0.4088  0.3290
16029TIP3    H169578   6.319   1.268   0.862  0.5376 -0.5089 -0.8878
16029TIP3    H269579   6.361   1.412   0.878  1.4862 -0.6474 -2.0187
16030TIP3   OH269580   5.433   1.476   0.338  0.4803 -0.2445  0.0031
16030TIP3    H169581   5.526   1.494   0.353  0.0523  0.2456  2.5488
16030TIP3    H269582   5.431   1.416   0.264  2.7136  0.9192 -1.0985
16031TIP3   OH269583   0.619   6.515   2.695  0.1210  0.5028  0.0595
16031TIP3    H169584   0.624   6.460   2.617  1.2516  1.5632 -0.6359
16031TIP3    H269585   0.639   6.455   2.767  2.8980  0.2556 -0.8107
16032TIP3   OH269586   1.762   5.791   1.619  0.2131 -0.1046 -0.5745
16032TIP3    H169587   1.818   5.718   1.592 -0.7407 -0.2763 -2.1909
16032TIP3    H269588   1.796   5.867   1.571 -0.4356 -0.0441 -0.9430
16033TIP3   OH269589   2.583   5.581   2.979 -0.3774  0.1527  0.3389
16033TIP3    H169590   2.640   5.633   2.923 -1.1986 -0.5424 -1.2151
16033TIP3    H269591   2.508   5.638   2.997  0.1695  0.5961  1.2816
16034TIP3   OH269592   2.324   3.721   4.733 -0.1466  0.5102 -0.3710
16034TIP3    H169593   2.317   3.767   4.816 -1.7228 -3.1613  1.7982
16034TIP3    H269594   2.244   3.745   4.685 -1.1570 -0.1740  0.9062
16035TIP3   OH269595   4.723   4.698   0.940  0.5111  0.3463  0.0894
16035TIP3    H169596   4.632   4.668   0.936  0.6102 -0.1130  1.0370
16035TIP3    H269597   4.775   4.619   0.923  0.7453  0.6894 -0.8763
16036TIP3   OH269598   5.536   5.241   0.580  0.2593 -0.7418  0.0039
16036TIP3    H169599   5.547   5.216   0.672  1.2326 -1.1817 -0.2175
16036TIP3    H269600   5.462   5.302   0.581  1.8701  1.3728  1.4747
16037TIP3   OH269601   3.075   6.776  10.726  0.2110 -0.3540  0.1265
16037TIP3    H169602   3.048   6.684  10.718 -1.5213  0.2682 -2.1166
16037TIP3    H269603   3.020   6.811  10.796  1.4172 -1.1557  1.5290
16038TIP3   OH269604   4.899   4.641   1.507 -0.0541  0.0501 -0.2442
16038TIP3    H169605   4.946   4.701   1.565  0.1796  0.0811 -0.4647
16038TIP3    H269606   4.894   4.688   1.423 -1.3264  0.4599  0.0385
16039TIP3   OH269607   2.507   5.611   0.922  0.4982 -0.2145 -0.6206
16039TIP3    H169608   2.547   5.533   0.959 -0.5836 -0.4737  0.0309
16039TIP3    H269609   2.550   5.684   0.967  0.9779 -0.4512 -0.6922
16040TIP3   OH269610   0.210   3.874  11.528  0.2692  0.4260  0.4825
16040TIP3    H169611   0.281   3.872  11.463  0.1473 -0.0163  0.3571
16040TIP3    H269612   0.166   3.789  11.518  0.6376  0.0929  1.5791
16041TIP3   OH269613   4.205   1.357  13.872 -0.4186  0.0431 -0.0086
16041TIP3    H169614   4.141   1.380  13.940 -1.0734 -1.0683 -0.2146
16041TIP3    H269615   4.202   1.261  13.869  1.1512 -0.0184 -0.1475
16042TIP3   OH269616   3.579   0.489  12.323 -0.4690  0.1778  0.3452
16042TIP3    H169617   3.504   0.546  12.341 -0.6945  0.2781 -0.8264
16042TIP3    H269618   3.569   0.465  12.230  0.3072 -0.7541  0.4860
16043TIP3   OH269619   0.769   0.288  13.268  0.3437 -0.1617 -0.3441
16043TIP3    H169620   0.773   0.196  13.243 -2.4669 -0.7743  1.0685
16043TIP3    H269621   0.856   0.307  13.305  1.6984 -1.5596 -2.5788
16044TIP3   OH269622   0.678   1.145  15.776 -0.6126 -0.2771  0.1160
16044TIP3    H169623   0.751   1.125  15.718 -2.1195 -2.3024 -1.2249
16044TIP3    H269624   0.614   1.076  15.758 -2.2292  0.5313  2.3411
16045TIP3   OH269625   6.574   2.780   1.624 -0.3930  0.1035 -0.3228
16045TIP3    H169626   6.638   2.829   1.676 -1.1557  0.5938  0.1862
16045TIP3    H269627   6.496   2.836   1.624 -0.2367  0.4156 -2.5516
16046TIP3   OH269628   2.485   5.405   4.671 -0.2234  0.4926 -0.8935
16046TIP3    H169629   2.547   5.400   4.743  1.3976  0.6607 -2.2235
16046TIP3    H269630   2.487   5.319   4.630  0.5312  1.0255 -2.0310
16047TIP3   OH269631   0.342   4.074  15.719 -0.8980 -0.2444 -0.0581
16047TIP3    H169632   0.424   4.026  15.720 -0.4411  0.5130 -0.2020
16047TIP3    H269633   0.319   4.084  15.812  0.4507  1.6172  0.1481
16048TIP3   OH269634   6.484   4.111   2.374 -0.0172 -0.1774  0.2099
16048TIP3    H169635   6.461   4.123   2.466  1.3612 -0.1981  0.5879
16048TIP3    H269636   6.580   4.113   2.374  0.0089 -0.8084 -1.1426
16049TIP3   OH269637   0.582   5.055  10.559  0.1616 -0.0271 -0.1970
16049TIP3    H169638   0.666   5.012  10.576 -0.4859 -0.7752  1.3455
16049TIP3    H269639   0.590   5.141  10.600  0.2307 -0.0262 -0.2119
16050TIP3   OH269640   5.158   3.944  14.593 -0.1480  0.1056 -0.2861
16050TIP3    H169641   5.247   3.951  14.558 -0.3384 -1.3715 -1.1336
16050TIP3    H269642   5.148   4.022  14.647  1.0580  1.1734 -1.5254
16051TIP3   OH269643   0.246   1.233   0.632  0.3543  0.3482  0.4143
16051TIP3    H169644   0.258   1.146   0.670 -2.6032  0.3262  1.5475
16051TIP3    H269645   0.174   1.223   0.570  1.9088  1.4440 -1.7181
16052TIP3   OH269646   0.438   2.685  13.999 -0.2236 -0.0620  0.1136
16052TIP3    H169647   0.445   2.779  14.018 -0.6018  0.2497 -1.1580
16052TIP3    H269648   0.429   2.681  13.904  4.2404 -1.6441 -0.4690
16053TIP3   OH269649   3.568   5.285   4.303  0.2918 -0.1641 -0.2411
16053TIP3    H169650   3.545   5.192   4.297  1.6067 -0.5117 -0.1955
16053TIP3    H269651   3.565   5.316   4.212  2.3804 -0.9277 -0.6364
16054TIP3   OH269652   0.537   2.834   4.910  0.0740  0.4920 -0.1365
16054TIP3    H169653   0.446   2.836   4.941 -0.1056  1.3799 -0.6988
16054TIP3    H269654   0.533   2.794   4.824  0.3554 -0.4050  0.2595
16055TIP3   OH269655   5.855   6.013  16.862 -0.4199 -0.0473  0.6846
16055TIP3    H169656   5.924   6.001  16.797  2.2688  1.9734  2.9519
16055TIP3    H269657   5.901   6.022  16.946 -3.5674 -0.2910  2.6243
16056TIP3   OH269658   3.131   5.652   2.574  0.1086  0.1137  0.5683
16056TIP3    H169659   3.121   5.583   2.640  0.3753 -0.4159  0.0681
16056TIP3    H269660   3.101   5.612   2.493  2.3045 -0.1717 -0.1652
16057TIP3   OH269661   1.314   3.445   1.758  0.5545 -0.1449  0.0361
16057TIP3    H169662   1.332   3.462   1.665  0.7312  3.5233  0.6014
16057TIP3    H269663   1.239   3.386   1.758  0.3624  0.0021 -2.4177
16058TIP3   OH269664   6.357   4.864   0.514  0.1068  0.3527  0.0164
16058TIP3    H169665   6.397   4.938   0.559  0.1342  0.6218 -0.4456
16058TIP3    H269666   6.372   4.790   0.573 -0.2490  0.7771  0.6542
16059TIP3   OH269667   5.982   3.264   1.033  0.3872  0.0659 -0.6647
16059TIP3    H169668   5.924   3.317   0.978  1.6517  1.7327 -0.4494
16059TIP3    H269669   5.950   3.174   1.021 -2.8671  0.9640  0.2045
16060TIP3   OH269670   6.669   1.379   2.827 -0.0895 -0.9271  0.7386
16060TIP3    H169671   6.731   1.444   2.794 -2.2392  0.7724 -0.1885
16060TIP3    H269672   6.697   1.297   2.786 -0.3342  0.3863 -2.3421
16061TIP3   OH269673   3.599   0.682   5.049  0.3321  0.5031  0.3917
16061TIP3    H169674   3.633   0.593   5.034  0.0074  0.4497 -0.0389
16061TIP3    H269675   3.579   0.715   4.961  0.1367  0.8795  0.5772
16062TIP3   OH269676   4.656   3.367   2.913  0.5448  0.4018 -0.3292
16062TIP3    H169677   4.579   3.412   2.946  0.6092  0.9615 -0.9304
16062TIP3    H269678   4.675   3.300   2.980 -0.4384  0.2700 -0.1689
16063TIP3   OH269679   5.291   5.827  14.152 -0.0506 -0.2148  0.4766
16063TIP3    H169680   5.247   5.911  14.168  3.3815  2.2095 -1.3791
16063TIP3    H269681   5.365   5.827  14.212  1.3915 -0.6433 -1.2048
16064TIP3   OH269682   1.888   0.425   6.250  0.8722 -0.0569 -0.6312
16064TIP3    H169683   1.982   0.423   6.269  1.2999  1.3668 -2.3384
16064TIP3    H269684   1.877   0.360   6.180  0.6136 -0.1142 -0.5388
16065TIP3   OH269685   3.748   1.789   0.005 -0.5964 -0.5546 -0.4204
16065TIP3    H169686   3.712   1.868  -0.035  0.3531  0.6941  1.0678
16065TIP3    H269687   3.693   1.775   0.083 -0.4071 -1.0288 -0.3674
16066TIP3   OH269688   5.550   2.179   4.412 -0.0800 -0.8823  0.0304
16066TIP3    H169689   5.590   2.217   4.491  0.2027 -0.6213 -0.2358
16066TIP3    H269690   5.469   2.228   4.401  0.7591  0.3812 -0.8885
16067TIP3   OH269691   4.906   1.117  16.276 -0.6085  0.1932  0.0975
16067TIP3    H169692   4.813   1.121  16.253 -0.5467  0.3551 -0.1265
16067TIP3    H269693   4.907   1.090  16.368 -0.8588 -0.3581 -0.0594
16068TIP3   OH269694   1.801   3.911   3.514 -0.0371  0.3371  0.3390
16068TIP3    H169695   1.868   3.976   3.534  0.3545 -0.0042  0.1629
16068TIP3    H269696   1.738   3.919   3.585  1.2903 -0.8072  1.7207
16069TIP3   OH269697   0.980   5.621  13.677 -0.6303  0.0085  0.5414
16069TIP3    H169698   1.071   5.610  13.705 -0.7898 -0.9391  0.7192
16069TIP3    H269699   0.972   5.565  13.600 -1.3918 -0.8813  1.2519
16070TIP3   OH269700   4.915   4.859  15.126 -0.2618 -0.5795 -0.6538
16070TIP3    H169701   4.827   4.851  15.090  0.4771 -0.2497 -2.6261
16070TIP3    H269702   4.964   4.786  15.088  0.6697  0.0485 -0.6877
16071TIP3   OH269703   6.068   5.055  14.816 -0.1577  0.1855  0.2720
16071TIP3    H169704   6.023   5.050  14.731 -1.2056  1.3762  0.7247
16071TIP3    H269705   6.113   4.971  14.824 -1.6396 -0.7465 -0.5999
16072TIP3   OH269706   4.847   5.794   3.725 -0.0568 -0.1640 -0.0297
16072TIP3    H169707   4.874   5.796   3.633 -2.0685  1.4059 -0.6513
16072TIP3    H269708   4.900   5.862   3.767 -0.0010 -0.0339 -0.3057
16073TIP3   OH269709   3.021   1.271  12.726 -0.1759  0.2709  0.4507
16073TIP3    H169710   3.078   1.210  12.772  0.0615 -1.2524 -1.7250
16073TIP3    H269711   2.932   1.246  12.752 -0.0286 -0.3012  0.4133
16074TIP3   OH269712   4.179   4.223   4.409  0.0665 -0.3758  0.0496
16074TIP3    H169713   4.091   4.229   4.370 -1.1039 -2.1127  2.1985
16074TIP3    H269714   4.237   4.211   4.334 -1.5407  0.4146 -1.4159
16075TIP3   OH269715   1.506   6.627  13.506 -0.3575  0.3479  0.1229
16075TIP3    H169716   1.538   6.546  13.466 -0.8020 -0.6789  1.7184
16075TIP3    H269717   1.418   6.638  13.472 -0.3911 -0.0031  0.0893
16076TIP3   OH269718   0.775   1.118   1.925  0.0370  0.4884 -0.3025
16076TIP3    H169719   0.792   1.134   2.018  0.0627  1.2882 -0.4372
16076TIP3    H269720   0.839   1.052   1.900  1.0534  1.3665 -0.1097
16077TIP3   OH269721   5.140   4.845  13.301 -0.5372 -0.5770  0.3176
16077TIP3    H169722   5.064   4.883  13.257 -0.7395  0.7391  1.7170
16077TIP3    H269723   5.115   4.753  13.317 -1.7779 -0.2115  0.6160
16078TIP3   OH269724   3.180   2.506   3.676 -0.4783 -0.5394  0.5021
16078TIP3    H169725   3.181   2.465   3.590 -0.8410 -0.0280  0.2543
16078TIP3    H269726   3.088   2.501   3.704 -1.0004  2.0330 -0.4713
16079TIP3   OH269727   2.155   6.618   3.469  0.1474  0.5898  0.3141
16079TIP3    H169728   2.244   6.631   3.437  1.1358 -2.9909  1.1565
16079TIP3    H269729   2.150   6.672   3.548  1.4703  1.0684  0.0948
16080TIP3   OH269730   3.611   3.199   5.599 -0.1838  0.1326 -0.3135
16080TIP3    H169731   3.548   3.159   5.539  0.2391 -0.7789 -0.1582
16080TIP3    H269732   3.634   3.282   5.557 -1.1991  0.3018 -0.5555
16081TIP3   OH269733   1.855   5.093   2.712 -0.0959 -0.2815 -0.6648
16081TIP3    H169734   1.759   5.096   2.711 -0.1642 -1.6096 -0.4967
16081TIP3    H269735   1.879   5.110   2.803  0.0109  2.7279 -1.1494
16082TIP3   OH269736   4.284   6.758   4.593 -0.6807 -0.5256 -0.5120
16082TIP3    H169737   4.336   6.692   4.546 -0.4647 -0.9278  0.2745
16082TIP3    H269738   4.302   6.741   4.685  0.2381  1.3153 -0.2974
16083TIP3   OH269739   3.360   2.184  17.085  0.2484  0.3620 -0.2397
16083TIP3    H169740   3.294   2.206  17.151  0.8595  0.4920  0.3451
16083TIP3    H269741   3.437   2.235  17.111  0.4663  0.5060 -1.1250
16084TIP3   OH269742   4.857   3.949  11.185  0.2138  0.1902  0.1227
16084TIP3    H169743   4.920   3.882  11.155  1.6379  1.6971 -0.4266
16084TIP3    H269744   4.775   3.901  11.196  1.5258 -1.9684  1.2963
16085TIP3   OH269745   6.127   2.513   6.056  0.2289  0.0250 -0.0820
16085TIP3    H169746   6.168   2.600   6.054  1.2944 -0.4753 -0.1247
16085TIP3    H269747   6.160   2.472   6.136  1.2730 -1.0795 -1.0509
16086TIP3   OH269748   4.722   2.822   3.627 -0.6847  0.2328 -0.4070
16086TIP3    H169749   4.660   2.894   3.620 -0.4355  0.4619 -0.2399
16086TIP3    H269750   4.668   2.747   3.656 -1.0846  0.1471 -1.3376
16087TIP3   OH269751   4.023   3.686  13.746 -0.1656 -0.1055  0.3488
16087TIP3    H169752   4.085   3.625  13.705 -0.1727 -1.7862  2.5979
16087TIP3    H269753   4.076   3.732  13.811 -0.5346  1.1255 -0.2086
16088TIP3   OH269754   0.791   1.414  16.934  0.4044 -0.6836  0.1185
16088TIP3    H169755   0.732   1.394  17.007  0.1835 -1.0518 -0.1553
16088TIP3    H269756   0.747   1.377  16.857  0.4340  0.0571 -0.2623
16089TIP3   OH269757   0.631   5.816   6.322  0.3886 -0.0261  0.0659
16089TIP3    H169758   0.665   5.864   6.398  0.3421 -1.0481  0.7402
16089TIP3    H269759   0.709   5.778   6.281  0.5333  1.3488 -1.0071
16090TIP3   OH269760   5.002   2.335  16.473  0.8135 -0.4003 -0.1455
16090TIP3    H169761   4.987   2.399  16.542 -0.2779 -0.3320 -0.4209
16090TIP3    H269762   5.097   2.325  16.469  0.9076 -1.6369  2.5048
16091TIP3   OH269763   5.012   6.440  13.693 -0.0987 -0.2247  0.5562
16091TIP3    H169764   4.946   6.479  13.636 -1.2515 -2.4992  0.2459
16091TIP3    H269765   5.073   6.396  13.632  1.1958  1.0187  0.8947
16092TIP3   OH269766   4.144   4.893   4.428  0.6077  0.1448 -0.1886
16092TIP3    H169767   4.227   4.939   4.419 -0.7128  2.8684  0.4736
16092TIP3    H269768   4.119   4.868   4.339  1.2208  1.0530 -0.6200
16093TIP3   OH269769   3.360   6.662  16.578  0.2865 -0.1687 -0.3389
16093TIP3    H169770   3.274   6.644  16.616  0.0945 -1.4460 -1.2966
16093TIP3    H269771   3.347   6.650  16.484  1.0213  1.7296 -0.7231
16094TIP3   OH269772   2.357   6.477   0.488  0.0572  0.6906 -0.3062
16094TIP3    H169773   2.442   6.519   0.505  0.2802  0.2377 -0.2769
16094TIP3    H269774   2.379   6.385   0.475 -0.6870  0.1012  2.0878
16095TIP3   OH269775   3.472   6.352   1.864 -0.0486 -0.0093  0.1443
16095TIP3    H169776   3.521   6.387   1.790 -1.2594 -1.7450 -1.6034
16095TIP3    H269777   3.511   6.393   1.941  1.6382  1.4612 -1.4032
16096TIP3   OH269778   6.090   6.380  16.514 -0.4432 -0.5006  0.2037
16096TIP3    H169779   6.127   6.457  16.557 -1.1875  0.5004 -0.8925
16096TIP3    H269780   6.129   6.306  16.561 -1.7635  0.4656  3.1183
16097TIP3   OH269781   4.605   3.842  11.127 -0.2410 -0.0051  0.0516
16097TIP3    H169782   4.616   3.921  11.074  1.2637 -1.3893 -1.8497
16097TIP3    H269783   4.529   3.798  11.088  1.0349 -1.1639 -1.2253
16098TIP3   OH269784   3.515   0.972   4.419  0.8270 -0.3024  0.3384
16098TIP3    H169785   3.430   0.936   4.395  0.6147  1.4174 -1.7372
16098TIP3    H269786   3.505   0.998   4.510 -0.8340 -0.2179  0.1576
16099TIP3   OH269787   5.011   0.790   4.269  0.0458 -0.4921 -0.3031
16099TIP3    H169788   5.039   0.881   4.259 -0.2502 -0.0485  2.2048
16099TIP3    H269789   4.923   0.787   4.229 -0.0928  0.4170 -0.0779
16100TIP3   OH269790   2.913   4.730   2.610 -0.2510 -0.0278 -0.0250
16100TIP3    H169791   2.897   4.673   2.685 -0.2984  1.2788  0.9749
16100TIP3    H269792   2.850   4.801   2.619  0.5541  0.7873 -0.6240
16101TIP3   OH269793   0.365   5.526   3.475 -0.1659 -0.7503  0.5790
16101TIP3    H169794   0.324   5.442   3.494  0.5874 -1.0096  1.0907
16101TIP3    H269795   0.439   5.531   3.535  0.7116 -0.4116 -0.4892
16102TIP3   OH269796   2.534   5.724   1.247  0.1731  0.4895  0.4746
16102TIP3    H169797   2.579   5.758   1.169 -0.0784  1.2301  0.6445
16102TIP3    H269798   2.601   5.724   1.315  0.2262  0.4437  0.4227
16103TIP3   OH269799   6.179   0.840  13.937 -0.4222 -0.1849  0.0913
16103TIP3    H169800   6.187   0.892  13.857 -1.6421  2.8225  1.7715
16103TIP3    H269801   6.264   0.851  13.981 -0.8783  0.9924  0.7261
16104TIP3   OH269802   2.141   1.749  13.923 -0.0691  0.5065  0.0737
16104TIP3    H169803   2.115   1.813  13.990  1.2870 -0.1870  1.3347
16104TIP3    H269804   2.216   1.790  13.879 -0.5644  0.6902 -0.6208
16105TIP3   OH269805   4.283   3.047   3.924 -0.1406  0.5506  0.7670
16105TIP3    H169806   4.220   3.042   3.996 -0.3221  0.4041  0.5974
16105TIP3    H269807   4.334   3.126   3.942 -0.2100  0.5344  1.0369
16106TIP3   OH269808   6.372   6.489  17.061 -0.4792  0.1871  0.1493
16106TIP3    H169809   6.391   6.581  17.045  1.1391  0.6321  3.6764
16106TIP3    H269810   6.440   6.441  17.015  1.1221  1.0668  1.5007
16107TIP3   OH269811   1.058   0.167  16.142 -0.4437  0.1938  0.0414
16107TIP3    H169812   1.084   0.075  16.135 -1.3167  0.0064 -1.0502
16107TIP3    H269813   1.077   0.203  16.056 -0.0712  1.0525  0.4775
16108TIP3   OH269814   5.349   4.163   3.598  0.5235 -0.4040  0.1622
16108TIP3    H169815   5.273   4.107   3.579 -0.2677 -0.3619  2.8046
16108TIP3    H269816   5.317   4.252   3.585  0.4011 -0.4204  0.3477
16109TIP3   OH269817   3.923   5.148  13.427  0.3082 -0.7038 -0.2192
16109TIP3    H169818   3.871   5.096  13.366 -0.1670 -1.2607  0.6357
16109TIP3    H269819   3.913   5.103  13.512  0.5441  0.3259  0.3733
16110TIP3   OH269820   1.615   1.286  13.899  0.2710  0.3506 -0.2903
16110TIP3    H169821   1.624   1.308  13.992  0.1441  0.1631 -0.2332
16110TIP3    H269822   1.522   1.302  13.880  0.4470  1.1082 -0.5718
16111TIP3   OH269823   5.993   4.995   4.150  1.1584 -0.1716  0.5136
16111TIP3    H169824   5.967   5.086   4.161  0.7862 -0.1686 -0.3142
16111TIP3    H269825   5.984   4.956   4.237 -1.0500 -0.0136  0.4050
16112TIP3   OH269826   4.963   5.791  13.679  0.3031 -0.1445 -0.1767
16112TIP3    H169827   5.052   5.763  13.659  0.9604  1.5735  0.1318
16112TIP3    H269828   4.933   5.730  13.747  1.0909 -0.9688 -0.5575
16113TIP3   OH269829   1.082   4.666   2.146 -0.4839 -0.8450 -0.2990
16113TIP3    H169830   1.130   4.749   2.149  0.3696 -1.3311 -0.3894
16113TIP3    H269831   1.007   4.680   2.204  1.0054 -0.8575  1.7517
16114TIP3   OH269832   4.271   3.414   4.928  0.1432  0.4037 -0.1618
16114TIP3    H169833   4.351   3.381   4.888  0.4697  1.2720 -0.2432
16114TIP3    H269834   4.259   3.361   5.006  0.8410  0.3205 -0.1079
16115TIP3   OH269835   3.076   2.885  16.273  0.4281 -0.6314  0.1537
16115TIP3    H169836   3.120   2.835  16.203 -1.8359  0.4907 -2.2438
16115TIP3    H269837   3.098   2.976  16.254 -1.5297 -0.1777 -0.1774
16116TIP3   OH269838   1.306   2.322   2.785  0.6629 -0.1802 -0.0623
16116TIP3    H169839   1.383   2.372   2.813 -0.6463  0.4114  2.9091
16116TIP3    H269840   1.332   2.230   2.797  1.0732 -0.0065  0.4252
16117TIP3   OH269841   5.396   6.564   0.292  0.4683  0.1688  0.5397
16117TIP3    H169842   5.487   6.588   0.278  0.8297 -0.2262  2.0801
16117TIP3    H269843   5.360   6.556   0.204  2.0823 -0.3135 -0.1076
16118TIP3   OH269844   3.860   4.099   1.390  0.1675  0.1512  0.8195
16118TIP3    H169845   3.839   4.008   1.372  0.9371 -0.2383  1.8614
16118TIP3    H269846   3.803   4.124   1.462  0.1870  0.4089  0.7490
16119TIP3   OH269847   3.307   3.956   5.314 -0.2877  0.3265 -0.0029
16119TIP3    H169848   3.255   3.882   5.281 -0.3202  0.0504  0.6507
16119TIP3    H269849   3.251   4.032   5.298 -1.0607 -0.0060  0.9931
16120TIP3   OH269850   0.304   1.372  14.053  0.1109  0.2953  0.0511
16120TIP3    H169851   0.289   1.465  14.073 -0.1002 -0.2811  3.1482
16120TIP3    H269852   0.217   1.335  14.045  0.0795 -0.1434  1.9645
16121TIP3   OH269853   0.634   6.094   3.356  0.7804 -0.3311 -0.1202
16121TIP3    H169854   0.689   6.018   3.372  0.3652 -0.8401 -1.0549
16121TIP3    H269855   0.678   6.142   3.287  0.2842 -0.5179 -0.5748
16122TIP3   OH269856   0.331   3.404  17.060 -0.0094 -0.1800  0.1943
16122TIP3    H169857   0.288   3.408  17.145  1.0464  0.7635  0.7178
16122TIP3    H269858   0.417   3.365  17.079 -0.3602 -1.4869 -0.7244
16123TIP3   OH269859   2.382   3.175  16.900  0.4723  0.1247  0.6304
16123TIP3    H169860   2.308   3.217  16.856  0.7275  0.0245  0.0936
16123TIP3    H269861   2.363   3.082  16.896  1.7762 -0.1304 -1.7545
16124TIP3   OH269862   5.401   4.724  10.711 -0.4721 -0.0275  0.0315
16124TIP3    H169863   5.469   4.750  10.647 -0.6830 -0.8890 -0.5601
16124TIP3    H269864   5.330   4.690  10.657 -0.8054 -0.4312  0.7189
16125TIP3   OH269865   0.808   3.921  11.873  0.6027  0.5750 -0.8384
16125TIP3    H169866   0.902   3.918  11.853  0.8997 -2.3059  0.4933
16125TIP3    H269867   0.772   3.844  11.828 -0.3833 -0.4965  1.6046
16126TIP3   OH269868   3.458   5.859  11.631 -0.3932 -0.2056  0.1939
16126TIP3    H169869   3.429   5.950  11.634  1.4053  0.3800  0.5311
16126TIP3    H269870   3.514   5.848  11.708 -1.5674 -1.9758  0.8702
16127TIP3   OH269871   5.776   3.085   2.863  0.1908 -0.1092  0.3102
16127TIP3    H169872   5.681   3.081   2.867  0.1844  0.2516  0.4988
16127TIP3    H269873   5.805   3.035   2.939  0.1546 -0.3200  0.1865
16128TIP3   OH269874   2.610   5.421   4.930  0.2089 -0.4494 -0.3287
16128TIP3    H169875   2.703   5.424   4.908  0.9152 -1.9748  2.0487
16128TIP3    H269876   2.588   5.512   4.950  1.4346 -0.1669 -0.1377
16129TIP3   OH269877   2.569   0.685   1.831  0.3863  0.1115  0.2643
16129TIP3    H169878   2.493   0.742   1.820  0.5208  0.6508  1.8584
16129TIP3    H269879   2.622   0.728   1.898  2.3878  0.0094 -1.1813
16130TIP3   OH269880   3.622   6.508   4.817 -0.1345  0.1459  0.1890
16130TIP3    H169881   3.678   6.467   4.751  0.2486  1.1016 -0.0972
16130TIP3    H269882   3.567   6.569   4.767 -0.0081  0.7029  0.7217
16131TIP3   OH269883   4.444   3.540   5.315  0.2600  0.0379  0.4950
16131TIP3    H169884   4.506   3.587   5.372  0.0114  0.3126  0.5428
16131TIP3    H269885   4.428   3.601   5.243  0.1947 -0.1126  0.3828
16132TIP3   OH269886   0.610   3.293  14.270  0.7229  0.0766 -0.6582
16132TIP3    H169887   0.619   3.386  14.291 -0.1380  0.0110  0.0583
16132TIP3    H269888   0.679   3.250  14.320  0.2659  0.1977  0.0955
16133TIP3   OH269889   4.209   0.301   0.097  0.6640 -0.2340 -0.2622
16133TIP3    H169890   4.135   0.258   0.055 -0.3040  1.2585 -0.1692
16133TIP3    H269891   4.207   0.391   0.064  1.6406  0.1833  0.7409
16134TIP3   OH269892   4.139   6.033  16.188  0.6170 -0.2123 -0.5377
16134TIP3    H169893   4.180   6.008  16.105  0.7275  1.6588 -1.0898
16134TIP3    H269894   4.097   6.118  16.170 -1.0007 -0.6631  0.8124
16135TIP3   OH269895   2.968   0.740   0.362 -0.0861  0.4226  0.2548
16135TIP3    H169896   2.919   0.665   0.396  1.3582 -0.4844  0.4162
16135TIP3    H269897   3.047   0.703   0.325 -0.6986  1.5739 -2.5035
16136TIP3   OH269898   1.670   6.370  12.248 -0.3329 -0.3090  0.2321
16136TIP3    H169899   1.658   6.455  12.206  2.2768 -0.0286 -0.0777
16136TIP3    H269900   1.739   6.328  12.198 -0.0137 -1.6842  1.7564
16137TIP3   OH269901   5.211   6.721  12.743  0.0162  0.3295 -0.4592
16137TIP3    H169902   5.226   6.811  12.772  0.4468  0.3645 -0.7787
16137TIP3    H269903   5.277   6.670  12.789 -1.4121 -0.1268  1.1934
16138TIP3   OH269904   1.175   1.476   0.442 -0.4700  0.5030  0.1188
16138TIP3    H169905   1.225   1.517   0.512  3.1606 -1.7566 -0.9287
16138TIP3    H269906   1.147   1.549   0.387 -0.5154  2.0344  2.0660
16139TIP3   OH269907   5.034   4.432   0.744 -0.0822  0.0315 -0.4299
16139TIP3    H169908   5.035   4.525   0.719  0.6184  0.4472  0.9838
16139TIP3    H269909   4.946   4.419   0.779  0.5163  0.8837  1.6114
16140TIP3   OH269910   4.027   5.707   1.280 -0.0525 -0.5696 -0.1590
16140TIP3    H169911   4.012   5.738   1.369  0.7161 -1.7657  0.3974
16140TIP3    H269912   4.102   5.648   1.286 -1.1303 -2.1463 -1.2525
16141TIP3   OH269913   2.837   6.258   5.123  0.5697  0.0756 -0.3136
16141TIP3    H169914   2.913   6.208   5.093  1.2938 -0.6268  2.4006
16141TIP3    H269915   2.872   6.321   5.186 -0.7506  1.8893 -1.3085
16142TIP3   OH269916   5.161   2.745   2.710  0.2044  0.0594 -0.1821
16142TIP3    H169917   5.222   2.677   2.683  1.7920  0.4013  2.2083
16142TIP3    H269918   5.100   2.700   2.769 -0.2359  0.2425 -0.4923
16143TIP3   OH269919   5.094   0.403   3.559 -0.1236  0.1723 -0.5564
16143TIP3    H169920   5.015   0.444   3.596  0.4848  0.1587  0.7996
16143TIP3    H269921   5.138   0.474   3.512 -0.3539  0.4681 -0.3315
16144TIP3   OH269922   5.388   1.586   2.843  0.0951  0.2980  0.1569
16144TIP3    H169923   5.355   1.502   2.875 -1.6837  1.4462  1.5836
16144TIP3    H269924   5.480   1.570   2.824  0.1786 -1.6088  1.8310
16145TIP3   OH269925   4.391   1.930  11.312  0.2465  0.3030 -0.2063
16145TIP3    H169926   4.398   1.858  11.249 -0.2445 -0.4279  0.5648
16145TIP3    H269927   4.369   2.006  11.258 -3.3090 -0.8816 -0.6423
16146TIP3   OH269928   2.239   5.572   1.009 -0.0843 -0.1366 -0.1304
16146TIP3    H169929   2.334   5.576   0.995  0.3756 -0.0424  2.5074
16146TIP3    H269930   2.220   5.646   1.065 -1.7893 -0.0768 -0.7247
16147TIP3   OH269931   1.859   0.582  12.647  0.3144 -0.3628  0.1914
16147TIP3    H169932   1.913   0.616  12.575 -1.7173  1.5901 -0.5386
16147TIP3    H269933   1.866   0.648  12.716 -2.7851  1.2275 -0.8006
16148TIP3   OH269934   4.922   2.091  16.359 -0.1317 -0.6305  0.0484
16148TIP3    H169935   4.939   2.173  16.404  1.4649 -1.0410  0.2781
16148TIP3    H269936   4.875   2.037  16.423 -0.6563 -0.1162  0.1004
16149TIP3   OH269937   0.724   3.625  12.033  0.2617 -0.3689  0.2795
16149TIP3    H169938   0.677   3.698  12.075 -2.3486 -2.4238  1.1853
16149TIP3    H269939   0.686   3.620  11.946  0.3898 -0.6855  0.2426
16150TIP3   OH269940   1.143   1.781   1.116  0.4061 -0.5102 -0.2740
16150TIP3    H169941   1.236   1.779   1.093 -0.0664 -1.8338 -2.2067
16150TIP3    H269942   1.108   1.856   1.067  0.4814  0.2239  0.7484
16151TIP3   OH269943   4.973   3.794  13.188  0.3209 -0.2950 -0.1784
16151TIP3    H169944   5.051   3.778  13.136 -0.1990 -0.4111 -0.9344
16151TIP3    H269945   4.945   3.883  13.164 -0.1135 -0.4765 -0.3645
16152TIP3   OH269946   1.682   2.567   3.458 -0.3230 -0.3724  0.1594
16152TIP3    H169947   1.651   2.600   3.542 -0.5757 -0.2268  0.0102
16152TIP3    H269948   1.676   2.472   3.465 -2.9074 -0.3538 -0.6287
16153TIP3   OH269949   1.624   4.912  12.605 -0.3042  0.2738 -0.0770
16153TIP3    H169950   1.637   4.829  12.652 -2.0380  0.4178  0.7039
16153TIP3    H269951   1.570   4.888  12.529 -1.7944  0.8390  0.7726
16154TIP3   OH269952   1.304   1.629  13.737 -0.5479  0.0929  0.1103
16154TIP3    H169953   1.296   1.671  13.823 -1.2375 -0.7019  0.4489
16154TIP3    H269954   1.232   1.664  13.686  1.3469  2.5644 -1.0574
16155TIP3   OH269955   3.244   3.120  13.639  0.3416 -0.6940  0.2548
16155TIP3    H169956   3.321   3.112  13.695  0.8427  0.7920 -0.1697
16155TIP3    H269957   3.215   3.210  13.652 -0.0655 -0.5957 -1.1874
16156TIP3   OH269958   0.675   6.675  12.124 -0.8598  0.0806  0.6876
16156TIP3    H169959   0.651   6.628  12.045 -1.6152  1.1147  0.2812
16156TIP3    H269960   0.719   6.609  12.179 -1.0614 -0.8462 -0.2324
16157TIP3   OH269961   4.803   6.750   1.887  0.3689 -0.2841  0.4319
16157TIP3    H169962   4.721   6.792   1.910  0.5128  1.0241 -1.2773
16157TIP3    H269963   4.779   6.685   1.820  0.5853 -0.7548  0.8001
16158TIP3   OH269964   5.489   5.302   1.045 -0.2449  0.1590 -0.5630
16158TIP3    H169965   5.482   5.215   1.083 -1.1429  0.7545  0.6972
16158TIP3    H269966   5.583   5.321   1.047 -0.2704  1.4730  4.7174
16159TIP3   OH269967   6.262   1.830   6.485 -0.6603 -0.0475  0.2292
16159TIP3    H169968   6.208   1.908   6.475 -0.2973  0.4249  1.6713
16159TIP3    H269969   6.287   1.830   6.577 -0.1612 -1.5527  0.1278
16160TIP3   OH269970   4.336   4.244   2.029  0.3525  0.3940 -0.3385
16160TIP3    H169971   4.338   4.285   1.943  2.7807 -0.2955 -0.6881
16160TIP3    H269972   4.261   4.283   2.073 -0.8665  0.8642 -2.7002
16161TIP3   OH269973   3.585   5.204  11.613 -0.2015  0.8899  0.9735
16161TIP3    H169974   3.631   5.183  11.695  2.1726  1.3437 -0.1548
16161TIP3    H269975   3.575   5.121  11.568  0.2098  0.8696  0.9116
16162TIP3   OH269976   0.762   4.956  11.647 -0.0684 -0.1575 -0.1102
16162TIP3    H169977   0.856   4.965  11.659 -0.0349 -0.7613  0.0872
16162TIP3    H269978   0.750   4.961  11.552  0.2255 -0.6615 -0.1764
16163TIP3   OH269979   3.106   3.064   3.836  0.5081  0.1418  0.2783
16163TIP3    H169980   3.041   3.003   3.801  0.9267 -0.0776 -0.1256
16163TIP3    H269981   3.058   3.147   3.844  0.0980 -0.0886  0.2625
16164TIP3   OH269982   3.937   1.993   0.922  0.2567 -0.2526 -0.2390
16164TIP3    H169983   4.024   2.033   0.919 -0.0055  0.3302 -0.2404
16164TIP3    H269984   3.954   1.899   0.934  0.9270 -0.3446 -1.6885
16165TIP3   OH269985   5.210   4.688  14.737  0.0905 -0.3143  0.7131
16165TIP3    H169986   5.250   4.612  14.695 -0.9358 -1.1058  1.1207
16165TIP3    H269987   5.284   4.737  14.774  0.9877  0.2548 -1.6880
16166TIP3   OH269988   6.813   3.656  10.536  0.0196  0.7878  0.7729
16166TIP3    H169989   6.901   3.666  10.500 -0.6714 -3.6692 -3.1659
16166TIP3    H269990   6.827   3.636  10.628  3.0499  1.1895  0.4882
16167TIP3   OH269991   6.638   6.004   1.317  0.4129  0.5050  0.1848
16167TIP3    H169992   6.559   5.953   1.298 -0.0926  1.1858  0.4064
16167TIP3    H269993   6.605   6.083   1.359  1.2910  0.3873  1.1078
16168TIP3   OH269994   1.850   3.142  11.322  0.1303 -0.1448  0.5261
16168TIP3    H169995   1.792   3.073  11.353 -2.5707  1.8278  0.1576
16168TIP3    H269996   1.905   3.100  11.256 -0.8176 -2.0981  0.9191
16169TIP3   OH269997   6.582   3.911   1.365  0.3540  0.0170  0.4815
16169TIP3    H169998   6.636   3.845   1.321 -2.5645 -1.0176 -1.8703
16169TIP3    H269999   6.545   3.866   1.441  0.8637 -0.0158  0.7156
16170TIP3   OH270000   4.288   4.488   2.468  0.2054 -0.0079 -0.0976
16170TIP3    H170001   4.322   4.575   2.489 -3.4040  1.8715 -1.1603
16170TIP3    H270002   4.236   4.462   2.544 -0.1557 -0.4015 -0.4659
16171TIP3   OH270003   6.345   1.215  13.496  0.4515 -0.0343 -0.0146
16171TIP3    H170004   6.438   1.215  13.476  0.2668  0.2072 -0.9211
16171TIP3    H270005   6.310   1.140  13.447  0.3479 -0.8484  1.2555
16172TIP3   OH270006   5.739   5.507  12.596 -0.0955  0.1478  0.5383
16172TIP3    H170007   5.775   5.420  12.616  1.8215  0.6868 -0.4277
16172TIP3    H270008   5.785   5.566  12.655  0.9808  0.9114 -1.0187
16173TIP3   OH270009   0.575   0.069   1.368 -0.5281 -0.0767  0.1090
16173TIP3    H170010   0.544   0.147   1.322  1.3883 -0.0297 -1.2174
16173TIP3    H270011   0.502   0.008   1.365 -1.0394  0.5809 -1.4991
16174TIP3   OH270012   1.271   5.365  11.710  0.3558  0.0780  0.3635
16174TIP3    H170013   1.181   5.341  11.688  1.1860 -2.4343 -0.6744
16174TIP3    H270014   1.284   5.329  11.798  0.1231  1.1646  0.8538
16175TIP3   OH270015   1.134   2.321   1.786 -0.4484 -0.9069  0.1267
16175TIP3    H170016   1.128   2.231   1.816  0.0826 -0.5903  1.2376
16175TIP3    H270017   1.178   2.316   1.701 -1.1610 -1.7494 -0.2106
16176TIP3   OH270018   3.185   3.443  16.849  0.1029  0.3092  0.4510
16176TIP3    H170019   3.127   3.415  16.778  0.9679 -0.9495  0.2024
16176TIP3    H270020   3.258   3.485  16.806 -0.0115  0.7559  0.6890
16177TIP3   OH270021   4.549   2.143   1.304 -0.1430 -0.1900  0.7340
16177TIP3    H170022   4.535   2.231   1.339 -1.8230 -0.5817  1.1191
16177TIP3    H270023   4.555   2.088   1.382 -2.5832 -0.8809  0.4948
16178TIP3   OH270024   6.498   4.071  11.547  0.0979  0.1932  0.2558
16178TIP3    H170025   6.562   3.999  11.540  0.1781  0.1364  1.3673
16178TIP3    H270026   6.414   4.027  11.555 -0.2412  0.2717 -2.1484
16179TIP3   OH270027   5.610   1.500   0.734  0.2912 -0.6051 -0.2934
16179TIP3    H170028   5.605   1.427   0.672 -0.4077 -0.7324 -0.0940
16179TIP3    H270029   5.704   1.517   0.743  0.5105 -1.9996  0.2781
16180TIP3   OH270030   2.890   6.549   2.463 -0.0662  0.8674  0.0587
16180TIP3    H170031   2.808   6.583   2.427 -0.4861 -1.0090 -0.8864
16180TIP3    H270032   2.866   6.515   2.549  0.2264  2.3482  0.7457
16181TIP3   OH270033   4.074   2.459   6.041 -0.2201  0.7157 -0.0383
16181TIP3    H170034   4.044   2.389   6.098 -0.9673  0.6870 -0.4484
16181TIP3    H270035   4.169   2.454   6.045 -0.2447 -0.7150 -0.5211
16182TIP3   OH270036   1.017   2.522   0.690 -0.4125  0.6582  0.2197
16182TIP3    H170037   0.939   2.575   0.676 -1.3402 -0.6212  0.4157
16182TIP3    H270038   0.988   2.451   0.746  0.3896 -0.9847 -1.3565
16183TIP3   OH270039   3.888   5.498  15.320 -0.3280 -0.4637 -0.1158
16183TIP3    H170040   3.899   5.579  15.370 -1.5447 -1.0286  1.1303
16183TIP3    H270041   3.929   5.516  15.236  1.5628  0.6276  0.9601
16184TIP3   OH270042   4.548   4.995  13.687 -0.0422  0.1922  0.0329
16184TIP3    H170043   4.539   4.981  13.593 -0.8475 -0.1991  0.1618
16184TIP3    H270044   4.474   5.051  13.710  0.7679  1.2117  0.2584
16185TIP3   OH270045   5.885   5.051  16.282  0.0092 -0.0915 -0.2135
16185TIP3    H170046   5.918   5.064  16.192  0.6007  0.7399  0.1076
16185TIP3    H270047   5.796   5.085  16.280 -0.1007 -0.3969 -0.5729
16186TIP3   OH270048   2.034   4.798  13.075  0.6343 -0.0023 -0.0277
16186TIP3    H170049   2.001   4.835  13.157 -1.1714 -0.9683 -0.2666
16186TIP3    H270050   2.125   4.775  13.094  0.2057 -0.3673  1.7708
16187TIP3   OH270051   2.963   4.515   2.401  0.0089 -0.2129 -0.2528
16187TIP3    H170052   2.893   4.507   2.465  0.4927 -1.0028  0.1900
16187TIP3    H270053   3.019   4.585   2.435 -1.4757  1.6733 -1.5055
16188TIP3   OH270054   0.828   1.629  15.380 -0.3058 -0.0152 -0.2070
16188TIP3    H170055   0.865   1.685  15.448  0.3447 -1.7658  0.9443
16188TIP3    H270056   0.904   1.587  15.340 -0.7919 -0.1747 -0.9840
16189TIP3   OH270057   0.643   2.751  15.531 -0.8141  0.1439 -0.5886
16189TIP3    H170058   0.563   2.798  15.555  0.1767  1.6134  0.0057
16189TIP3    H270059   0.613   2.665  15.503 -2.3094 -1.1417  4.0528
16190TIP3   OH270060   2.043   6.189  11.731  0.1860  0.1848 -0.0262
16190TIP3    H170061   2.001   6.241  11.662 -3.2186 -0.1244  1.6216
16190TIP3    H270062   2.103   6.250  11.773  1.4045  0.7368 -2.3548
16191TIP3   OH270063   6.305   2.844   2.986 -0.0327 -0.7332  0.2319
16191TIP3    H170064   6.398   2.869   2.986 -0.1342 -0.2618  1.3908
16191TIP3    H270065   6.259   2.927   2.995 -0.4907 -1.0858  1.3683
16192TIP3   OH270066   1.148   1.437   4.155 -0.8589 -0.5131 -0.0152
16192TIP3    H170067   1.111   1.354   4.186  0.6762 -1.1261  0.2461
16192TIP3    H270068   1.231   1.445   4.202 -0.3992  0.5492 -0.9850
16193TIP3   OH270069   4.276   1.628  11.475 -0.3007  0.1209 -0.0155
16193TIP3    H170070   4.333   1.628  11.398  0.0289  0.5981  0.2270
16193TIP3    H270071   4.334   1.606  11.548 -0.6142 -0.3390  0.0932
16194TIP3   OH270072   4.087   5.305  12.680 -0.2367 -0.0119  0.4848
16194TIP3    H170073   4.170   5.329  12.640 -0.3190 -1.1558 -0.4085
16194TIP3    H270074   4.086   5.209  12.679 -2.3246 -0.0479 -1.2340
16195TIP3   OH270075   3.992   1.955  13.421 -0.4636 -0.4257  0.3742
16195TIP3    H170076   4.079   1.963  13.382 -0.0165  1.0993  1.5712
16195TIP3    H270077   3.978   1.861  13.432  2.3245 -0.6648  2.9095
16196TIP3   OH270078   5.833   5.971  14.252 -0.0816  0.1231 -0.3221
16196TIP3    H170079   5.795   5.913  14.185 -1.1262  0.7896 -0.3338
16196TIP3    H270080   5.839   5.916  14.330  0.7064 -0.5252 -0.8247
16197TIP3   OH270081   1.429   6.053   0.660  0.3450  0.3983  1.0040
16197TIP3    H170082   1.441   5.979   0.719 -1.2288 -0.0358  0.8188
16197TIP3    H270083   1.439   6.130   0.716  1.6283  0.0587  1.2679
16198TIP3   OH270084   5.860   0.837   2.102 -0.0773 -0.4986  0.0280
16198TIP3    H170085   5.853   0.760   2.159 -0.6270  0.2956  1.0613
16198TIP3    H270086   5.782   0.889   2.122  0.8501  0.8838  0.1769
16199TIP3   OH270087   2.374   2.901  14.741 -0.3541 -0.1368  0.6811
16199TIP3    H170088   2.361   2.987  14.780  0.5167  0.2118  0.2289
16199TIP3    H270089   2.298   2.889  14.683 -1.6009 -0.6130  2.3375
16200TIP3   OH270090   1.812   3.851  14.228  0.1721  0.1613  0.9276
16200TIP3    H170091   1.820   3.944  14.245 -0.4276 -0.0788  2.6328
16200TIP3    H270092   1.730   3.842  14.179  1.2960  0.7190 -1.1728
16201TIP3   OH270093   2.594   5.674  13.897 -0.7035  0.4411 -0.4900
16201TIP3    H170094   2.653   5.692  13.823  1.4737  1.9191  1.4685
16201TIP3    H270095   2.588   5.757  13.943  0.0637 -0.9557  2.3471
16202TIP3   OH270096   6.038   4.224   4.205  0.0917 -0.0163 -0.6425
16202TIP3    H170097   5.943   4.228   4.212  0.1596  2.1433 -0.2871
16202TIP3    H270098   6.065   4.313   4.186  2.1338 -0.3628  0.2970
16203TIP3   OH270099   5.104   6.278  11.245  0.3279 -0.0795 -0.3343
16203TIP3    H170100   5.162   6.317  11.179 -0.6754 -1.1537 -1.9297
16203TIP3    H270101   5.019   6.320  11.231  0.2670  0.2178  0.8021
16204TIP3   OH270102   5.811   6.160  13.540 -0.2348  0.6994 -0.0182
16204TIP3    H170103   5.875   6.156  13.611  0.2070 -2.6699 -0.4631
16204TIP3    H270104   5.726   6.155  13.585 -0.0375  0.8642  0.3798
16205TIP3   OH270105   1.050   6.220   0.113  0.2065 -0.4788 -0.2881
16205TIP3    H170106   1.122   6.282   0.118  1.4106 -1.7330 -1.2584
16205TIP3    H270107   1.063   6.175   0.029 -1.7396 -0.7122 -0.5167
16206TIP3   OH270108   3.877   0.137   2.757 -0.2239 -0.0019 -0.0969
16206TIP3    H170109   3.894   0.133   2.851  0.4577 -0.0501 -0.2119
16206TIP3    H270110   3.871   0.230   2.738 -2.3876 -0.0038  0.3132
16207TIP3   OH270111   1.150   4.973  14.900 -0.4124  1.0305 -1.0804
16207TIP3    H170112   1.209   4.933  14.837  0.9545 -1.0267  1.2948
16207TIP3    H270113   1.066   4.979  14.855  0.3957 -0.6464 -2.9411
16208TIP3   OH270114   2.157   6.623   0.382 -0.1522  0.2638  0.1398
16208TIP3    H170115   2.236   6.678   0.381  0.4485 -0.5779 -1.2050
16208TIP3    H270116   2.190   6.534   0.397 -0.5855 -0.4226 -2.5839
16209TIP3   OH270117   4.254   0.712   1.129  0.4065  0.5978 -0.0981
16209TIP3    H170118   4.327   0.770   1.151  0.6017  0.2868  0.0742
16209TIP3    H270119   4.243   0.657   1.206 -0.4777  1.1119  0.1631
16210TIP3   OH270120   1.960   1.171   5.007  0.0605  0.0378 -0.2322
16210TIP3    H170121   1.865   1.176   4.999 -0.3966 -3.4701  1.0622
16210TIP3    H270122   1.980   1.214   5.090 -0.5129  0.0532 -0.0999
16211TIP3   OH270123   6.187   4.475  14.276 -0.3531 -0.2950 -0.3918
16211TIP3    H170124   6.145   4.544  14.223 -0.0224  0.0961 -0.1509
16211TIP3    H270125   6.213   4.520  14.357  0.6164 -0.5130 -0.5742
16212TIP3   OH270126   4.586   1.902  15.305 -0.2061 -0.4659 -0.1699
16212TIP3    H170127   4.610   1.992  15.328 -2.5173 -0.0011  0.6954
16212TIP3    H270128   4.536   1.911  15.224 -1.2451 -0.8084  0.4043
16213TIP3   OH270129   5.520   5.699  15.231 -0.1461 -0.0826 -0.3494
16213TIP3    H170130   5.536   5.784  15.190  0.3310  0.0214  0.0482
16213TIP3    H270131   5.581   5.695  15.304  0.3735 -1.0854 -0.8138
16214TIP3   OH270132   5.547   3.562   0.525  0.2488  0.0917  0.0481
16214TIP3    H170133   5.456   3.592   0.527 -0.1908 -1.1986  0.2552
16214TIP3    H270134   5.587   3.612   0.453 -0.7987  0.1997 -0.4786
16215TIP3   OH270135   1.272   1.701   1.850 -0.3922  0.2183 -0.2245
16215TIP3    H170136   1.311   1.655   1.776  0.9187 -0.2774  0.7474
16215TIP3    H270137   1.269   1.793   1.823 -1.5327 -0.1717 -1.5402
16216TIP3   OH270138   3.632   1.846  12.000 -0.3177  0.1514 -0.3190
16216TIP3    H170139   3.711   1.900  11.993 -0.4687  0.4503  0.1935
16216TIP3    H270140   3.601   1.837  11.910  0.1019  0.3331 -0.4837
16217TIP3   OH270141   5.221   4.851  17.230 -0.2183 -0.1783 -0.1206
16217TIP3    H170142   5.266   4.783  17.279 -0.5365 -0.1885  0.1631
16217TIP3    H270143   5.150   4.805  17.184  0.1500 -0.1901 -0.6894
16218TIP3   OH270144   2.322   0.092  11.383  0.3383 -0.1779  0.6876
16218TIP3    H170145   2.402   0.105  11.331 -0.4948  1.0643 -0.3452
16218TIP3    H270146   2.316   0.170  11.438 -0.9005  0.4545 -0.2943
16219TIP3   OH270147   2.630   4.057  13.366 -0.4481  0.2736 -0.0363
16219TIP3    H170148   2.721   4.040  13.342 -0.5697  0.3008 -0.5125
16219TIP3    H270149   2.590   4.093  13.287 -0.8465  0.3582  0.2024
16220TIP3   OH270150   6.333   4.638   1.240 -0.4211 -0.2069 -0.5886
16220TIP3    H170151   6.313   4.698   1.312  0.7939  1.3638 -1.5069
16220TIP3    H270152   6.383   4.567   1.281  0.1300  0.5891  0.1336
16221TIP3   OH270153   0.421   6.084   2.049  0.1656 -0.0492  0.4574
16221TIP3    H170154   0.330   6.079   2.018 -0.6986 -0.9824  2.9022
16221TIP3    H270155   0.457   5.997   2.032 -0.4776 -0.7346  2.3987
16222TIP3   OH270156   0.471   2.976  15.580 -0.0151 -0.7936 -0.2613
16222TIP3    H170157   0.409   2.999  15.510 -0.0503  2.8333  0.7457
16222TIP3    H270158   0.549   3.029  15.561  0.8409 -1.4732  1.2007
16223TIP3   OH270159   6.491   1.968   0.520 -0.0513  0.6475 -0.1437
16223TIP3    H170160   6.569   1.937   0.473 -1.9030 -0.5374 -2.6747
16223TIP3    H270161   6.474   1.901   0.586  0.8429  0.7402  0.1959
16224TIP3   OH270162   1.434   1.195   4.650 -0.1200  0.2978 -0.1902
16224TIP3    H170163   1.405   1.104   4.648  0.4855  0.1053 -1.0000
16224TIP3    H270164   1.370   1.241   4.597  0.3054  0.1021 -0.8874
16225TIP3   OH270165   6.199   2.368  13.622  0.6317 -0.8107  0.3391
16225TIP3    H170166   6.281   2.336  13.657 -0.1273 -2.4629  0.7012
16225TIP3    H270167   6.150   2.289  13.599 -0.5903  0.1440 -0.4919
16226TIP3   OH270168   5.745   6.382   3.749  0.5577 -0.1269 -0.2991
16226TIP3    H170169   5.679   6.387   3.818  0.7106 -0.5374 -0.1192
16226TIP3    H270170   5.810   6.448   3.772  0.6580 -0.3309  0.0015
16227TIP3   OH270171   2.810   4.662   3.129  0.4717  0.1760 -0.3887
16227TIP3    H170172   2.888   4.700   3.170  0.8588 -0.7355 -0.2627
16227TIP3    H270173   2.748   4.735   3.124  0.6809  0.4908  1.1543
16228TIP3   OH270174   1.409   3.638   5.528  0.6734  0.3713 -0.0872
16228TIP3    H170175   1.477   3.655   5.462  1.1737 -0.2093  0.2565
16228TIP3    H270176   1.412   3.543   5.540 -0.2241  0.3376 -0.0792
16229TIP3   OH270177   4.951   4.433  13.181  0.2522 -0.2067 -0.6854
16229TIP3    H170178   4.969   4.501  13.116  0.2830  0.4820  0.0345
16229TIP3    H270179   4.993   4.354  13.146 -1.0669 -0.2588 -2.2893
16230TIP3   OH270180   1.232   4.405  11.256 -0.0341  0.3309  0.0153
16230TIP3    H170181   1.154   4.350  11.267  0.7818 -0.6148  1.5730
16230TIP3    H270182   1.212   4.462  11.183 -1.9426 -0.3177 -0.0151
16231TIP3   OH270183   1.080   2.712   2.132 -0.2960  0.1509  0.3122
16231TIP3    H170184   1.015   2.644   2.151 -0.3471 -0.1672 -0.9068
16231TIP3    H270185   1.032   2.794   2.137  0.0490  0.2773  3.1391
16232TIP3   OH270186   2.813   1.469   5.700 -0.2743 -0.0152  0.1696
16232TIP3    H170187   2.887   1.503   5.750  0.0465 -1.1387  0.4742
16232TIP3    H270188   2.818   1.515   5.616 -1.1801  2.3678  1.3108
16233TIP3   OH270189   0.939   3.819  12.247 -0.5133 -0.0322 -0.6086
16233TIP3    H170190   0.900   3.895  12.206  1.1562  1.3532  0.2267
16233TIP3    H270191   1.013   3.796  12.191 -1.5906 -1.7395 -1.4182
16234TIP3   OH270192   3.217   3.904   0.093  0.3520 -0.0183 -0.1651
16234TIP3    H170193   3.169   3.847   0.033  0.1549 -0.7436  0.6657
16234TIP3    H270194   3.172   3.988   0.086 -1.2873 -0.7681  0.8390
16235TIP3   OH270195   3.744   4.613  11.577  0.1509 -0.2196 -0.6716
16235TIP3    H170196   3.733   4.543  11.641  0.0165 -0.4193 -0.9131
16235TIP3    H270197   3.812   4.669  11.614 -0.6908  0.2758  0.1771
16236TIP3   OH270198   2.066   5.881  16.492 -0.1536 -0.1041  0.4366
16236TIP3    H170199   2.092   5.800  16.449 -0.6815  0.2989 -0.6569
16236TIP3    H270200   2.137   5.943  16.473 -0.6891  0.2580 -0.3972
16237TIP3   OH270201   3.343   3.669   1.946  0.4819 -0.1043  0.0279
16237TIP3    H170202   3.276   3.621   1.994  0.4983 -0.5183 -0.3622
16237TIP3    H270203   3.405   3.602   1.917  0.2094  0.0814 -1.0110
16238TIP3   OH270204   0.587   2.163   5.191  1.0699 -0.4817  0.0632
16238TIP3    H170205   0.531   2.234   5.161 -1.7815 -2.1849  0.9654
16238TIP3    H270206   0.601   2.109   5.113  1.1716 -0.2190 -0.0985
16239TIP3   OH270207   0.256   5.161   3.328 -0.2166  0.0383 -0.5652
16239TIP3    H170208   0.211   5.240   3.299  0.2745 -0.0664 -1.6594
16239TIP3    H270209   0.325   5.147   3.263 -1.0232 -1.9292 -1.0736
16240TIP3   OH270210   2.426   4.224   4.390 -0.3421  0.8904 -0.0636
16240TIP3    H170211   2.461   4.140   4.421 -1.5457  0.1179 -0.7073
16240TIP3    H270212   2.493   4.257   4.330 -0.7061 -0.6223 -1.3904
16241TIP3   OH270213   6.518   4.365  14.240 -0.5960 -0.7475  0.0303
16241TIP3    H170214   6.451   4.304  14.272 -0.4846 -1.1498 -0.4985
16241TIP3    H270215   6.599   4.315  14.243 -0.4670 -0.5526 -0.1947
16242TIP3   OH270216   4.750   2.597   5.508  0.4318  0.2766 -0.5382
16242TIP3    H170217   4.751   2.653   5.430  1.3276 -1.2868 -1.6991
16242TIP3    H270218   4.719   2.655   5.578 -2.9899  1.0965 -2.4927
16243TIP3   OH270219   6.473   6.515   3.211 -0.3887 -0.2206  0.7781
16243TIP3    H170220   6.379   6.528   3.226 -0.3192  0.3877  0.7011
16243TIP3    H270221   6.478   6.475   3.124 -0.5625  0.0255  0.6522
16244TIP3   OH270222   4.984   0.203   3.219  0.0025 -0.2521  0.2220
16244TIP3    H170223   4.918   0.152   3.171 -0.8991  2.3913 -1.5534
16244TIP3    H270224   4.960   0.192   3.311 -0.0763 -3.0304 -0.0509
16245TIP3   OH270225   1.201   0.876  12.520  0.5336  0.4635 -0.2413
16245TIP3    H170226   1.153   0.861  12.438  0.4838 -0.3874 -0.0705
16245TIP3    H270227   1.248   0.793  12.535  2.0270  1.2520 -0.3805
16246TIP3   OH270228   2.949   3.997  13.560 -0.3500 -0.0372  0.0828
16246TIP3    H170229   3.014   4.017  13.493 -2.2173 -1.4483 -2.3308
16246TIP3    H270230   2.988   3.926  13.610  1.3371  1.4477  0.9628
16247TIP3   OH270231   4.027   4.033  15.172  0.3062  0.3088  0.0103
16247TIP3    H170232   4.082   4.093  15.120  0.7982  1.4007  1.7170
16247TIP3    H270233   4.076   4.020  15.253 -0.3471 -1.5245  0.1529
16248TIP3   OH270234   4.839   1.721  16.762  0.1847 -0.0994 -0.3188
16248TIP3    H170235   4.865   1.753  16.676  0.8402 -2.9557 -1.3094
16248TIP3    H270236   4.907   1.754  16.822  0.6268  0.5625 -1.1679
16249TIP3   OH270237   0.493   4.006  13.516  0.5649  0.2906 -0.3677
16249TIP3    H170238   0.407   4.013  13.556  1.5096  1.1103  1.6349
16249TIP3    H270239   0.499   4.083  13.458  0.1101  0.4713 -0.1782
16250TIP3   OH270240   3.137   1.835   1.648 -0.1092 -0.1982 -0.3293
16250TIP3    H170241   3.079   1.832   1.572  0.0103  1.5926 -0.5426
16250TIP3    H270242   3.213   1.884   1.618  0.1241  0.1688  0.8111
16251TIP3   OH270243   2.207   1.786   2.220  0.3206  0.1931  0.1114
16251TIP3    H170244   2.184   1.878   2.202  0.9082  0.2288 -0.4981
16251TIP3    H270245   2.283   1.792   2.277  0.2749  0.0823  0.1832
16252TIP3   OH270246   5.316   0.677  12.533  0.0889  0.1627 -0.2617
16252TIP3    H170247   5.267   0.644  12.607  2.2341 -0.0001  1.1862
16252TIP3    H270248   5.315   0.606  12.469 -2.2716  0.5213 -0.7223
16253TIP3   OH270249   5.196   5.667  12.674 -0.6511  0.2241  0.4097
16253TIP3    H170250   5.161   5.687  12.587  0.5935 -0.7927 -0.3506
16253TIP3    H270251   5.237   5.749  12.703 -0.9187  0.5176 -0.0224
16254TIP3   OH270252   4.907   4.041  12.882 -0.0577 -0.0272  0.2842
16254TIP3    H170253   4.950   4.064  12.965 -0.4149  0.7035  0.2736
16254TIP3    H270254   4.814   4.049  12.900 -0.1353  0.1889 -0.2041
16255TIP3   OH270255   1.906   5.913   0.691 -0.4740  0.5532  0.7050
16255TIP3    H170256   1.854   5.918   0.771 -0.6524 -0.9666  0.7070
16255TIP3    H270257   1.866   5.841   0.641  1.6022 -0.6530  0.6948
16256TIP3   OH270258   3.682   0.124   0.939 -0.1257  0.2592 -0.4632
16256TIP3    H170259   3.677   0.208   0.893 -0.9473  0.1194 -0.6568
16256TIP3    H270260   3.637   0.139   1.022 -0.6747 -0.1015 -0.6886
16257TIP3   OH270261   3.530   5.531   4.420  0.2516  0.0325  0.0444
16257TIP3    H170262   3.549   5.451   4.371  0.0813  0.8381 -1.3908
16257TIP3    H270263   3.436   5.546   4.408  0.0390 -0.1603  1.2853
16258TIP3   OH270264   1.865   5.331  13.896 -0.1339  0.2702  0.3654
16258TIP3    H170265   1.847   5.237  13.892 -1.0276  0.4573 -0.1525
16258TIP3    H270266   1.866   5.351  13.990 -2.7647  0.2527  0.4567
16259TIP3   OH270267   3.429   0.692  11.259  0.1382 -0.7182  0.3995
16259TIP3    H170268   3.412   0.729  11.345 -0.5023 -0.1733  0.0506
16259TIP3    H270269   3.510   0.735  11.230  0.2940 -0.8200  0.6766
16260TIP3   OH270270   4.829   5.634   1.643  0.0347  0.3472  0.4665
16260TIP3    H170271   4.806   5.579   1.569  2.4715  0.7987 -0.7196
16260TIP3    H270272   4.801   5.722   1.617 -0.4105  0.2918  0.7361
16261TIP3   OH270273   2.255   3.556   6.181  0.0818 -0.1179 -0.0214
16261TIP3    H170274   2.308   3.527   6.255 -2.2314 -3.1573  0.6650
16261TIP3    H270275   2.165   3.557   6.215 -0.7017  1.6632 -1.9469
16262TIP3   OH270276   2.010   0.438  10.571  0.3032  0.2328 -0.2257
16262TIP3    H170277   2.095   0.428  10.615  0.0932  0.9608  0.3695
16262TIP3    H270278   1.964   0.503  10.623 -1.0134 -0.8604  0.0458
16263TIP3   OH270279   1.182   2.583  16.684  0.7745 -0.0468 -0.0072
16263TIP3    H170280   1.198   2.678  16.684  1.0665 -0.0957 -0.2135
16263TIP3    H270281   1.221   2.553  16.766  1.4901 -0.1216 -0.3691
16264TIP3   OH270282   1.561   4.063  16.127  0.4385  0.3529  0.0136
16264TIP3    H170283   1.554   3.981  16.176 -1.3802  0.0925 -0.5853
16264TIP3    H270284   1.653   4.070  16.105  0.8164 -0.9625  1.0401
16265TIP3   OH270285   4.812   1.635  17.066  0.4704 -0.2821  0.7543
16265TIP3    H170286   4.859   1.714  17.039 -0.7995  0.0319 -0.6883
16265TIP3    H270287   4.799   1.646  17.160  1.4937  0.5618  0.8242
16266TIP3   OH270288   2.362   0.054   4.129  0.0140  0.5207 -0.0568
16266TIP3    H170289   2.355   0.146   4.153  0.3249 -0.0870  2.6401
16266TIP3    H270290   2.327   0.049   4.040  0.6943  3.3416 -0.5517
16267TIP3   OH270291   5.625   4.843  13.996 -0.7970 -0.5872  0.0340
16267TIP3    H170292   5.660   4.927  14.026 -0.1684 -0.7901 -0.1221
16267TIP3    H270293   5.642   4.842  13.902  2.5691 -2.3972  0.4890
16268TIP3   OH270294   1.145   0.902   4.800  0.5100  0.4259  0.1192
16268TIP3    H170295   1.182   0.960   4.867 -1.1847  3.1895 -1.1508
16268TIP3    H270296   1.208   0.903   4.729  1.1872 -0.5536  0.6921
16269TIP3   OH270297   6.117   4.146  13.615 -0.4853 -0.3175 -0.2013
16269TIP3    H170298   6.135   4.178  13.526 -1.6582 -2.5350 -1.3356
16269TIP3    H270299   6.092   4.054  13.602 -1.8274 -0.3850  2.3197
16270TIP3   OH270300   2.834   3.580   0.386 -0.3469 -0.3178 -0.4346
16270TIP3    H170301   2.790   3.612   0.308 -0.4705 -1.7463 -0.9764
16270TIP3    H270302   2.810   3.642   0.455 -1.3715  0.1718 -1.2247
16271TIP3   OH270303   1.212   3.399   5.465  0.4414  0.3387  0.0663
16271TIP3    H170304   1.142   3.445   5.419  0.0922 -1.2475 -1.0492
16271TIP3    H270305   1.197   3.420   5.558 -1.7624 -0.2920 -0.1006
16272TIP3   OH270306   2.414   0.056  15.052 -0.2357  0.5953  0.0248
16272TIP3    H170307   2.457   0.141  15.042 -1.4968  1.3426  0.7597
16272TIP3    H270308   2.330   0.065  15.007 -0.9219  0.1700  1.1565
16273TIP3   OH270309   3.235   3.382   2.398 -0.3502 -0.1598 -0.3524
16273TIP3    H170310   3.281   3.457   2.435  0.3318 -2.3136  3.8500
16273TIP3    H270311   3.296   3.344   2.335  1.1087  0.4114  0.6754
16274TIP3   OH270312   0.447   0.594   3.032  0.4443 -0.2492  0.3463
16274TIP3    H170313   0.381   0.528   3.008 -1.7567  0.5501  3.5668
16274TIP3    H270314   0.510   0.546   3.085 -1.3817  0.1476  3.0457
16275TIP3   OH270315   1.768   3.721  10.917 -0.3221  0.4086  0.8740
16275TIP3    H170316   1.710   3.706  10.843 -0.8942 -1.9866  1.7024
16275TIP3    H270317   1.793   3.633  10.946  1.9767  1.3270  1.9122
16276TIP3   OH270318   4.871   1.042  11.017 -0.6487  0.0004 -0.2337
16276TIP3    H170319   4.796   1.088  11.056  0.1819  0.4265  0.9081
16276TIP3    H270320   4.943   1.058  11.078  0.2739 -0.7576 -1.1004
16277TIP3   OH270321   0.985   1.388  15.117 -0.4848 -0.0380 -0.4189
16277TIP3    H170322   1.023   1.303  15.139 -4.3515 -1.7962  0.3773
16277TIP3    H270323   1.008   1.445  15.191  0.7437 -0.8859 -0.1277
16278TIP3   OH270324   0.217   2.533   5.317 -0.3239  0.2411 -0.3541
16278TIP3    H170325   0.175   2.515   5.233  0.8625  1.4500 -1.2517
16278TIP3    H270326   0.190   2.623   5.337 -0.5513 -0.0198  0.5453
16279TIP3   OH270327   1.406   6.042   2.318 -0.7560  0.0788  0.2757
16279TIP3    H170328   1.371   6.037   2.407  0.6028 -0.1648  0.8289
16279TIP3    H270329   1.329   6.039   2.262 -1.6231 -0.2132  1.4321
16280TIP3   OH270330   2.672   6.267  11.641  0.1782  0.2830  0.0069
16280TIP3    H170331   2.686   6.181  11.603 -1.3736  0.4916 -1.1781
16280TIP3    H270332   2.760   6.304  11.652  0.7894 -0.7650 -1.1258
16281TIP3   OH270333   6.423   3.548  11.535  0.9179 -0.8394 -0.2670
16281TIP3    H170334   6.436   3.641  11.516  0.2897 -0.1203  2.4404
16281TIP3    H270335   6.333   3.529  11.507  1.0999 -0.6823 -0.9630
16282TIP3   OH270336   4.353   5.352   6.406 -0.1670  0.3551  0.1739
16282TIP3    H170337   4.372   5.446   6.406 -0.7575  0.4784  0.0857
16282TIP3    H270338   4.268   5.345   6.362  0.9793 -0.4363 -2.0741
16283TIP3   OH270339   4.904   5.002  16.147  0.0121  0.4797  0.2087
16283TIP3    H170340   4.970   4.960  16.093  0.9798  0.3702  1.4490
16283TIP3    H270341   4.872   5.075  16.093  0.7987  0.2453 -0.5894
16284TIP3   OH270342   5.988   0.384   2.773 -0.7411  0.1137  0.0108
16284TIP3    H170343   6.084   0.376   2.776 -0.8439 -0.8030  1.5629
16284TIP3    H270344   5.961   0.384   2.865 -2.0814  2.8048 -0.2796
16285TIP3   OH270345   1.480   1.300   6.104  0.5425  0.1180 -0.6856
16285TIP3    H170346   1.504   1.260   6.188  1.0278  1.2126 -0.2925
16285TIP3    H270347   1.386   1.282   6.096  0.6262 -0.5839 -0.2402
16286TIP3   OH270348   6.666   3.369  13.444  0.0131 -0.1591 -0.1720
16286TIP3    H170349   6.692   3.348  13.354  1.5147 -0.6565  0.3495
16286TIP3    H270350   6.608   3.298  13.469 -0.2960 -0.0970 -0.6892
16287TIP3   OH270351   3.127   2.759   2.137 -0.7561  0.4947  0.3603
16287TIP3    H170352   3.117   2.667   2.115 -1.5569  0.8097 -0.6365
16287TIP3    H270353   3.208   2.763   2.188  1.1602 -0.3138 -2.4092
16288TIP3   OH270354   0.780   6.762  12.616  0.0758 -0.0618  0.9120
16288TIP3    H170355   0.760   6.749  12.709 -0.0542  0.8180  1.0176
16288TIP3    H270356   0.811   6.853  12.610 -1.6050  0.4990 -0.1614
16289TIP3   OH270357   4.977   6.170   3.070  0.1546  0.3945 -0.1520
16289TIP3    H170358   5.036   6.230   3.025  0.1094 -0.0985 -0.8706
16289TIP3    H270359   5.019   6.155   3.155  0.6946  0.6112 -0.3776
16290TIP3   OH270360   3.442   4.897  11.804  0.1736  0.0013 -0.4477
16290TIP3    H170361   3.367   4.957  11.794  2.4432  3.1155 -0.1678
16290TIP3    H270362   3.432   4.862  11.892 -1.8974 -1.1663 -1.0644
16291TIP3   OH270363   0.269   1.113   2.341 -0.2553 -0.5680 -0.1277
16291TIP3    H170364   0.321   1.043   2.301 -0.3007 -0.3058 -0.6534
16291TIP3    H270365   0.246   1.170   2.268 -1.5141 -0.8233  0.0475
16292TIP3   OH270366   1.725   5.277  15.185  0.3162 -0.4667 -0.4106
16292TIP3    H170367   1.784   5.351  15.174 -0.3930 -0.1784 -2.8136
16292TIP3    H270368   1.771   5.204  15.143 -0.5925 -0.4524 -1.4696
16293TIP3   OH270369   5.367   2.204  14.758  0.3806 -0.2816  0.0332
16293TIP3    H170370   5.363   2.287  14.711 -0.0993  0.2235  0.9355
16293TIP3    H270371   5.303   2.213  14.829  0.1650 -1.5069  0.0174
16294TIP3   OH270372   0.504   6.147  14.940  0.4911 -0.2186  0.4088
16294TIP3    H170373   0.572   6.188  14.993  1.2635 -1.8635  0.7426
16294TIP3    H270374   0.549   6.112  14.864 -0.1983 -0.1673 -0.0343
16295TIP3   OH270375   3.108   5.960  14.072 -0.1259 -0.1383 -0.6873
16295TIP3    H170376   3.127   5.898  14.002  0.6356 -0.5120 -0.1745
16295TIP3    H270377   3.162   5.930  14.146 -0.5482  0.5164 -0.0933
16296TIP3   OH270378   6.434   2.402   2.324 -0.1598  0.0774  0.2297
16296TIP3    H170379   6.344   2.433   2.338 -0.1096 -0.1110  1.0088
16296TIP3    H270380   6.428   2.307   2.331 -0.5517 -0.3222 -3.4572
16297TIP3   OH270381   0.101   2.277   1.650  0.1270  0.4875  0.0253
16297TIP3    H170382   0.048   2.337   1.702  0.9248  0.4521  0.9172
16297TIP3    H270383   0.103   2.316   1.563  0.2103  1.4904  0.4670
16298TIP3   OH270384   2.977   2.221  12.863 -0.4101  0.0972 -0.2438
16298TIP3    H170385   2.975   2.228  12.768  0.4825  0.5562 -0.2331
16298TIP3    H270386   3.063   2.253  12.888 -0.7252  0.2065  0.7418
16299TIP3   OH270387   3.583   1.120  11.115  0.0425 -0.3603  0.0642
16299TIP3    H170388   3.632   1.056  11.063  0.2388 -0.9245  0.9426
16299TIP3    H270389   3.641   1.196  11.119 -0.3633  0.0543 -1.3339
16300TIP3   OH270390   5.648   2.058   0.908  0.3516  0.4874  0.1971
16300TIP3    H170391   5.696   1.988   0.952  1.6308  1.1376 -0.1140
16300TIP3    H270392   5.644   2.031   0.816 -0.5933  0.0614  0.3545
16301TIP3   OH270393   0.462   2.903  15.125 -0.3261  0.4126  0.6071
16301TIP3    H170394   0.409   2.912  15.204 -0.1542  1.0914  0.6516
16301TIP3    H270395   0.504   2.988  15.114 -0.4811  0.3868 -0.3166
16302TIP3   OH270396   6.780   0.060  12.144 -0.0314 -0.8106  0.2415
16302TIP3    H170397   6.799  -0.024  12.102 -0.0898 -0.6119 -0.1805
16302TIP3    H270398   6.685   0.063  12.150  0.0089 -1.4292  1.5992
16303TIP3   OH270399   5.403   0.633  11.920  0.2296 -0.0928  0.1024
16303TIP3    H170400   5.409   0.715  11.871  0.3813 -0.9552 -1.3650
16303TIP3    H270401   5.321   0.593  11.890 -0.9209  0.4135  2.3105
16304TIP3   OH270402   6.811   1.921  15.625  0.0021 -0.5168 -0.4460
16304TIP3    H170403   6.895   1.895  15.589  1.7855  1.3451  2.0491
16304TIP3    H270404   6.785   1.849  15.682  0.8742 -0.3189  0.2126
16305TIP3   OH270405   1.525   5.458   2.054  0.8729 -0.5596  0.0934
16305TIP3    H170406   1.534   5.513   1.977 -1.2835 -0.4414 -0.1337
16305TIP3    H270407   1.546   5.370   2.023 -1.1081 -0.7150 -1.0026
16306TIP3   OH270408   5.186   2.561  10.772 -0.1184 -0.1222 -0.3580
16306TIP3    H170409   5.150   2.649  10.761 -2.2116 -0.8530  0.2315
16306TIP3    H270410   5.239   2.547  10.694 -1.7335  0.7509 -1.6663
16307TIP3   OH270411   3.814   2.322   1.932 -0.3312  0.0123  0.0047
16307TIP3    H170412   3.748   2.286   1.992 -0.1574 -1.7997 -0.8030
16307TIP3    H270413   3.879   2.362   1.990 -0.9698 -0.2652  0.9435
16308TIP3   OH270414   6.544   3.024  15.788  0.1066  0.4793 -0.3857
16308TIP3    H170415   6.500   2.998  15.869  0.1758  0.4507 -0.3572
16308TIP3    H270416   6.632   3.051  15.816  0.0227  0.7811 -0.4093
16309TIP3   OH270417   0.258   6.141   0.039  0.7083  0.0782 -0.5641
16309TIP3    H170418   0.353   6.150   0.046  0.8077  0.4910 -2.0764
16309TIP3    H270419   0.223   6.192   0.113  1.6570 -1.2771  0.8821
16310TIP3   OH270420   4.397   5.576   3.243  0.5315 -0.0144 -0.0345
16310TIP3    H170421   4.413   5.492   3.285 -3.1296  0.0896  1.9431
16310TIP3    H270422   4.339   5.556   3.169  0.8027  0.6111 -0.4301
16311TIP3   OH270423   0.335   2.956   3.429  0.3682  0.4648 -0.2398
16311TIP3    H170424   0.329   2.863   3.451  0.8390  0.4070 -0.3491
16311TIP3    H270425   0.330   3.001   3.513  0.0302  0.3508 -0.1949
16312TIP3   OH270426   3.090   4.174  13.832 -0.0139 -0.2301  0.2286
16312TIP3    H170427   3.011   4.222  13.809 -0.2138 -0.3476  0.6583
16312TIP3    H270428   3.123   4.217  13.910  0.9936  0.5436 -0.5946
16313TIP3   OH270429   6.178   5.799   2.069  0.5290 -0.8743 -0.0725
16313TIP3    H170430   6.230   5.758   2.138  1.6510 -1.1236 -1.0200
16313TIP3    H270431   6.162   5.729   2.006  0.6246 -0.3695 -0.6732
16314TIP3   OH270432   1.279   4.920   4.851 -0.3506  0.5129 -0.1939
16314TIP3    H170433   1.233   4.868   4.917 -1.6414  2.1323  0.2628
16314TIP3    H270434   1.266   5.011   4.879 -0.0653  1.1937 -2.1305
16315TIP3   OH270435   0.301   1.696  12.206 -0.2052 -0.1877 -0.0324
16315TIP3    H170436   0.324   1.722  12.296 -0.2638  0.9365 -0.3292
16315TIP3    H270437   0.335   1.767  12.151  0.8520 -1.4047 -1.0281
16316TIP3   OH270438   0.530   3.405  15.802 -0.0457 -1.0312  0.3437
16316TIP3    H170439   0.561   3.341  15.737 -1.2453 -0.7406 -0.5459
16316TIP3    H270440   0.611   3.437  15.843  0.8077 -0.8890 -1.3344
16317TIP3   OH270441   4.487   2.795  14.648 -0.2661  0.2786 -0.2136
16317TIP3    H170442   4.467   2.864  14.584 -0.7887 -1.1315 -1.6627
16317TIP3    H270443   4.442   2.822  14.728 -2.0352  0.7431 -1.2925
16318TIP3   OH270444   3.199   1.140   1.870 -0.0894 -0.2469 -0.2077
16318TIP3    H170445   3.226   1.229   1.890  1.2399 -0.6207 -0.2324
16318TIP3    H270446   3.238   1.087   1.940 -0.4611 -0.8636 -0.4583
16319TIP3   OH270447   1.813   5.902  17.131 -0.0145  0.6988  0.1984
16319TIP3    H170448   1.723   5.908  17.097 -0.0793 -0.9830 -0.0422
16319TIP3    H270449   1.853   5.832  17.079  1.8424  2.2193 -0.5186
16320TIP3   OH270450   4.298   5.495  12.861 -0.0074  0.5257 -0.0369
16320TIP3    H170451   4.347   5.543  12.928 -0.8959 -0.0560  1.0639
16320TIP3    H270452   4.215   5.541  12.854 -0.1048  0.2964 -0.3945
16321TIP3   OH270453   5.857   2.339   5.269 -0.3130 -0.2606 -0.0797
16321TIP3    H170454   5.947   2.319   5.294  0.0164  2.2162  0.9887
16321TIP3    H270455   5.806   2.321   5.348 -1.2008 -3.7011 -1.2788
16322TIP3   OH270456   6.499   3.185   3.572  0.1935  0.4015 -0.1370
16322TIP3    H170457   6.511   3.101   3.527  0.3459 -0.8186  2.0667
16322TIP3    H270458   6.450   3.163   3.651  2.0375  2.0212  1.5610
16323TIP3   OH270459   5.476   4.387  12.827 -0.2914 -0.0622 -0.4090
16323TIP3    H170460   5.503   4.359  12.914 -0.5236  0.3251 -0.2143
16323TIP3    H270461   5.545   4.354  12.769 -0.2945 -0.5907 -0.1228
16324TIP3   OH270462   2.649   5.394  16.205  0.2137  0.0071 -0.0410
16324TIP3    H170463   2.709   5.464  16.232  1.5110 -0.8814 -0.5054
16324TIP3    H270464   2.617   5.357  16.287  1.8103 -0.7344  0.2911
16325TIP3   OH270465   5.834   4.763  16.264  0.0360 -0.0054  0.1318
16325TIP3    H170466   5.859   4.751  16.172  0.1894 -2.4262  0.4176
16325TIP3    H270467   5.831   4.858  16.276 -1.1775  0.4104 -2.6784
16326TIP3   OH270468   6.375   1.153  14.829 -0.5128  0.2809 -0.0239
16326TIP3    H170469   6.372   1.061  14.802  3.3978  0.5591 -2.0973
16326TIP3    H270470   6.300   1.193  14.786 -0.9879 -1.5316 -0.9778
16327TIP3   OH270471   6.487   5.835  13.402 -0.0608  0.2081 -0.0174
16327TIP3    H170472   6.467   5.919  13.445  0.4420  0.3989 -0.1568
16327TIP3    H270473   6.582   5.836  13.390 -0.1575 -0.0043 -0.8096
16328TIP3   OH270474   6.232   0.524   1.740 -0.1731 -0.1299  0.1208
16328TIP3    H170475   6.315   0.532   1.787 -0.2188 -1.2413  0.4315
16328TIP3    H270476   6.166   0.547   1.805 -0.0984  1.0698 -0.2197
16329TIP3   OH270477   4.462   1.744   4.040 -0.6066 -0.0568 -0.0180
16329TIP3    H170478   4.376   1.732   4.081  0.2574 -1.2471  1.5144
16329TIP3    H270479   4.502   1.815   4.090 -0.5954  0.3636 -0.6088
16330TIP3   OH270480   1.208   6.042  15.918 -0.1312  0.4558  0.8575
16330TIP3    H170481   1.284   5.991  15.947 -1.3810 -1.1004  1.5109
16330TIP3    H270482   1.142   5.977  15.895 -1.2603  1.7727  0.2295
16331TIP3   OH270483   0.498   0.420  16.707 -0.6127  0.3328 -0.0849
16331TIP3    H170484   0.505   0.515  16.702 -0.6043  0.4249  1.3049
16331TIP3    H270485   0.587   0.390  16.723 -0.5730  0.0551 -0.7689
16332TIP3   OH270486   4.586   4.235   3.620 -0.2984  0.3270  0.2745
16332TIP3    H170487   4.614   4.297   3.553  1.1962 -1.2262 -0.6446
16332TIP3    H270488   4.515   4.278   3.665 -2.5023  0.8872 -3.3277
16333TIP3   OH270489   4.928   2.329   1.901  0.2507  0.1357 -0.1568
16333TIP3    H170490   4.984   2.278   1.841 -2.2930 -1.8040 -1.0590
16333TIP3    H270491   4.925   2.416   1.862  1.9541  0.0684 -0.5291
16334TIP3   OH270492   1.073   3.603   4.598  0.5980  0.2215  0.6415
16334TIP3    H170493   0.984   3.637   4.586 -0.2648 -1.8077  0.8097
16334TIP3    H270494   1.109   3.598   4.509 -0.0918 -0.5196  0.3951
16335TIP3   OH270495   0.514   1.433  14.655  0.0599 -0.3971  0.4183
16335TIP3    H170496   0.592   1.380  14.672  0.1962 -0.2817  0.1475
16335TIP3    H270497   0.494   1.417  14.563 -0.6836 -1.0266  0.6804
16336TIP3   OH270498   5.877   0.758  14.486 -0.1005 -0.3608  0.2639
16336TIP3    H170499   5.942   0.747  14.555 -0.6783 -0.0862  0.8670
16336TIP3    H270500   5.814   0.687  14.501 -0.0460 -0.5073 -0.1905
16337TIP3   OH270501   3.455   3.365  11.778 -0.8503 -0.1499 -0.1039
16337TIP3    H170502   3.397   3.390  11.850  0.3440 -0.1680  0.8952
16337TIP3    H270503   3.535   3.334  11.821 -0.1161 -0.1852 -1.4413
16338TIP3   OH270504   5.628   0.274   4.548  0.0585  0.3994  0.3139
16338TIP3    H170505   5.558   0.289   4.611 -0.9431 -1.3549 -0.2921
16338TIP3    H270506   5.618   0.345   4.484 -0.6627  0.6305  0.6730
16339TIP3   OH270507   5.934   5.674   5.745 -0.0272 -0.1738  0.3183
16339TIP3    H170508   5.867   5.664   5.813 -0.0951 -0.3194  0.2299
16339TIP3    H270509   6.013   5.698   5.793 -0.3055  0.6960  0.3679
16340TIP3   OH270510   3.531   0.968   4.697  0.0327  0.4821 -0.0432
16340TIP3    H170511   3.503   0.941   4.784  1.2743 -0.3298  0.1365
16340TIP3    H270512   3.598   0.903   4.672  0.9713  1.7103 -0.8446
16341TIP3   OH270513   6.240   2.310  11.459  0.2418 -0.2673  0.5636
16341TIP3    H170514   6.170   2.374  11.450 -0.5417 -0.9687  1.4711
16341TIP3    H270515   6.196   2.231  11.490  0.8737 -1.8966 -2.3510
16342TIP3   OH270516   4.004   5.071  11.933  0.0339 -0.4333  0.4153
16342TIP3    H170517   4.005   5.129  11.857 -2.3059 -1.0389 -0.1583
16342TIP3    H270518   4.053   5.119  12.000  0.7117  0.8617 -0.9434
16343TIP3   OH270519   5.793   2.081   2.215  0.1590 -0.2959  0.4315
16343TIP3    H170520   5.794   2.153   2.278  0.8592 -1.5174  1.8948
16343TIP3    H270521   5.832   2.117   2.136 -1.7221  1.5932  0.2822
16344TIP3   OH270522   3.961   1.713  15.574 -0.3290 -0.4832 -0.0975
16344TIP3    H170523   3.980   1.728  15.482 -1.1452 -2.5367 -0.6635
16344TIP3    H270524   4.043   1.732  15.619 -0.0459  0.9755 -1.1599
16345TIP3   OH270525   3.634   0.306   0.014 -0.3211  0.2500  0.0250
16345TIP3    H170526   3.569   0.298   0.084 -1.4892  1.1528 -0.9106
16345TIP3    H270527   3.665   0.397   0.020  1.1383 -0.2610  0.6724
16346TIP3   OH270528   0.085   3.037   6.256 -0.4783 -0.3688 -0.0378
16346TIP3    H170529   0.034   3.089   6.319  0.0920  0.9113 -0.5964
16346TIP3    H270530   0.154   2.996   6.309 -0.8375 -0.4338  0.3862
16347TIP3   OH270531   1.837   5.326   2.551 -0.1523 -0.4119  0.1525
16347TIP3    H170532   1.862   5.240   2.586 -0.4739 -0.0718  1.2648
16347TIP3    H270533   1.746   5.314   2.522  0.1752 -0.7460 -0.7704
16348TIP3   OH270534   0.356   2.354  15.618 -0.0468  0.4336  0.1797
16348TIP3    H170535   0.287   2.289  15.633 -1.4537  1.6820 -0.6710
16348TIP3    H270536   0.410   2.316  15.549 -0.3083 -0.2428  0.3364
16349TIP3   OH270537   5.083   2.667  15.570 -0.4502 -0.6404  0.0919
16349TIP3    H170538   5.100   2.576  15.595  2.0624 -0.3647 -0.3003
16349TIP3    H270539   5.101   2.717  15.650 -1.5754 -0.4454  0.2347
16350TIP3   OH270540   4.854   3.452  10.832 -0.0206  0.0847  0.3147
16350TIP3    H170541   4.800   3.506  10.890  0.9045  1.2961  0.0951
16350TIP3    H270542   4.930   3.430  10.885  0.2251  0.1092 -0.0274
16351TIP3   OH270543   1.614   6.027  15.643  0.1295 -0.2138  0.0332
16351TIP3    H170544   1.666   6.005  15.721 -1.8601  0.7729  1.7350
16351TIP3    H270545   1.532   5.979  15.655 -0.7693  1.0853 -0.7033
16352TIP3   OH270546   5.992   0.209  11.057 -0.5266 -0.3781  0.4121
16352TIP3    H170547   6.016   0.117  11.043  1.7596  0.0338  1.1543
16352TIP3    H270548   5.952   0.236  10.975 -1.5794 -2.1186  0.2977
16353TIP3   OH270549   0.633   1.540   1.135 -0.1410 -0.0619  0.4088
16353TIP3    H170550   0.617   1.445   1.131 -0.0052 -0.1647  1.9539
16353TIP3    H270551   0.596   1.567   1.219  0.0891  1.2150  0.1120
16354TIP3   OH270552   4.151   3.752  14.897 -0.0662 -0.3244 -0.4512
16354TIP3    H170553   4.090   3.735  14.969  1.5961 -0.4709  1.0032
16354TIP3    H270554   4.160   3.669  14.851  0.1600 -0.6985  0.2591
16355TIP3   OH270555   3.071   5.723   1.646 -0.2396 -0.5190  0.1176
16355TIP3    H170556   3.135   5.719   1.576 -0.7414 -0.7555 -0.3362
16355TIP3    H270557   3.122   5.744   1.725  0.4172 -0.9311 -0.1923
16356TIP3   OH270558   4.198   3.959  13.297  0.1852 -0.2226 -0.0809
16356TIP3    H170559   4.103   3.944  13.300  0.1168  0.2838  0.8506
16356TIP3    H270560   4.215   3.985  13.207 -0.4909 -0.7729 -0.3771
16357TIP3   OH270561   2.024   1.964   5.383  0.3739 -0.0627 -0.1200
16357TIP3    H170562   1.946   1.931   5.428  0.2291  0.0743 -0.2746
16357TIP3    H270563   2.088   1.893   5.392 -0.3357 -0.9131 -1.5403
16358TIP3   OH270564   1.125   1.941  12.548  0.3886 -0.5265  0.2459
16358TIP3    H170565   1.127   1.850  12.577 -0.9830  0.1648  2.8171
16358TIP3    H270566   1.125   1.936  12.453  1.8522 -3.1367  0.2846
16359TIP3   OH270567   0.578   1.118  15.109 -0.1073 -0.0599 -0.4985
16359TIP3    H170568   0.537   1.100  15.024  0.1672  1.8398 -1.0850
16359TIP3    H270569   0.512   1.093  15.173 -0.2275 -1.7605 -1.2460
16360TIP3   OH270570   1.177   3.800  16.841 -0.5572 -0.0399 -0.2921
16360TIP3    H170571   1.172   3.874  16.780  1.7128  0.1319 -0.3271
16360TIP3    H270572   1.215   3.837  16.921 -0.6385 -0.9017  0.1580
16361TIP3   OH270573   2.981   1.456  15.917 -0.3686 -0.2101  0.2389
16361TIP3    H170574   2.921   1.445  15.843  0.9107 -0.2513 -0.8305
16361TIP3    H270575   3.023   1.371  15.926 -1.1268 -0.4613  1.5991
16362TIP3   OH270576   4.060   3.354   3.701 -0.4167 -0.1504  0.2798
16362TIP3    H170577   3.966   3.334   3.694 -0.6059  0.7766  0.0388
16362TIP3    H270578   4.067   3.446   3.675  0.3419  0.2713  1.8864
16363TIP3   OH270579   0.538   2.296   6.418 -0.1919 -0.5089  0.1811
16363TIP3    H170580   0.612   2.264   6.470 -0.2989 -2.2107 -0.6410
16363TIP3    H270581   0.465   2.296   6.479  0.1943 -0.1095  0.6547
16364TIP3   OH270582   0.437   5.492   2.472  0.2757 -0.1592 -0.4098
16364TIP3    H170583   0.503   5.423   2.463  0.7960  0.4603 -1.5294
16364TIP3    H270584   0.433   5.510   2.566  0.5211 -1.3198 -0.1564
16365TIP3   OH270585   3.638   3.800  13.082 -0.3525 -0.1331 -0.5232
16365TIP3    H170586   3.702   3.850  13.133 -0.2246  0.6016 -1.3758
16365TIP3    H270587   3.690   3.757  13.015 -0.5190 -1.1073 -0.0482
16366TIP3   OH270588   6.757   3.067  14.216  0.0920  0.2439  0.3043
16366TIP3    H170589   6.705   2.990  14.194 -0.9970  0.4070  2.1238
16366TIP3    H270590   6.696   3.140  14.211  0.6576  0.7404  0.4636
16367TIP3   OH270591   0.463   0.099  13.339 -0.0150 -0.0302  0.2594
16367TIP3    H170592   0.526   0.036  13.304 -0.6065 -0.2555 -0.4238
16367TIP3    H270593   0.419   0.134  13.262 -1.6051 -0.8002  0.7648
16368TIP3   OH270594   0.663   4.571   3.884  0.0294  0.0856 -0.6405
16368TIP3    H170595   0.572   4.568   3.855 -0.0166  1.0206 -0.6143
16368TIP3    H270596   0.686   4.664   3.884  1.0734 -0.1536 -0.9168
16369TIP3   OH270597   1.729   3.936   2.501 -0.4591 -0.9063 -0.8275
16369TIP3    H170598   1.772   3.994   2.564 -2.0339  0.5766 -1.0521
16369TIP3    H270599   1.801   3.901   2.449  0.6407 -0.0097  0.0247
16370TIP3   OH270600   2.435   5.541   5.342 -0.0941  0.0979 -0.1905
16370TIP3    H170601   2.475   5.457   5.319  0.6216  0.6001 -0.8312
16370TIP3    H270602   2.492   5.607   5.302 -1.2665  0.8565 -0.6578
16371TIP3   OH270603   3.439   6.164   1.400 -0.0092 -0.7044  0.2801
16371TIP3    H170604   3.402   6.227   1.462  0.1395  0.6804 -0.9779
16371TIP3    H270605   3.365   6.138   1.346  0.1561 -0.7273  0.0657
16372TIP3   OH270606   6.744   4.458   4.226  0.1839  0.3258 -0.0029
16372TIP3    H170607   6.749   4.510   4.146 -2.8325 -0.9183 -1.1446
16372TIP3    H270608   6.754   4.522   4.297  1.4865  1.6663 -1.3409
16373TIP3   OH270609   2.901   1.903  12.075 -0.2556 -0.2849 -0.0311
16373TIP3    H170610   2.890   1.947  11.991 -0.1794  0.5234  0.3743
16373TIP3    H270611   2.900   1.974  12.140  1.5923 -0.6779  0.5053
16374TIP3   OH270612   2.050   6.771   5.137  0.2083  0.1056 -0.2089
16374TIP3    H170613   2.015   6.691   5.176 -0.5758  0.6048  0.1320
16374TIP3    H270614   2.003   6.779   5.053  0.9367 -0.2601 -0.6658
16375TIP3   OH270615   4.703   3.813  14.836 -0.3531 -0.4883  0.0347
16375TIP3    H170616   4.793   3.845  14.842  0.1525 -1.5877 -1.1168
16375TIP3    H270617   4.669   3.853  14.755 -1.8741  2.0975  1.8185
16376TIP3   OH270618   0.404   4.682  14.988  0.4120  0.2671  0.2215
16376TIP3    H170619   0.463   4.729  14.928 -0.8115  0.6563 -0.7090
16376TIP3    H270620   0.344   4.634  14.931 -1.2703  1.2487  1.0850
16377TIP3   OH270621   4.409   0.413  11.371  0.0861 -0.2171  0.0895
16377TIP3    H170622   4.332   0.462  11.342 -0.0369 -0.8255 -0.6421
16377TIP3    H270623   4.483   0.471  11.353 -0.1834  0.3364  0.7188
16378TIP3   OH270624   1.568   5.359   4.242  0.2448 -0.3355  0.0145
16378TIP3    H170625   1.610   5.276   4.264  0.2075 -0.1708  0.7459
16378TIP3    H270626   1.497   5.368   4.307 -0.3199 -0.1653 -0.6164
16379TIP3   OH270627   5.518   5.071  13.405  0.0449  0.0866  0.1157
16379TIP3    H170628   5.510   5.103  13.315  1.0696 -0.9954 -0.3920
16379TIP3    H270629   5.592   5.011  13.402 -0.3561 -0.5158  1.5377
16380TIP3   OH270630   2.803   6.343   1.509  0.0086  0.2359 -0.3713
16380TIP3    H170631   2.744   6.296   1.451 -0.9980  0.9145  0.0732
16380TIP3    H270632   2.788   6.435   1.489  1.6454  0.4042 -0.9333
16381TIP3   OH270633   0.094   4.229  11.251 -0.2675  0.4868  0.1273
16381TIP3    H170634   0.083   4.230  11.156 -0.4250  1.2170  0.1485
16381TIP3    H270635   0.063   4.315  11.280 -1.3231 -0.1582  0.9744
16382TIP3   OH270636   4.617   2.238  11.543 -0.1786 -0.3055 -0.0430
16382TIP3    H170637   4.651   2.325  11.566  2.1201 -1.2695  0.5606
16382TIP3    H270638   4.623   2.234  11.448 -0.1151  0.1418 -0.0587
16383TIP3   OH270639   6.523   1.845   3.906  0.0286 -0.1290  0.3084
16383TIP3    H170640   6.457   1.807   3.848  0.5794 -0.6901  0.0345
16383TIP3    H270641   6.558   1.919   3.857 -0.0371 -0.1412  0.2430
16384TIP3   OH270642   0.254   2.421  13.849 -0.4823  0.1702 -0.4546
16384TIP3    H170643   0.298   2.503  13.826 -1.8386  0.1848 -3.5005
16384TIP3    H270644   0.245   2.374  13.766 -0.5466 -2.7185  1.0431
16385TIP3   OH270645   6.093   2.369   1.442 -0.3999  0.0672  0.6220
16385TIP3    H170646   6.138   2.286   1.427  0.4195  0.4619  0.8437
16385TIP3    H270647   6.068   2.366   1.534 -1.8165 -0.6063  0.2578
16386TIP3   OH270648   6.463   5.963   2.823  0.0121  0.2050 -0.1706
16386TIP3    H170649   6.461   6.031   2.755 -0.6415 -1.2695 -1.6977
16386TIP3    H270650   6.387   5.983   2.879 -0.9316  0.0309 -1.3466
16387TIP3   OH270651   1.150   1.511  14.897 -0.5284  0.3772  0.7624
16387TIP3    H170652   1.119   1.491  14.809  0.0925 -0.3212  0.6922
16387TIP3    H270653   1.081   1.478  14.955 -1.2227  1.3803  0.5334
16388TIP3   OH270654   6.661   4.041   0.046 -0.5106 -0.4384  0.2401
16388TIP3    H170655   6.659   3.963  -0.009  0.3550  0.6946 -1.4729
16388TIP3    H270656   6.745   4.038   0.091 -0.1078 -0.1013 -0.4686
16389TIP3   OH270657   3.074   4.143   0.083  0.0514 -0.2659 -0.2492
16389TIP3    H170658   3.114   4.206   0.024  0.2032  0.4258  0.5694
16389TIP3    H270659   2.991   4.182   0.108  0.6304  0.1453  1.1213
16390TIP3   OH270660   4.650   2.148   4.623 -0.1092  0.3287 -0.2904
16390TIP3    H170661   4.719   2.131   4.688  0.8885  0.4809 -1.2799
16390TIP3    H270662   4.569   2.148   4.674  0.6186  0.1761  0.9143
16391TIP3   OH270663   1.265   0.983  14.237  0.5151  0.2758 -0.2838
16391TIP3    H170664   1.277   1.063  14.288  0.5803 -0.2126  0.5008
16391TIP3    H270665   1.353   0.952  14.220  0.5275  0.9716 -1.6079
16392TIP3   OH270666   6.172   3.867   3.472 -0.5921  0.2518  0.0415
16392TIP3    H170667   6.241   3.812   3.436 -0.8418 -0.3123  0.3962
16392TIP3    H270668   6.193   3.874   3.565 -1.2174 -0.2618  0.2331
16393TIP3   OH270669   0.238   4.373  12.526  0.3895  0.2660  0.0307
16393TIP3    H170670   0.323   4.338  12.501  0.6556  0.9496 -0.0478
16393TIP3    H270671   0.205   4.415  12.447 -0.6064 -1.0844 -0.3095
16394TIP3   OH270672   3.245   2.431   1.697  0.5651 -0.3864 -0.2184
16394TIP3    H170673   3.220   2.438   1.605 -1.7984  0.3139  0.4259
16394TIP3    H270674   3.224   2.340   1.721 -0.4010 -0.1090  0.0314
16395TIP3   OH270675   5.557   6.515  15.556  0.4829 -0.3044  0.6242
16395TIP3    H170676   5.529   6.424  15.570  0.8765 -0.4040  0.7863
16395TIP3    H270677   5.648   6.516  15.584  0.3632  0.2381  1.0047
16396TIP3   OH270678   4.545   4.688  12.144  0.0600  0.4146 -0.0946
16396TIP3    H170679   4.633   4.703  12.109  0.3969 -0.5202  0.2949
16396TIP3    H270680   4.538   4.592  12.149 -0.2432  0.4961  1.6410
16397TIP3   OH270681   0.647   4.383  13.014  0.2518  0.2884  0.1060
16397TIP3    H170682   0.663   4.409  13.104 -1.6622 -1.2369  0.9557
16397TIP3    H270683   0.564   4.426  12.991  0.8885  0.9485 -1.0917
16398TIP3   OH270684   2.007   0.938  11.799 -0.2113  0.0835  0.1464
16398TIP3    H170685   1.948   0.872  11.835  0.6939 -0.3804  0.7957
16398TIP3    H270686   2.095   0.908  11.822  0.2501  1.1868 -0.0911
16399TIP3   OH270687   5.531   5.823   4.111  0.2578  0.0456  0.1717
16399TIP3    H170688   5.562   5.835   4.201  0.4242  0.6666  0.0376
16399TIP3    H270689   5.516   5.729   4.103  1.2005 -0.1402  0.5316
16400TIP3   OH270690   6.537   3.139  13.543  0.2422  0.5492 -0.6070
16400TIP3    H170691   6.460   3.082  13.537  1.7318 -1.4833 -1.5811
16400TIP3    H270692   6.602   3.098  13.486  2.0271  2.2730  0.0699
16401TIP3   OH270693   1.714   0.905   1.415  0.2505 -0.1290  0.3105
16401TIP3    H170694   1.713   0.942   1.327 -0.9620 -0.2041  0.2804
16401TIP3    H270695   1.629   0.863   1.424 -0.2381  1.1535  2.0619
16402TIP3   OH270696   5.667   3.057   0.879  0.1386  0.0803  0.2435
16402TIP3    H170697   5.714   3.129   0.838 -0.7260  1.1634  1.0788
16402TIP3    H270698   5.599   3.100   0.931 -1.1774 -1.3866 -0.2041
16403TIP3   OH270699   5.277   0.947   3.291  0.2327  0.0661  0.5197
16403TIP3    H170700   5.361   0.991   3.303  0.3295  0.1249 -0.3097
16403TIP3    H270701   5.237   0.992   3.216 -0.1712 -0.5015  0.3892
16404TIP3   OH270702   6.614   0.969  14.477  1.0213  0.5138 -0.1042
16404TIP3    H170703   6.557   1.045  14.486  0.8257  0.2165  1.5223
16404TIP3    H270704   6.575   0.917  14.407 -0.5629  0.4510  0.7926
16405TIP3   OH270705   0.723   2.602   6.138  0.0003  0.2604 -0.2171
16405TIP3    H170706   0.765   2.622   6.222 -0.2806 -0.8834  0.2168
16405TIP3    H270707   0.715   2.507   6.138  0.2386  0.2275 -1.6727
16406TIP3   OH270708   2.222   6.194  16.248 -0.1729  0.1350  0.1522
16406TIP3    H170709   2.255   6.109  16.221 -0.7626 -0.6087  1.6232
16406TIP3    H270710   2.298   6.239  16.285  0.1481  0.2818 -0.6638
16407TIP3   OH270711   2.593   0.215  13.272  0.6700 -0.3413  0.0947
16407TIP3    H170712   2.686   0.192  13.274  0.9684  0.8201  0.3109
16407TIP3    H270713   2.548   0.141  13.312  1.4712 -1.0370 -0.2656
16408TIP3   OH270714   6.453   1.571   4.565  0.7031  0.1087 -0.0552
16408TIP3    H170715   6.527   1.556   4.624  0.4243  0.7911  0.4911
16408TIP3    H270716   6.427   1.661   4.582  1.2186  0.6548 -1.9326
16409TIP3   OH270717   2.669   6.444  14.550  0.2924  0.9890  0.2034
16409TIP3    H170718   2.626   6.456  14.635  1.0359  3.7348  0.2903
16409TIP3    H270719   2.740   6.383  14.568 -0.0941  0.8334  1.3441
16410TIP3   OH270720   4.393   5.605  16.831 -0.1086  0.0009 -0.1620
16410TIP3    H170721   4.469   5.612  16.774  0.6837  0.9555  0.9495
16410TIP3    H270722   4.417   5.654  16.910 -0.9020 -1.7447  1.2635
16411TIP3   OH270723   4.081   1.654  13.178  0.2056  0.0841 -0.5718
16411TIP3    H170724   4.138   1.585  13.211  0.3744 -0.0539 -1.1330
16411TIP3    H270725   4.008   1.608  13.137  0.4384  0.2212 -1.1609
16412TIP3   OH270726   3.573   4.683   3.917 -0.4487 -0.0868  0.0645
16412TIP3    H170727   3.499   4.736   3.946 -0.3000 -0.4689  1.1928
16412TIP3    H270728   3.569   4.604   3.971  1.5383  0.4757  1.1383
16413TIP3   OH270729   1.904   6.463   4.450  0.2367 -0.1282  0.2735
16413TIP3    H170730   1.937   6.383   4.409  1.5742 -0.3160  1.6395
16413TIP3    H270731   1.880   6.437   4.539  1.0946  1.0506  0.8803
16414TIP3   OH270732   6.109   1.994   1.224  0.2676  0.2985  0.4767
16414TIP3    H170733   6.016   2.008   1.206 -0.0602  0.1766  1.9581
16414TIP3    H270734   6.153   2.028   1.146 -1.0151  0.2024 -0.3340
16415TIP3   OH270735   4.505   0.242  14.585 -0.1772  0.0804  0.3643
16415TIP3    H170736   4.459   0.301  14.644 -0.5621  1.8602 -1.6009
16415TIP3    H270737   4.524   0.165  14.639 -1.9570  0.8980  2.3277
16416TIP3   OH270738   3.305   6.609  16.336 -0.0522 -0.1722  0.4676
16416TIP3    H170739   3.334   6.571  16.253  0.6257 -0.3040  0.7573
16416TIP3    H270740   3.264   6.692  16.311  2.0618  0.8618  0.1373
16417TIP3   OH270741   4.868   6.480   2.731  0.1261 -0.5256 -0.4406
16417TIP3    H170742   4.944   6.491   2.787  0.1472  0.7054 -0.6861
16417TIP3    H270743   4.854   6.385   2.728 -0.0509 -0.6287  1.8701
16418TIP3   OH270744   5.895   2.010   5.454 -0.6109  0.8666  0.2195
16418TIP3    H170745   5.860   1.944   5.394  1.8073  0.9655 -1.4176
16418TIP3    H270746   5.887   1.970   5.541  0.3937 -1.4659 -0.6794
16419TIP3   OH270747   2.776   0.464  15.939  0.1453  0.1729  0.5477
16419TIP3    H170748   2.709   0.409  15.898  0.4381  0.9554 -1.0687
16419TIP3    H270749   2.735   0.495  16.020 -0.7830 -0.7664  0.4525
16420TIP3   OH270750   2.325   4.488  13.984  0.5020  0.2627  0.1123
16420TIP3    H170751   2.248   4.445  14.022  0.7903 -1.4781 -1.1782
16420TIP3    H270752   2.364   4.535  14.058 -1.3990  0.6268  0.9526
16421TIP3   OH270753   6.236   0.234   0.444 -0.1617 -0.3516 -0.2168
16421TIP3    H170754   6.174   0.295   0.403  0.1404 -0.9762 -1.6613
16421TIP3    H270755   6.228   0.252   0.538  0.1310  2.1022 -0.5847
16422TIP3   OH270756   2.121   1.561  11.540  0.6433  0.2457  0.2561
16422TIP3    H170757   2.043   1.529  11.497  0.3110 -2.9842  2.8818
16422TIP3    H270758   2.104   1.654  11.555 -1.7651  0.0730 -1.0247
16423TIP3   OH270759   0.334   6.131  16.414  0.6456 -0.0568 -1.1080
16423TIP3    H170760   0.275   6.174  16.477  3.6968  0.6769  1.4851
16423TIP3    H270761   0.341   6.041  16.445  2.0810  0.2769 -0.4045
16424TIP3   OH270762   5.989   1.463   4.494 -0.0470  0.4823  0.5768
16424TIP3    H170763   5.914   1.522   4.499 -0.8386 -0.5653  1.4150
16424TIP3    H270764   6.041   1.483   4.572 -0.4840 -0.1309  1.0335
16425TIP3   OH270765   0.314   6.224   5.600 -0.0868  0.6839  0.0893
16425TIP3    H170766   0.379   6.293   5.614 -0.9346  1.7132 -0.9039
16425TIP3    H270767   0.291   6.232   5.508 -0.8239 -0.3940  0.1677
16426TIP3   OH270768   0.738   2.652   1.832 -0.0242 -0.3179  0.5672
16426TIP3    H170769   0.779   2.717   1.775 -1.3696 -0.1240 -0.2222
16426TIP3    H270770   0.754   2.683   1.921  2.1572 -0.6437  0.3474
16427TIP3   OH270771   5.863   1.178  11.304 -0.4732 -0.3387  0.1038
16427TIP3    H170772   5.883   1.263  11.265 -0.7919  0.2283  1.1391
16427TIP3    H270773   5.768   1.170  11.296 -0.3883 -0.8380 -0.4554
16428TIP3   OH270774   4.433   4.358  16.344  0.0881  0.3454  0.1838
16428TIP3    H170775   4.459   4.448  16.366  1.6830  0.2125 -0.9919
16428TIP3    H270776   4.510   4.305  16.363 -1.3575 -1.0861  2.4276
16429TIP3   OH270777   2.341   1.325  12.787  0.6459  0.2144  0.1704
16429TIP3    H170778   2.314   1.299  12.699 -2.0672  2.5367  0.1835
16429TIP3    H270779   2.403   1.396  12.773  1.8913 -0.8318  0.1861
16430TIP3   OH270780   4.882   4.595   3.918 -0.2421  0.3383  0.6463
16430TIP3    H170781   4.803   4.600   3.865 -0.4046 -0.0148  0.8541
16430TIP3    H270782   4.947   4.647   3.869 -0.3088 -0.2042 -0.0318
16431TIP3   OH270783   6.721   2.091   4.074  0.1901 -0.4667  0.4442
16431TIP3    H170784   6.631   2.120   4.061 -1.0402 -3.0965  2.1119
16431TIP3    H270785   6.767   2.121   3.996 -2.3927 -0.0187 -1.0456
16432TIP3   OH270786   6.121   3.485   4.218 -0.3546 -0.0646 -0.5741
16432TIP3    H170787   6.121   3.572   4.178 -0.0643  0.2501  0.0954
16432TIP3    H270788   6.102   3.501   4.310 -0.7086 -0.7522 -0.5197
16433TIP3   OH270789   3.787   2.424   2.434 -0.2700 -0.3361  0.2528
16433TIP3    H170790   3.739   2.342   2.441 -1.0820  0.0300 -0.7574
16433TIP3    H270791   3.721   2.492   2.454 -0.2560  0.1849 -1.3567
16434TIP3   OH270792   5.750   2.512   3.555  0.7518  0.0923 -0.9928
16434TIP3    H170793   5.767   2.605   3.547 -0.0184  0.3256 -0.0647
16434TIP3    H270794   5.779   2.475   3.471 -2.4596  1.6923 -3.0279
16435TIP3   OH270795   5.338   3.715  14.712 -0.5123  0.0165  0.1166
16435TIP3    H170796   5.303   3.626  14.718 -1.5823  0.4045 -0.0392
16435TIP3    H270797   5.285   3.756  14.644  0.0867  0.7281  0.0682
16436TIP3   OH270798   0.091   6.727  11.674  0.0663 -0.3951  0.3027
16436TIP3    H170799   0.055   6.648  11.714 -1.1646 -0.5606 -1.1003
16436TIP3    H270800   0.077   6.795  11.740  0.0181 -1.0766  1.0164
16437TIP3   OH270801   0.598   6.238   5.475 -0.4679 -0.3027 -0.1099
16437TIP3    H170802   0.562   6.151   5.489 -1.4119 -0.3773 -2.4673
16437TIP3    H270803   0.623   6.239   5.382  3.7144  0.5073  0.8000
16438TIP3   OH270804   4.477   3.913  11.376  0.4252 -0.2564 -0.2331
16438TIP3    H170805   4.450   3.999  11.344  1.8126  0.2422 -0.1044
16438TIP3    H270806   4.518   3.871  11.300 -2.2862 -1.7952 -1.0126
16439TIP3   OH270807   6.627   1.473  15.554 -0.2265  0.1722 -0.4166
16439TIP3    H170808   6.552   1.515  15.511 -0.7654 -0.7240 -0.3713
16439TIP3    H270809   6.655   1.405  15.493 -0.4087 -0.4943  0.2227
16440TIP3   OH270810   1.849   0.550  13.599 -0.1574 -0.0221 -0.0826
16440TIP3    H170811   1.807   0.478  13.551  0.9090 -0.0945 -0.9259
16440TIP3    H270812   1.914   0.585  13.538 -0.6482  1.6601  0.3249
16441TIP3   OH270813   6.310   5.979   3.137  0.1198 -0.2714  0.3439
16441TIP3    H170814   6.381   6.036   3.109 -0.5845  0.0295 -0.8764
16441TIP3    H270815   6.234   6.037   3.144 -0.4090 -0.8944 -0.0822
16442TIP3   OH270816   6.149   5.349  13.281 -0.4869  0.3376  0.2033
16442TIP3    H170817   6.149   5.257  13.256  0.1833  0.5002 -0.4220
16442TIP3    H270818   6.205   5.353  13.358  2.9350  0.7884 -2.1102
16443TIP3   OH270819   1.775   6.177   0.732 -0.3043  0.3188 -0.0326
16443TIP3    H170820   1.824   6.255   0.759 -1.2761  0.0699  2.7134
16443TIP3    H270821   1.692   6.183   0.779 -0.5298 -2.2028  0.0260
16444TIP3   OH270822   1.232   2.305  16.214 -0.0747 -0.9093  0.2473
16444TIP3    H170823   1.261   2.357  16.139  3.2153 -1.2564  1.0920
16444TIP3    H270824   1.138   2.296  16.203 -0.0548  1.0848 -2.5151
16445TIP3   OH270825   1.199   0.561   2.093  0.1158 -0.5380 -0.3763
16445TIP3    H170826   1.119   0.528   2.134  0.7990  0.3068  1.7505
16445TIP3    H270827   1.168   0.605   2.014 -1.7586  1.1069  1.1643
16446TIP3   OH270828   0.937   1.148  15.296  0.1984  0.1098  0.1446
16446TIP3    H170829   0.850   1.156  15.258  0.1887  0.4700  0.2413
16446TIP3    H270830   0.991   1.113  15.225 -0.1173 -0.5454  0.2189
16447TIP3   OH270831   4.343   2.201  14.796 -0.5006 -0.5723 -0.4954
16447TIP3    H170832   4.297   2.274  14.839 -1.0809  0.1883 -2.3138
16447TIP3    H270833   4.279   2.167  14.733  0.7519 -0.7589 -1.7031
16448TIP3   OH270834   6.216   4.059   0.991 -0.4339 -0.0905 -0.4184
16448TIP3    H170835   6.140   4.117   0.994  0.4265  1.0738 -0.2611
16448TIP3    H270836   6.197   3.991   1.056 -1.6633 -0.2578 -0.9243
16449TIP3   OH270837   3.717   2.672   5.841 -0.3862 -0.8970  0.2649
16449TIP3    H170838   3.653   2.704   5.777  0.5246 -1.9200 -1.2033
16449TIP3    H270839   3.664   2.636   5.912 -1.4830 -2.5319 -1.3168
16450TIP3   OH270840   1.282   5.511  13.276  0.0146  0.0027 -0.3292
16450TIP3    H170841   1.302   5.524  13.183  2.2257  0.2159  0.1354
16450TIP3    H270842   1.220   5.581  13.297 -1.4494 -0.7548 -1.8801
16451TIP3   OH270843   5.447   4.725   1.996 -0.6646  0.3139  0.6213
16451TIP3    H170844   5.409   4.637   1.993 -1.1445  0.5395 -0.2505
16451TIP3    H270845   5.450   4.752   1.905  0.2263  0.8942  0.8130
16452TIP3   OH270846   2.360   5.037  16.658 -0.2299  0.1484 -0.0072
16452TIP3    H170847   2.313   4.959  16.687 -0.6836 -0.1343 -1.4202
16452TIP3    H270848   2.368   5.091  16.737 -0.7204 -0.9113  0.7944
16453TIP3   OH270849   3.944   6.148   4.950 -0.2793 -1.4290 -0.1174
16453TIP3    H170850   4.022   6.102   4.982  2.2279  1.8807 -0.9393
16453TIP3    H270851   3.953   6.150   4.855  0.2306  1.3094 -0.1083
16454TIP3   OH270852   2.199   6.202   2.706  0.6879  0.2919  0.0340
16454TIP3    H170853   2.164   6.117   2.680 -0.6148  1.1269 -1.1402
16454TIP3    H270854   2.140   6.233   2.775  1.0556  0.3194  0.3397
16455TIP3   OH270855   5.462   3.626   3.502 -0.1008 -0.1993  0.0809
16455TIP3    H170856   5.500   3.650   3.587 -2.1344 -0.7776  1.2287
16455TIP3    H270857   5.533   3.582   3.456  0.6903 -1.0794  2.0201
16456TIP3   OH270858   0.213   0.367  10.966 -0.3401  0.6527 -0.6843
16456TIP3    H170859   0.297   0.410  10.948 -1.0845  2.4575 -0.0698
16456TIP3    H270860   0.229   0.318  11.047  0.6111 -0.5798 -1.5697
16457TIP3   OH270861   4.336   4.141   6.332 -0.2722 -0.0170 -0.2652
16457TIP3    H170862   4.272   4.077   6.299 -0.1859 -0.3339  0.1728
16457TIP3    H270863   4.282   4.214   6.363 -0.4323 -0.3097  0.1589
16458TIP3   OH270864   1.226   3.930   1.778  0.3192  0.2064 -0.0290
16458TIP3    H170865   1.150   3.912   1.723 -0.5567  0.8887  0.9240
16458TIP3    H270866   1.299   3.936   1.717 -0.1656 -1.6033 -0.8711
16459TIP3   OH270867   1.548   4.726   0.090  0.1047 -0.1206  0.2410
16459TIP3    H170868   1.590   4.671   0.156  1.4920 -1.1951 -1.4339
16459TIP3    H270869   1.589   4.811   0.099  0.7417 -0.4345  0.3735
16460TIP3   OH270870   5.237   4.757   1.590  0.2123 -0.1470 -0.6719
16460TIP3    H170871   5.293   4.790   1.519 -0.2872  0.6255 -0.7135
16460TIP3    H270872   5.210   4.835   1.637  0.0078 -0.6061 -0.0178
16461TIP3   OH270873   2.992   5.448   1.630  0.2695 -0.3873  1.0594
16461TIP3    H170874   3.020   5.534   1.660  1.6247 -1.4036  2.8728
16461TIP3    H270875   3.070   5.409   1.591 -0.6539 -0.3509 -0.9315
16462TIP3   OH270876   5.624   3.696   6.233 -0.2007 -0.3117 -0.1817
16462TIP3    H170877   5.624   3.783   6.274  1.5539 -0.6180  0.5711
16462TIP3    H270878   5.580   3.640   6.296 -1.3614  0.0195 -0.6804
16463TIP3   OH270879   4.862   2.800   1.398  0.4728 -0.5272  0.2109
16463TIP3    H170880   4.816   2.757   1.326 -2.8223  0.7555  1.3554
16463TIP3    H270881   4.817   2.769   1.477 -1.5035  4.0000  1.1555
16464TIP3   OH270882   3.161   3.216  12.264 -0.5343  0.8698 -0.6832
16464TIP3    H170883   3.111   3.297  12.266 -0.6132  0.8096  0.3213
16464TIP3    H270884   3.139   3.172  12.346  0.6673  0.5388 -0.5260
16465TIP3   OH270885   3.638   4.631  11.182 -0.0796  0.0121  0.1245
16465TIP3    H170886   3.581   4.676  11.118 -1.0503 -1.8417 -0.3807
16465TIP3    H270887   3.605   4.659  11.267 -0.6151  0.3297 -0.1814
16466TIP3   OH270888   4.769   2.479   4.269 -0.1560 -0.1349 -0.3020
16466TIP3    H170889   4.742   2.498   4.359  1.4297 -0.6764  0.3302
16466TIP3    H270890   4.815   2.394   4.275  2.2430  1.0037 -1.1021
16467TIP3   OH270891   1.115   1.619  11.881  0.2842  0.0036 -0.5793
16467TIP3    H170892   1.192   1.633  11.826 -0.1452 -0.2133 -1.2528
16467TIP3    H270893   1.056   1.692  11.859  0.8637  0.9807  0.9729
16468TIP3   OH270894   5.575   0.234   6.182 -0.2953  0.5917  0.0571
16468TIP3    H170895   5.661   0.206   6.149 -0.1409  1.3297 -0.1945
16468TIP3    H270896   5.578   0.330   6.177 -0.3391  0.7398  2.0235
16469TIP3   OH270897   1.630   6.601   3.762 -0.2246 -0.9173  0.4494
16469TIP3    H170898   1.654   6.657   3.687  0.2090 -1.5737  0.0876
16469TIP3    H270899   1.621   6.662   3.835  3.5504 -0.6243  0.8684
16470TIP3   OH270900   3.483   0.647   4.771  0.4982 -0.3563 -0.2613
16470TIP3    H170901   3.571   0.678   4.748  1.3736 -3.0261 -0.8138
16470TIP3    H270902   3.438   0.639   4.687 -0.4847  1.4116  0.0499
16471TIP3   OH270903   4.178   0.332  16.658  0.6366  0.6855  0.3012
16471TIP3    H170904   4.217   0.333  16.746  1.6407 -2.0067 -0.0055
16471TIP3    H270905   4.224   0.262  16.612 -1.7824  0.0859 -1.4607
16472TIP3   OH270906   0.238   0.529   4.369  0.3476 -0.1806 -0.1556
16472TIP3    H170907   0.247   0.443   4.327 -2.2006  0.7013 -2.8673
16472TIP3    H270908   0.187   0.511   4.448  0.5412 -1.2868 -0.2660
16473TIP3   OH270909   4.841   4.366  14.851  0.4762  0.3775 -0.1757
16473TIP3    H170910   4.832   4.270  14.851 -1.8920  0.4991  1.7941
16473TIP3    H270911   4.914   4.383  14.911  1.0893 -0.1920 -0.7469
16474TIP3   OH270912   0.934   4.955   1.262  0.4881  0.2268  0.6716
16474TIP3    H170913   0.919   4.863   1.281 -1.5225 -0.1603 -2.0724
16474TIP3    H270914   1.017   4.957   1.214  0.2304 -0.2616  0.1961
16475TIP3   OH270915   5.355   3.520  12.482  0.0241 -0.0303 -0.0275
16475TIP3    H170916   5.383   3.550  12.395  0.0939  0.6371  0.2182
16475TIP3    H270917   5.316   3.434  12.466  2.4033 -1.1432 -0.3870
16476TIP3   OH270918   5.028   2.752   3.963  0.1890 -0.5922  0.0593
16476TIP3    H170919   5.098   2.726   4.023 -1.0406 -1.2447  1.2673
16476TIP3    H270920   4.973   2.674   3.954  0.2145 -0.4419 -1.7800
16477TIP3   OH270921   2.415   2.079   3.366  0.2177  0.2975 -0.5916
16477TIP3    H170922   2.366   2.004   3.332  1.3815  0.2116 -2.2188
16477TIP3    H270923   2.348   2.145   3.384 -0.8649 -1.2335  1.2795
16478TIP3   OH270924   4.161   2.129  14.614 -0.1932 -0.7924 -0.8033
16478TIP3    H170925   4.141   2.038  14.591 -0.6219 -1.2278  1.1212
16478TIP3    H270926   4.076   2.173  14.615 -0.0408 -0.4775 -1.2280
16479TIP3   OH270927   6.083   4.239   2.389  0.5074 -0.2073  0.5010
16479TIP3    H170928   6.116   4.156   2.355 -0.2116 -0.2102 -0.2123
16479TIP3    H270929   5.998   4.217   2.428  0.6553  0.0616  0.9804
16480TIP3   OH270930   3.707   1.960   3.770 -0.7781 -0.0177 -0.6561
16480TIP3    H170931   3.754   2.038   3.798 -1.0408  0.3257 -1.1663
16480TIP3    H270932   3.653   1.989   3.697 -2.0786 -0.3129  0.1467
16481TIP3   OH270933   6.178   1.546   1.807 -0.3864  0.5341 -0.1775
16481TIP3    H170934   6.104   1.501   1.766 -0.3035 -0.0496  0.3088
16481TIP3    H270935   6.138   1.611   1.865 -0.6097 -1.2593  1.8111
16482TIP3   OH270936   4.301   4.426  16.106  0.2169  0.1438 -0.1329
16482TIP3    H170937   4.331   4.381  16.185  0.8281  1.2583  0.3019
16482TIP3    H270938   4.355   4.389  16.036  2.7356  2.0450  0.6229
16483TIP3   OH270939   1.350   6.215  13.375  0.6031  0.0654 -0.3435
16483TIP3    H170940   1.388   6.184  13.293  1.4113  0.2341 -0.0398
16483TIP3    H270941   1.307   6.297  13.352  1.5213  0.5306 -0.4545
16484TIP3   OH270942   3.453   4.222   5.653  0.2948  0.9281  0.5676
16484TIP3    H170943   3.461   4.286   5.582 -1.3699  0.1641 -0.3616
16484TIP3    H270944   3.499   4.144   5.620 -0.6708  0.4982  0.2036
16485TIP3   OH270945   0.426   2.225  16.040  0.2418 -0.0965  0.3112
16485TIP3    H170946   0.423   2.320  16.050 -0.9079  0.0485 -0.9689
16485TIP3    H270947   0.460   2.192  16.123 -2.3644  1.2300  2.0523
16486TIP3   OH270948   0.887   0.715   3.805 -0.6119  0.5856 -0.1209
16486TIP3    H170949   0.804   0.718   3.757 -0.5517 -0.4074 -0.2998
16486TIP3    H270950   0.928   0.799   3.787  0.0068 -0.2248 -2.8829
16487TIP3   OH270951   0.662   1.582  14.182  0.7694 -0.4076 -0.1956
16487TIP3    H170952   0.666   1.522  14.256  0.5999  0.2111  0.3141
16487TIP3    H270953   0.674   1.669  14.220 -0.1244 -0.0120 -0.7899
16488TIP3   OH270954   6.726   1.640   1.081 -0.0371 -0.3795  0.0936
16488TIP3    H170955   6.689   1.710   1.134 -1.6099 -0.1892 -1.2036
16488TIP3    H270956   6.697   1.559   1.123  0.1975 -0.2444  0.5149
16489TIP3   OH270957   5.853   5.260  12.666  0.1475 -0.3343  0.0876
16489TIP3    H170958   5.836   5.186  12.723  0.8055 -1.0431 -0.6027
16489TIP3    H270959   5.943   5.246  12.635  0.1817  0.5964 -0.2777
16490TIP3   OH270960   2.236   4.206  13.364  0.2339  0.7243  0.1248
16490TIP3    H170961   2.260   4.234  13.275  0.4716 -2.0845 -0.7925
16490TIP3    H270962   2.161   4.148  13.350  0.1556  0.3907  1.8203
16491TIP3   OH270963   6.196   4.485  10.945  0.2444  0.1018  0.0887
16491TIP3    H170964   6.241   4.445  10.871 -0.2493  1.2838 -0.8964
16491TIP3    H270965   6.114   4.518  10.908 -0.7912 -0.7361  1.5279
16492TIP3   OH270966   5.242   2.468  11.840  0.4816  0.0395 -0.3608
16492TIP3    H170967   5.199   2.409  11.778 -0.1021  1.0616 -0.9531
16492TIP3    H270968   5.212   2.438  11.926  0.5903 -0.8336 -0.6162
16493TIP3   OH270969   3.521   4.898   3.320 -0.6231  0.3169  0.0552
16493TIP3    H170970   3.525   4.804   3.336 -2.0555  0.2531  0.1552
16493TIP3    H270971   3.539   4.937   3.406 -1.4407  0.1006  0.3319
16494TIP3   OH270972   6.609   2.714  12.833 -0.5269  0.1631  0.4249
16494TIP3    H170973   6.592   2.634  12.784  0.7737 -0.7071  1.3179
16494TIP3    H270974   6.697   2.740  12.807 -0.6920  0.9505  0.6253
16495TIP3   OH270975   6.397   0.600   0.291 -0.7082 -0.4639  0.7632
16495TIP3    H170976   6.343   0.534   0.250  0.7304 -0.7472 -0.7636
16495TIP3    H270977   6.374   0.682   0.247  0.2230 -0.6234 -0.0584
16496TIP3   OH270978   4.569   1.652  13.584 -0.4458  0.1181  0.2927
16496TIP3    H170979   4.482   1.660  13.545  0.0225 -0.5282 -0.9451
16496TIP3    H270980   4.629   1.668  13.511  0.4618 -1.1747  0.7328
16497TIP3   OH270981   1.867   6.116   0.096  0.2253 -0.1420  0.4708
16497TIP3    H170982   1.908   6.035   0.128  1.2998  0.2702  0.1589
16497TIP3    H270983   1.803   6.086   0.031  0.6785 -0.7436  0.2955
16498TIP3   OH270984   0.359   4.582  11.362  0.1326 -0.0256  0.0321
16498TIP3    H170985   0.423   4.653  11.369  0.7626 -0.2775 -2.2256
16498TIP3    H270986   0.303   4.608  11.288 -1.0968 -0.7866  0.6653
16499TIP3   OH270987   2.288   2.656   1.751 -0.2713  0.0820  0.6897
16499TIP3    H170988   2.303   2.750   1.761 -1.0280  0.0726  2.1605
16499TIP3    H270989   2.361   2.615   1.799 -0.7113 -0.0503  1.2587
16500TIP3   OH270990   2.837   2.680   2.692  0.4987 -0.2001  0.3518
16500TIP3    H170991   2.902   2.640   2.750  1.3805  0.3747 -0.2221
16500TIP3    H270992   2.852   2.774   2.701 -1.9286  0.1215  2.1245
16501TIP3   OH270993   1.227   0.867   5.457 -0.0737 -0.3654 -0.2839
16501TIP3    H170994   1.231   0.781   5.415 -1.8961 -0.1125 -1.0525
16501TIP3    H270995   1.236   0.848   5.551  0.8723 -1.2401 -0.5299
16502TIP3   OH270996   2.220   3.227  12.215  0.4819  0.1453  0.6569
16502TIP3    H170997   2.154   3.169  12.178  1.1962 -0.9620  1.0388
16502TIP3    H270998   2.218   3.209  12.309  0.6236  0.8463  0.7980
16503TIP3   OH270999   3.478   5.469   5.252  0.0082  0.6039  0.2279
16503TIP3    H171000   3.436   5.413   5.187 -0.4088  0.2008  0.8250
16503TIP3    H271001   3.571   5.471   5.227  0.2537 -1.3025  0.8233
16504TIP3   OH271002   1.768   5.090   1.704 -0.4348 -0.1755  0.6791
16504TIP3    H171003   1.794   5.109   1.614  1.2365 -1.7083  0.7697
16504TIP3    H271004   1.707   5.160   1.727 -0.4058  0.6130 -1.4127
16505TIP3   OH271005   5.575   2.315   3.653 -0.1093 -0.4253  0.2726
16505TIP3    H171006   5.584   2.259   3.730  1.1989 -1.8395 -0.8323
16505TIP3    H271007   5.665   2.327   3.623 -0.6494 -0.8667 -1.6666
16506TIP3   OH271008   3.739   1.771   2.136 -0.6082 -0.2451  0.1906
16506TIP3    H171009   3.801   1.839   2.163 -0.6235 -0.9033  2.0090
16506TIP3    H271010   3.771   1.691   2.177 -1.8593 -0.8768 -0.0110
16507TIP3   OH271011   0.981   6.215  15.952  0.4178  0.0530 -0.7509
16507TIP3    H171012   1.044   6.147  15.975  0.5317  0.2804 -0.3873
16507TIP3    H271013   1.032   6.296  15.951  0.9897 -0.1805 -4.1164
16508TIP3   OH271014   2.069   3.704   3.428  0.4121  0.1825 -0.2308
16508TIP3    H171015   2.100   3.616   3.450  1.8749  0.1103 -2.2860
16508TIP3    H271016   2.144   3.746   3.386 -1.1071  1.3872 -1.8898
16509TIP3   OH271017   3.776   0.727   0.766 -0.1863  0.8073  0.0789
16509TIP3    H171018   3.858   0.703   0.722  0.0615  0.8723  0.4936
16509TIP3    H271019   3.730   0.644   0.778  1.3865  0.2256  2.9604
16510TIP3   OH271020   4.970   3.500  12.793  0.1921  0.1226 -0.2830
16510TIP3    H171021   4.974   3.591  12.764 -1.4856  1.3685  2.8210
16510TIP3    H271022   5.050   3.488  12.845  0.4142 -0.1713 -0.6937
16511TIP3   OH271023   1.583   4.229   0.306  0.2871  0.1799  0.0515
16511TIP3    H171024   1.493   4.249   0.282  0.2457  1.9133  1.4089
16511TIP3    H271025   1.636   4.270   0.237  0.0602  0.5885  0.1172
16512TIP3   OH271026   5.733   2.528   5.666  0.0890 -0.1014 -0.8258
16512TIP3    H171027   5.816   2.571   5.687 -0.5083  0.1388  1.2792
16512TIP3    H271028   5.755   2.464   5.598  1.5833  1.3655 -1.7959
16513TIP3   OH271029   5.303   6.247   4.703 -0.0120 -0.3515 -0.6366
16513TIP3    H171030   5.303   6.279   4.613  1.4085  0.5441 -0.3399
16513TIP3    H271031   5.377   6.291   4.745 -1.1340 -0.1109  1.2088
16514TIP3   OH271032   5.553   6.309   6.013 -0.4095 -0.0875 -0.6830
16514TIP3    H171033   5.619   6.302   5.944  0.1709 -1.2761 -0.0640
16514TIP3    H271034   5.588   6.374   6.073  1.6808 -2.5773  1.0498
16515TIP3   OH271035   6.461   6.021   0.921 -0.1435  0.2550  0.1993
16515TIP3    H171036   6.422   6.015   0.834 -0.8324  1.5701  0.3911
16515TIP3    H271037   6.410   6.089   0.965  0.4752 -0.0865  1.4859
16516TIP3   OH271038   2.288   4.772   6.451 -0.3134 -0.0107  0.1538
16516TIP3    H171039   2.213   4.714   6.462  0.0600 -0.4390  0.4558
16516TIP3    H271040   2.250   4.856   6.426 -0.9501 -0.0071  1.0873
16517TIP3   OH271041   2.683   4.328  15.706 -0.3847 -0.4022  0.0395
16517TIP3    H171042   2.718   4.413  15.731  1.1902 -0.5067 -1.6353
16517TIP3    H271043   2.743   4.265  15.745 -1.0772 -0.7351  0.5868
16518TIP3   OH271044   4.510   2.616  13.140  0.8133  0.3867 -0.6081
16518TIP3    H171045   4.429   2.667  13.146  0.1847 -0.6920  0.6204
16518TIP3    H271046   4.532   2.595  13.231  0.7521 -1.9486 -1.0813
16519TIP3   OH271047   5.988   1.898  17.216  0.2255  0.5829 -0.2156
16519TIP3    H171048   5.984   1.825  17.153 -1.1085 -0.2711  0.7945
16519TIP3    H271049   5.958   1.974  17.166 -2.0698 -0.3275 -0.3389
16520TIP3   OH271050   0.711   3.890  14.829 -0.0390 -0.2403 -0.7650
16520TIP3    H171051   0.790   3.882  14.776 -0.3454 -1.9374 -1.0102
16520TIP3    H271052   0.743   3.899  14.919  0.4648 -1.2962 -0.8193
16521TIP3   OH271053   5.973   4.597  14.456  0.2542 -0.0709  0.4560
16521TIP3    H171054   5.962   4.571  14.547  0.5452  0.6730  0.7169
16521TIP3    H271055   6.067   4.615  14.448  0.3188 -0.6410 -0.1348
16522TIP3   OH271056   6.819   5.677   3.981  0.1125 -0.0050  0.4405
16522TIP3    H171057   6.783   5.667   3.893  1.2480  0.4360 -0.0984
16522TIP3    H271058   6.839   5.770   3.989  3.0022 -0.4838 -0.1075
16523TIP3   OH271059   0.631   0.349   3.699  0.3007 -0.2852 -0.4968
16523TIP3    H171060   0.663   0.358   3.789  2.5837  1.3310 -1.3567
16523TIP3    H271061   0.655   0.260   3.674 -1.4764 -1.1999  0.8261
16524TIP3   OH271062   0.817   0.220   2.943 -0.2206 -0.0193  0.2420
16524TIP3    H171063   0.798   0.309   2.913 -0.2749  0.7666  2.3968
16524TIP3    H271064   0.897   0.195   2.898 -0.3456  1.0085 -0.5893
16525TIP3   OH271065   2.957   2.202  13.306  0.7449 -0.3244 -0.1640
16525TIP3    H171066   3.024   2.193  13.374 -0.5360  1.0127  1.3344
16525TIP3    H271067   2.893   2.134  13.326  0.5774 -0.2107 -0.3096
16526TIP3   OH271068   5.217   5.306   3.332  0.5721 -0.2289  0.0376
16526TIP3    H171069   5.165   5.359   3.391  0.9524  1.3684 -1.0106
16526TIP3    H271070   5.254   5.368   3.269  3.4860 -1.3175  0.5256
16527TIP3   OH271071   3.108   3.088   0.145 -0.0062  0.0328  0.2003
16527TIP3    H171072   3.131   3.077   0.238 -0.9220  1.0897  0.5724
16527TIP3    H271073   3.116   3.182   0.130  0.2272 -0.1476 -0.8325
16528TIP3   OH271074   6.686   0.516   5.365 -0.2217  0.1711  0.1474
16528TIP3    H171075   6.710   0.423   5.362 -1.3361 -0.1092 -0.5945
16528TIP3    H271076   6.770   0.562   5.375  0.3691 -0.8968  0.2517
16529TIP3   OH271077   2.125   6.413  13.682 -0.2395  0.2221  0.4057
16529TIP3    H171078   2.094   6.496  13.647  1.4392  0.7749  0.1568
16529TIP3    H271079   2.079   6.347  13.630 -0.4296  1.0082 -0.4510
16530TIP3   OH271080   6.445   3.030   5.320 -0.3049  0.0644  0.3931
16530TIP3    H171081   6.435   3.037   5.415 -3.3018  2.1081  0.0967
16530TIP3    H271082   6.355   3.023   5.288  0.5968 -0.0486 -2.3240
16531TIP3   OH271083   6.353   6.213   5.494  0.3665 -0.3384 -0.5861
16531TIP3    H171084   6.268   6.197   5.454 -0.4693  1.7151  0.1968
16531TIP3    H271085   6.340   6.189   5.586  0.7094 -0.2719 -0.5203
16532TIP3   OH271086   0.209   5.942   3.906 -1.1232  0.0263  0.1029
16532TIP3    H171087   0.253   5.860   3.930 -1.2819 -0.8404 -2.3531
16532TIP3    H271088   0.176   5.976   3.989  0.5996 -1.4006  1.4643
16533TIP3   OH271089   6.744   5.535   3.305  0.0485  0.3937 -0.5346
16533TIP3    H171090   6.826   5.495   3.275  1.2143  0.9370  1.6930
16533TIP3    H271091   6.755   5.628   3.286  0.3549  0.5926  0.5600
16534TIP3   OH271092   1.051   2.277   1.121 -0.1437 -0.4070 -0.0849
16534TIP3    H171093   1.069   2.211   1.055 -0.5651 -0.4593 -0.1534
16534TIP3    H271094   1.118   2.264   1.187  0.1539 -0.4901 -0.4036
16535TIP3   OH271095   2.812   6.610   2.049  0.3727 -0.3021  0.2788
16535TIP3    H171096   2.899   6.569   2.044  1.6265  2.3155 -1.6794
16535TIP3    H271097   2.771   6.589   1.966  0.5375  1.2796 -0.2268
16536TIP3   OH271098   5.919   3.754  15.406 -0.6421  0.0385  0.1001
16536TIP3    H171099   5.830   3.738  15.376 -0.2279  0.2766 -1.3171
16536TIP3    H271100   5.960   3.805  15.336  0.1923  1.1421  1.3511
16537TIP3   OH271101   5.622   4.828   4.334  0.2525  0.1247  0.1386
16537TIP3    H171102   5.710   4.866   4.333  0.4398 -0.3173 -0.6998
16537TIP3    H271103   5.592   4.841   4.424  0.6084  1.5666  0.0743
16538TIP3   OH271104   1.598   4.690   2.470 -0.4155  0.2819 -0.3683
16538TIP3    H171105   1.625   4.771   2.513 -1.5538  1.3207 -1.5094
16538TIP3    H271106   1.505   4.704   2.449 -1.3549 -2.3169  1.5989
16539TIP3   OH271107   3.485   4.602   4.421  0.7499  0.3403 -0.6008
16539TIP3    H171108   3.568   4.582   4.465  1.2157  1.9777 -0.6799
16539TIP3    H271109   3.500   4.576   4.330  0.7994 -0.3484 -0.4022
16540TIP3   OH271110   4.372   0.609   5.346 -0.0745 -0.1056 -0.0583
16540TIP3    H171111   4.357   0.578   5.256 -0.9211  2.1319 -0.7810
16540TIP3    H271112   4.293   0.583   5.394  0.2847 -1.1196  0.0063
16541TIP3   OH271113   2.092   5.586  14.714 -0.4288  0.2890  0.5808
16541TIP3    H171114   2.005   5.604  14.679  0.0852  0.8621 -0.4334
16541TIP3    H271115   2.091   5.626  14.801 -0.6787  1.6632 -0.0305
16542TIP3   OH271116   6.030   0.964   4.294 -0.0021 -0.0438  0.0838
16542TIP3    H171117   6.004   1.042   4.344  0.3114 -0.2539  0.5772
16542TIP3    H271118   6.109   0.933   4.337  0.3081 -0.1982 -0.5807
16543TIP3   OH271119   5.799   4.021   5.661  0.0065  0.2407 -0.0115
16543TIP3    H171120   5.721   4.067   5.690  0.5835  1.7416 -0.7203
16543TIP3    H271121   5.872   4.071   5.699  0.6376 -1.1356  0.6559
16544TIP3   OH271122   4.050   5.752   4.090  0.1969  0.3858  0.1215
16544TIP3    H171123   4.081   5.681   4.034 -0.1725  0.3386 -0.0231
16544TIP3    H271124   3.967   5.779   4.052  1.2703  2.2802 -1.0541
16545TIP3   OH271125   2.340   5.486  16.879 -0.2554 -0.3121  0.3609
16545TIP3    H171126   2.318   5.393  16.892  0.3232 -0.2888  1.5858
16545TIP3    H271127   2.344   5.496  16.784 -1.8532 -1.1747  0.1558
16546TIP3   OH271128   4.798   2.894   2.580  0.3723  0.1709  0.1765
16546TIP3    H171129   4.823   2.896   2.488  1.8537 -0.0087  0.5573
16546TIP3    H271130   4.758   2.808   2.592 -2.6451  1.2728 -0.9490
16547TIP3   OH271131   2.201   2.633   2.115  0.0249  0.8616 -0.2080
16547TIP3    H171132   2.213   2.727   2.128  0.5126  0.6803  0.7283
16547TIP3    H271133   2.239   2.593   2.193  0.2292 -0.1389 -0.8054
16548TIP3   OH271134   1.719   1.378   3.215 -0.3787  0.1641  0.0184
16548TIP3    H171135   1.657   1.449   3.231 -0.2172  0.2103  0.4766
16548TIP3    H271136   1.796   1.422   3.179 -0.2179  0.2502  0.4536
16549TIP3   OH271137   2.897   0.383  11.770  0.0436  0.0211 -0.5622
16549TIP3    H171138   2.899   0.473  11.803 -0.8109  0.2149 -1.0117
16549TIP3    H271139   2.897   0.329  11.849  0.6324  0.4142 -0.2922
16550TIP3   OH271140   2.782   3.128   5.209 -0.3087  0.2826 -0.1209
16550TIP3    H171141   2.819   3.080   5.283  1.4204  2.7532  0.7856
16550TIP3    H271142   2.854   3.136   5.147 -1.2651 -0.3455 -1.3495
16551TIP3   OH271143   1.921   6.513   2.063 -0.3249  0.2979  0.4255
16551TIP3    H171144   1.926   6.583   2.127  0.7708 -1.2187  2.1000
16551TIP3    H271145   1.983   6.539   1.994  1.2823  0.2876  1.7913
16552TIP3   OH271146   5.685   0.231   0.415 -0.0562  0.1419 -0.2401
16552TIP3    H171147   5.613   0.288   0.441 -0.5629 -1.7078  2.9398
16552TIP3    H271148   5.759   0.258   0.470  1.3528  1.0917 -2.4619
16553TIP3   OH271149   4.010   0.518  14.235  0.3153 -0.0387  0.3548
16553TIP3    H171150   3.923   0.542  14.267  0.3952  0.6899  0.0519
16553TIP3    H271151   3.994   0.477  14.150  0.2685  0.1728  0.2606
16554TIP3   OH271152   2.359   2.292   0.293  0.2920 -0.1619  0.4554
16554TIP3    H171153   2.334   2.258   0.379 -1.2161  1.2441  0.6085
16554TIP3    H271154   2.276   2.304   0.246  1.0447 -0.3560 -1.0018
16555TIP3   OH271155   6.242   4.379  14.714 -0.0922  0.1393 -0.3836
16555TIP3    H171156   6.185   4.303  14.697 -0.8211  1.3104 -4.1103
16555TIP3    H271157   6.331   4.346  14.704 -0.2863 -0.6631  0.4073
16556TIP3   OH271158   5.722   1.688  16.463  0.0849 -0.2930  0.6184
16556TIP3    H171159   5.810   1.718  16.439  0.5462 -0.8286  1.5900
16556TIP3    H271160   5.715   1.601  16.422 -1.0872  0.8587 -1.8306
16557TIP3   OH271161   6.460   0.752   0.788 -0.3197  0.1102 -0.1951
16557TIP3    H171162   6.423   0.811   0.722 -3.2532  0.6413  1.7225
16557TIP3    H271163   6.414   0.775   0.868  1.1691 -2.3126  1.4717
16558TIP3   OH271164   1.188   2.077  13.375  0.0112 -0.7149 -1.0009
16558TIP3    H171165   1.113   2.064  13.317  0.3968  0.0385 -1.6909
16558TIP3    H271166   1.264   2.049  13.324  0.6504  2.1868 -1.8420
16559TIP3   OH271167   2.035   4.399  13.450  0.2292 -0.1189 -0.0659
16559TIP3    H171168   2.061   4.484  13.414  0.2452 -1.1488 -2.7534
16559TIP3    H271169   2.115   4.347  13.448  0.2005 -0.2583  1.4960
16560TIP3   OH271170   2.488   2.336  13.598  0.9346  0.0069  0.4157
16560TIP3    H171171   2.402   2.298  13.617  0.4616  0.0895 -1.3269
16560TIP3    H271172   2.468   2.420  13.557  1.7597 -0.7347 -1.6169
16561TIP3   OH271173   3.217   1.038  16.882  0.3693  0.1262 -0.0796
16561TIP3    H171174   3.237   0.984  16.959 -1.5955 -0.4136  0.1037
16561TIP3    H271175   3.224   0.977  16.808  1.7156  0.5199 -0.3149
16562TIP3   OH271176   3.951   5.622   2.143 -0.0745  0.2138  0.4961
16562TIP3    H171177   3.996   5.700   2.111 -0.2665  0.7121  1.3980
16562TIP3    H271178   3.872   5.616   2.089  0.7597 -0.3504 -0.7211
16563TIP3   OH271179   2.065   4.724   2.842  0.4562  0.1053 -0.1346
16563TIP3    H171180   2.140   4.765   2.798 -0.2363 -0.6020 -2.0712
16563TIP3    H271181   2.007   4.797   2.862  0.4190  0.3817 -1.1788
16564TIP3   OH271182   5.670   4.661  12.646  0.2980 -0.4382 -0.4138
16564TIP3    H171183   5.579   4.631  12.649  0.0421  0.2729 -0.8671
16564TIP3    H271184   5.664   4.757  12.641  1.1169 -0.2009  2.1181
16565TIP3   OH271185   6.112   5.434  15.439 -0.3028  0.1659 -0.3034
16565TIP3    H171186   6.172   5.390  15.379 -0.2501  0.3989 -0.4255
16565TIP3    H271187   6.025   5.401  15.414 -0.2888  0.3098 -0.5550
16566TIP3   OH271188   0.178   2.398  15.994 -0.0939 -0.0405  0.4133
16566TIP3    H171189   0.231   2.324  15.964  1.4177  0.6185  1.2946
16566TIP3    H271190   0.186   2.463  15.925 -0.9114 -0.4366 -0.0751
16567TIP3   OH271191   0.789   4.351  10.396  0.6792  0.8327 -0.0650
16567TIP3    H171192   0.791   4.354  10.492  0.2149  0.1424 -0.0212
16567TIP3    H271193   0.720   4.412  10.371 -0.2788 -0.1398  0.1322
16568TIP3   OH271194   5.255   4.018  16.007 -1.0181  0.2384 -0.0083
16568TIP3    H171195   5.316   4.054  16.071 -0.5286  0.3502 -0.5261
16568TIP3    H271196   5.269   4.070  15.928  1.9461 -2.8465 -1.8305
16569TIP3   OH271197   1.122   6.132   4.356  0.0097  0.6008  0.2169
16569TIP3    H171198   1.033   6.159   4.377  0.4939  1.7245  0.8879
16569TIP3    H271199   1.176   6.207   4.378  1.1464 -0.1136 -0.0542
16570TIP3   OH271200   3.312   1.481  12.125 -0.5713 -0.6201  1.0370
16570TIP3    H171201   3.231   1.500  12.079  0.2234  3.9468  1.0337
16570TIP3    H271202   3.380   1.492  12.059  0.2828  0.9138  2.1102
16571TIP3   OH271203   6.589   3.941  15.551  0.1820 -0.0861 -0.1916
16571TIP3    H171204   6.668   3.995  15.550  0.6783 -0.5075  3.4174
16571TIP3    H271205   6.621   3.852  15.535  0.6481 -0.3621  1.9835
16572TIP3   OH271206   4.268   1.295  11.810  0.0130  0.0377 -0.2878
16572TIP3    H171207   4.285   1.324  11.721  0.2083 -0.9109 -0.5752
16572TIP3    H271208   4.197   1.350  11.841  0.1980  0.6233 -0.8949
16573TIP3   OH271209   3.815   6.428  16.332 -0.5633  0.5809  0.4520
16573TIP3    H171210   3.850   6.476  16.407 -1.9402  0.2945  1.3290
16573TIP3    H271211   3.722   6.416  16.353 -0.8517 -0.0293 -1.0361
16574TIP3   OH271212   3.837   1.195  14.882  0.8292 -0.3586  0.0300
16574TIP3    H171213   3.802   1.242  14.806 -0.7757  0.3650  1.1514
16574TIP3    H271214   3.834   1.102  14.856  1.4857 -0.0456 -1.2229
16575TIP3   OH271215   1.005   1.521   0.036 -0.6267  0.2022 -0.4192
16575TIP3    H171216   1.002   1.425   0.044  0.5072  0.1252 -0.7107
16575TIP3    H271217   1.078   1.537  -0.024 -1.7506  1.1968 -1.5661
16576TIP3   OH271218   2.396   4.167  15.472  0.0640 -0.6888 -0.6615
16576TIP3    H171219   2.447   4.118  15.536  0.4983 -0.0883 -0.5412
16576TIP3    H271220   2.311   4.122  15.469  0.9402 -2.3814 -1.6839
16577TIP3   OH271221   1.598   6.642  14.879  0.2292  0.5013 -0.3223
16577TIP3    H171222   1.544   6.564  14.866  1.1204 -0.3896  1.0719
16577TIP3    H271223   1.535   6.711  14.901 -0.7003  0.5611 -2.8541
16578TIP3   OH271224   1.983   3.587  11.682  0.0051 -0.1063 -0.0484
16578TIP3    H171225   1.950   3.667  11.643 -2.3851 -0.5595  0.8784
16578TIP3    H271226   2.077   3.587  11.662 -0.2245  2.1038 -1.4023
16579TIP3   OH271227   5.574   6.508  15.024 -0.2253 -0.3544  0.3626
16579TIP3    H171228   5.597   6.434  15.080  1.4188 -1.1915 -1.3046
16579TIP3    H271229   5.480   6.517  15.034 -0.2930 -1.8979  1.5257
16580TIP3   OH271230   3.474   0.692   4.143 -0.2607  0.7797  0.1497
16580TIP3    H171231   3.412   0.749   4.098  0.9092  2.0400  0.0763
16580TIP3    H271232   3.450   0.604   4.116 -1.7769  1.2657 -0.1590
16581TIP3   OH271233   4.951   6.777  12.018 -0.4057  0.0474 -0.3688
16581TIP3    H171234   4.891   6.802  12.088  0.4902  0.2132  0.3619
16581TIP3    H271235   4.974   6.860  11.976  0.4108  0.1579  0.2742
16582TIP3   OH271236   4.282   2.345   4.604  0.3342 -0.0288 -0.5239
16582TIP3    H171237   4.330   2.348   4.522  0.6377 -1.4035 -0.4204
16582TIP3    H271238   4.204   2.398   4.588 -0.7565 -2.0620 -2.4818
16583TIP3   OH271239   4.725   1.395  12.767  0.1734 -0.4618 -0.1014
16583TIP3    H171240   4.632   1.373  12.760  0.4123 -1.1033 -1.4554
16583TIP3    H271241   4.727   1.490  12.757 -0.4152 -0.2982  1.0638
16584TIP3   OH271242   0.284   4.260   5.182 -0.0814 -0.4321  0.5891
16584TIP3    H171243   0.332   4.342   5.174  0.7155 -0.6790  2.3161
16584TIP3    H271244   0.249   4.261   5.271 -0.9451 -1.5023  0.2823
16585TIP3   OH271245   0.986   5.275  16.853 -0.3464  0.0229 -0.1147
16585TIP3    H171246   0.962   5.207  16.790  0.9192  0.0901 -0.7063
16585TIP3    H271247   1.082   5.275  16.852 -0.3224  1.0556  0.7152
16586TIP3   OH271248   5.121   2.232   5.271  0.2704  0.3563  0.0816
16586TIP3    H171249   5.039   2.225   5.321  1.2112 -0.1190  1.6368
16586TIP3    H271250   5.168   2.304   5.313  0.2044  1.4171 -1.5484
16587TIP3   OH271251   0.102   4.446  15.626  0.4770  0.2801 -0.1784
16587TIP3    H171252   0.133   4.378  15.565  2.3424  1.0995 -0.2259
16587TIP3    H271253   0.171   4.452  15.692 -2.3814 -2.0980  3.4362
16588TIP3   OH271254   5.983   5.378   5.927 -0.5576 -0.1929  0.3446
16588TIP3    H171255   5.984   5.416   5.839  1.1745 -0.4240  0.2336
16588TIP3    H271256   6.018   5.447   5.984 -0.2750 -0.5637  0.6227
16589TIP3   OH271257   2.568   6.708  12.291 -0.7881  0.2550  0.3297
16589TIP3    H171258   2.523   6.644  12.235  0.1549 -1.5385  1.5213
16589TIP3    H271259   2.506   6.724  12.362 -1.1406  0.9440 -0.1124
16590TIP3   OH271260   4.193   3.558   5.455 -0.3315  0.4950 -0.0916
16590TIP3    H171261   4.270   3.503   5.472 -0.6987 -0.3126 -0.9319
16590TIP3    H271262   4.203   3.587   5.365 -0.7714  0.7747 -0.0536
16591TIP3   OH271263   1.056   1.910   1.659 -0.0922  0.5820 -0.0061
16591TIP3    H171264   0.981   1.944   1.610  0.1326 -0.0845 -0.8487
16591TIP3    H271265   1.122   1.892   1.592 -0.2860 -1.7295  0.3207
16592TIP3   OH271266   0.393   0.437   0.714  0.4658 -0.6873  0.4119
16592TIP3    H171267   0.315   0.476   0.676  0.2827 -2.3117 -1.0112
16592TIP3    H271268   0.458   0.440   0.644  0.4816 -2.7194  0.2811
16593TIP3   OH271269   5.514   5.668  11.978 -0.3119 -0.1469 -0.2831
16593TIP3    H171270   5.476   5.580  11.982 -0.4512 -0.0400  2.5969
16593TIP3    H271271   5.593   5.657  11.924  0.6379 -2.5037  1.3966
16594TIP3   OH271272   6.193   0.516   2.017 -0.1768  0.4731 -0.4291
16594TIP3    H171273   6.199   0.610   2.003 -0.5610  0.9277  1.9413
16594TIP3    H271274   6.104   0.502   2.050 -0.1205 -0.7160 -0.7328
16595TIP3   OH271275   3.443   1.166  10.846  0.2298 -0.1901  0.4140
16595TIP3    H171276   3.502   1.091  10.839  0.5075 -0.1084  1.5585
16595TIP3    H271277   3.499   1.243  10.833  0.3308 -0.1243  1.1844
16596TIP3   OH271278   6.296   2.723   5.429  0.0031 -0.4352  0.3887
16596TIP3    H171279   6.346   2.653   5.470 -0.2051  0.2555  1.8563
16596TIP3    H271280   6.315   2.800   5.481  0.8458  0.8297 -1.6438
16597TIP3   OH271281   6.178   3.609  15.533 -0.0889  0.2320 -0.2100
16597TIP3    H171282   6.086   3.627  15.514 -0.5191  1.7225  2.8156
16597TIP3    H271283   6.180   3.583  15.625  2.5156  0.0130 -0.2321
16598TIP3   OH271284   3.592   1.872   3.498  0.1783  0.0592  0.3923
16598TIP3    H171285   3.655   1.814   3.541 -0.0638 -0.6225 -0.1563
16598TIP3    H271286   3.510   1.823   3.497  0.0438  0.2777 -0.3533
16599TIP3   OH271287   6.519   5.351   5.727  0.2471 -0.0718 -0.2437
16599TIP3    H171288   6.526   5.445   5.712 -0.0130  0.1042  0.6562
16599TIP3    H271289   6.432   5.328   5.697  0.7725 -0.2936 -1.6992
16600TIP3   OH271290   5.406   4.791  16.805  0.2443  0.3875 -0.7105
16600TIP3    H171291   5.453   4.778  16.887 -0.4916  0.9631 -0.1792
16600TIP3    H271292   5.376   4.704  16.780 -1.3911  0.4752  0.7916
16601TIP3   OH271293   5.724   6.377   2.582  0.6419 -0.0584  0.2725
16601TIP3    H171294   5.804   6.430   2.584  0.5788  0.0888 -0.6570
16601TIP3    H271295   5.665   6.421   2.644  1.5059 -0.5767  1.5161
16602TIP3   OH271296   0.587   5.579   4.657  0.1427 -0.9133  0.3638
16602TIP3    H171297   0.576   5.541   4.570 -0.0351 -2.0371  0.8611
16602TIP3    H271298   0.650   5.522   4.701 -0.8293 -1.1982  1.4436
16603TIP3   OH271299   1.668   3.978  13.518 -0.2040  0.3264 -0.1384
16603TIP3    H171300   1.743   3.963  13.575  1.1715 -0.8953 -2.1471
16603TIP3    H271301   1.617   3.897  13.524 -0.7108  0.6603  0.2278
16604TIP3   OH271302   2.491   1.031  14.432 -0.1396 -0.1609  0.1577
16604TIP3    H171303   2.564   0.970  14.426 -0.9473 -1.1425  0.0027
16604TIP3    H271304   2.531   1.115  14.454  0.8886 -1.0155  1.7338
16605TIP3   OH271305   6.735   6.812  13.352  0.0091 -0.4838  0.0227
16605TIP3    H171306   6.685   6.772  13.281 -1.1070 -0.5657  0.8271
16605TIP3    H271307   6.763   6.897  13.317  0.8505 -1.1721 -1.0551
16606TIP3   OH271308   4.842   3.654   1.378 -0.1978  0.3656  0.3563
16606TIP3    H171309   4.786   3.729   1.359  0.3216 -0.1880 -4.7812
16606TIP3    H271310   4.783   3.589   1.416 -1.6313  1.8411  0.7573
16607TIP3   OH271311   2.601   3.889  11.852  0.4583  0.0573 -0.6394
16607TIP3    H171312   2.613   3.888  11.947  2.7839  2.2553 -0.8194
16607TIP3    H271313   2.688   3.872  11.817  0.1337  1.6768 -2.3419
16608TIP3   OH271314   5.201   2.121   5.584  0.2849  0.3583 -0.3197
16608TIP3    H171315   5.172   2.194   5.639  0.1833 -0.2597  0.4755
16608TIP3    H271316   5.297   2.124   5.589  0.2701 -0.2301  0.6492
16609TIP3   OH271317   3.162   6.718   3.284 -0.3780  0.4530  0.0875
16609TIP3    H171318   3.113   6.791   3.244  0.6184  1.3383  0.4314
16609TIP3    H271319   3.164   6.739   3.377  1.3061  0.8816 -0.0012
16610TIP3   OH271320   0.229   1.044  11.386  0.2190  0.2915  0.1317
16610TIP3    H171321   0.258   1.130  11.356 -0.8371  0.3256 -0.8450
16610TIP3    H271322   0.149   1.061  11.435 -0.3674 -0.1747 -0.6335
16611TIP3   OH271323   3.255   3.833   6.065  0.5754  0.2570  1.3758
16611TIP3    H171324   3.166   3.868   6.075  0.1678 -0.1797 -0.3426
16611TIP3    H271325   3.268   3.778   6.141 -0.8253 -0.0439  1.4183
16612TIP3   OH271326   4.436   1.247   0.373 -0.4765 -0.5397 -0.5742
16612TIP3    H171327   4.453   1.268   0.465 -2.3948 -0.2545 -0.2419
16612TIP3    H271328   4.485   1.167   0.357 -2.4408 -2.3132  1.6023
16613TIP3   OH271329   3.035   6.704   5.289 -0.0042 -0.4776  0.2884
16613TIP3    H171330   3.020   6.720   5.382  0.9560 -1.4674  0.6405
16613TIP3    H271331   3.057   6.790   5.253  0.4306 -0.2192  1.1437
16614TIP3   OH271332   5.163   2.601  16.057  0.4634 -0.0769  0.1176
16614TIP3    H171333   5.222   2.635  16.124 -0.7647  0.1304  1.1221
16614TIP3    H271334   5.080   2.589  16.102 -0.2121 -0.5675 -1.2171
16615TIP3   OH271335   2.979   0.428  14.412  0.8888  0.3893 -0.5266
16615TIP3    H171336   3.065   0.469  14.421  1.1004 -0.3805  1.2718
16615TIP3    H271337   2.992   0.337  14.436 -0.3826  0.2112 -0.4146
16616TIP3   OH271338   3.238   0.828   1.617 -0.2287 -0.4444  0.5314
16616TIP3    H171339   3.295   0.796   1.547 -1.3239 -0.8409 -0.2096
16616TIP3    H271340   3.152   0.792   1.595 -0.7077 -0.0734  1.7644
16617TIP3   OH271341   5.001   6.218  10.801 -0.4642  0.1090 -0.3412
16617TIP3    H171342   4.935   6.230  10.733 -0.0373 -2.2033 -1.2912
16617TIP3    H271343   5.085   6.221  10.754  0.0520  1.6178  0.6196
16618TIP3   OH271344   1.950   3.345   5.378 -0.2214 -0.5017 -0.4181
16618TIP3    H171345   1.970   3.313   5.466 -0.4122  1.3729  0.3567
16618TIP3    H271346   1.880   3.288   5.346  0.9930 -2.2671 -0.0714
16619TIP3   OH271347   0.045   1.992  13.081 -0.3510  0.3144 -0.2845
16619TIP3    H171348   0.135   1.960  13.075 -0.6773 -0.3757 -2.8049
16619TIP3    H271349   0.039   2.057  13.011 -1.7467  0.5497  0.0302
16620TIP3   OH271350   3.654   6.156   4.772  0.0968 -0.4882  0.2173
16620TIP3    H171351   3.598   6.123   4.842 -0.3018  0.1632  0.2120
16620TIP3    H271352   3.679   6.078   4.722  0.2971 -0.9499  1.0096
16621TIP3   OH271353   3.624   5.816  15.737  0.0321  0.3843 -0.2280
16621TIP3    H171354   3.710   5.828  15.698  1.2351 -1.3124  1.7631
16621TIP3    H271355   3.638   5.819  15.831 -1.8908 -1.0244  0.1807
16622TIP3   OH271356   1.097   0.434   5.265 -0.1659  0.4330  1.1618
16622TIP3    H171357   1.136   0.476   5.341  0.0605 -0.2496  1.4224
16622TIP3    H271358   1.152   0.461   5.192 -0.0715  0.6547  1.3127
16623TIP3   OH271359   2.703   0.745  14.715  0.6010  0.1843  0.6120
16623TIP3    H171360   2.651   0.763  14.636  1.3069 -0.2878  0.0236
16623TIP3    H271361   2.758   0.822  14.725  2.5636 -0.9196 -1.0502
16624TIP3   OH271362   6.323   1.411   2.509  0.2864 -0.1793 -0.5488
16624TIP3    H171363   6.390   1.448   2.567 -0.1250  2.0935 -1.3862
16624TIP3    H271364   6.243   1.411   2.563  0.0972  1.0870 -0.7915
16625TIP3   OH271365   3.610   5.138  16.512 -0.8761 -0.5089  0.3508
16625TIP3    H171366   3.679   5.086  16.471 -0.9660 -0.4990  0.1843
16625TIP3    H271367   3.571   5.079  16.577  1.0596  0.3433  2.4097
16626TIP3   OH271368   0.140   4.956   4.122 -0.3527 -0.8536  0.6768
16626TIP3    H171369   0.166   4.929   4.034  1.5753 -0.9328  1.2020
16626TIP3    H271370   0.152   5.051   4.123 -0.4456 -0.8431  0.8102
16627TIP3   OH271371   2.872   6.550  15.961  0.5286 -0.0767 -0.2038
16627TIP3    H171372   2.934   6.546  15.888  0.6817  0.3027 -0.0949
16627TIP3    H271373   2.918   6.509  16.034  1.1520  1.3374  0.2288
16628TIP3   OH271374   2.038   2.920   5.072  0.5688  0.4192  0.7509
16628TIP3    H171375   1.958   2.915   5.020 -0.2518 -1.6284  2.0597
16628TIP3    H271376   2.092   2.986   5.028 -1.0589  0.5247 -1.2283
16629TIP3   OH271377   2.800   0.598   4.352 -0.0056  0.6591 -0.0092
16629TIP3    H171378   2.730   0.572   4.291  0.8545  1.8913 -1.6003
16629TIP3    H271379   2.860   0.523   4.353 -1.6304 -0.7246  1.9499
16630TIP3   OH271380   3.753   1.315   5.648 -0.2746 -0.1538  0.5907
16630TIP3    H171381   3.779   1.224   5.662  1.9164  0.0960 -1.2872
16630TIP3    H271382   3.728   1.319   5.556 -1.7669  0.8584  1.0151
16631TIP3   OH271383   2.928   1.901   5.886 -0.5384 -0.0518 -0.3408
16631TIP3    H171384   3.022   1.886   5.874 -0.7265 -1.0194 -0.7484
16631TIP3    H271385   2.915   1.901   5.981 -0.1358  0.0608 -0.2839
16632TIP3   OH271386   2.174   3.663   4.981  0.7476  0.5672  0.4203
16632TIP3    H171387   2.233   3.739   4.978 -0.3942  1.5076  1.0507
16632TIP3    H271388   2.220   3.600   5.036  1.4064  1.0594  0.4580
16633TIP3   OH271389   1.166   6.561   4.622  0.0798  0.3745 -0.3684
16633TIP3    H171390   1.113   6.491   4.659 -1.2078  1.5790  0.2007
16633TIP3    H271391   1.143   6.638   4.675  3.3394  0.7373  0.7058
16634TIP3   OH271392   4.717   3.553  14.917  0.3671  0.4654  0.6376
16634TIP3    H171393   4.717   3.643  14.885  1.0138  0.4929  0.7027
16634TIP3    H271394   4.701   3.561  15.011  3.1928  0.7323  1.1652
16635TIP3   OH271395   5.788   1.296  13.088 -0.2175 -0.3000 -0.1165
16635TIP3    H171396   5.862   1.286  13.029  0.5455 -0.7117  0.8890
16635TIP3    H271397   5.754   1.207  13.099 -0.3591 -0.2261  0.0529
16636TIP3   OH271398   5.250   1.866   4.614 -0.0436  0.1630  0.1053
16636TIP3    H171399   5.319   1.879   4.548  0.6836 -0.4565  0.7264
16636TIP3    H271400   5.262   1.938   4.676 -2.1754  2.1393 -1.5805
16637TIP3   OH271401   0.931   3.607  16.031 -0.3396 -0.5238  0.2650
16637TIP3    H171402   0.957   3.545  16.099 -1.1239  0.3365  1.3937
16637TIP3    H271403   0.994   3.593  15.960  0.7698 -1.1673  1.3347
16638TIP3   OH271404   6.687   2.599  13.371 -0.1430 -0.6460  0.4132
16638TIP3    H171405   6.686   2.666  13.439 -2.1558  0.8488 -0.9303
16638TIP3    H271406   6.676   2.516  13.418  0.4222  0.1406  2.0044
16639TIP3   OH271407   5.525   1.883  12.096  0.0451  0.6273  0.7217
16639TIP3    H171408   5.524   1.805  12.041  0.0119  1.3779 -0.3686
16639TIP3    H271409   5.445   1.878  12.147 -0.4342  0.4374 -0.0400
16640TIP3   OH271410   4.654   5.739   1.881  0.0067  0.5888  0.0660
16640TIP3    H171411   4.578   5.688   1.852 -0.2767  1.2458 -0.4004
16640TIP3    H271412   4.646   5.822   1.833  0.8967  0.7550  0.1855
16641TIP3   OH271413   1.990   4.803  12.794 -0.3189 -0.4062  0.7440
16641TIP3    H171414   1.975   4.814  12.888 -0.7807 -1.5069  0.8134
16641TIP3    H271415   1.963   4.713  12.776 -0.1452 -0.2358 -0.4299
16642TIP3   OH271416   2.093   5.256   5.752 -0.0461 -0.4165  0.2547
16642TIP3    H171417   2.033   5.237   5.824  0.6250 -0.3808  0.8242
16642TIP3    H271418   2.151   5.324   5.785 -0.8272  0.8796 -0.9153
16643TIP3   OH271419   6.681   5.875  16.042  0.0746  0.5290  1.0631
16643TIP3    H171420   6.649   5.786  16.056  1.6169  0.0472  1.7444
16643TIP3    H271421   6.759   5.865  15.988 -0.8867  1.6773 -0.6580
16644TIP3   OH271422   3.781   0.543  17.231 -0.5550  0.8840 -0.1235
16644TIP3    H171423   3.825   0.610  17.283 -1.4533  1.7029 -0.3956
16644TIP3    H271424   3.799   0.566  17.140 -0.5267  0.5168 -0.2140
16645TIP3   OH271425   6.411   2.703   0.007  0.0258  1.1735 -0.0101
16645TIP3    H171426   6.496   2.664   0.029  0.7368  1.0418 -2.5972
16645TIP3    H271427   6.429   2.797   0.002 -0.1566  1.2146  0.1002
16646TIP3   OH271428   1.717   3.993   1.136  0.3293  0.3886  0.4883
16646TIP3    H171429   1.740   4.084   1.120 -0.2190  0.5580  0.6424
16646TIP3    H271430   1.704   3.988   1.230  0.9271  0.0134  0.5540
16647TIP3   OH271431   5.935   4.319  14.360  0.7962 -0.5913  0.0637
16647TIP3    H171432   5.960   4.244  14.307  1.5996 -1.0590  1.0598
16647TIP3    H271433   5.982   4.393  14.321 -0.9966 -0.3028 -1.7138
16648TIP3   OH271434   1.511   0.885  14.220  0.1814  0.0205 -0.5604
16648TIP3    H171435   1.528   0.792  14.227  1.1379  0.2086 -0.1981
16648TIP3    H271436   1.597   0.924  14.202 -0.2323  0.8107 -0.8850
16649TIP3   OH271437   2.207   0.306  16.948  0.4606 -0.5704  0.6874
16649TIP3    H171438   2.130   0.275  16.901  0.6543  0.7126 -0.5330
16649TIP3    H271439   2.172   0.366  17.014  0.4650  1.4884 -1.0799
16650TIP3   OH271440   2.903   3.807   3.279  0.2789  0.6044  0.0609
16650TIP3    H171441   2.918   3.715   3.302  0.7878  0.5267 -0.5551
16650TIP3    H271442   2.895   3.851   3.364 -0.2991 -0.0517  0.3604
16651TIP3   OH271443   4.471   6.517  16.662 -0.3212  0.6583 -0.2074
16651TIP3    H171444   4.525   6.453  16.709  0.2870  0.8662 -0.6100
16651TIP3    H271445   4.443   6.472  16.583 -1.2137  0.3632  0.2595
16652TIP3   OH271446   3.491   4.817   4.837 -0.0812 -0.1377 -0.1947
16652TIP3    H171447   3.426   4.747   4.825  1.5087 -1.5236 -1.0772
16652TIP3    H271448   3.505   4.852   4.749  0.6846 -0.1393 -0.0747
16653TIP3   OH271449   1.059   6.605  12.350 -0.3408 -0.7386 -0.4989
16653TIP3    H171450   1.027   6.627  12.263  0.8817 -0.9195 -1.0086
16653TIP3    H271451   1.013   6.524  12.372 -1.2725 -0.2551 -0.6114
16654TIP3   OH271452   2.682   4.939  16.299  0.5670 -0.0600  0.8684
16654TIP3    H171453   2.612   4.921  16.363  0.4083 -0.3254  0.6248
16654TIP3    H271454   2.722   5.020  16.330 -0.4653  0.6190  0.4910
16655TIP3   OH271455   4.576   2.132  14.289  0.4791 -0.5003  0.3123
16655TIP3    H171456   4.623   2.185  14.354  1.6829 -2.1136  0.8436
16655TIP3    H271457   4.484   2.146  14.309  0.8053 -0.0224  1.6201
16656TIP3   OH271458   4.659   0.638  14.161 -0.1576 -0.6287  0.2659
16656TIP3    H171459   4.658   0.557  14.212 -1.4422 -0.6944  0.1634
16656TIP3    H271460   4.735   0.629  14.104  0.3529 -1.2693  1.0269
16657TIP3   OH271461   0.034   2.358  12.206 -0.0565 -0.2387  0.4827
16657TIP3    H171462   0.028   2.329  12.115 -2.5637 -0.3081  0.6119
16657TIP3    H271463  -0.055   2.352  12.240  1.0494 -1.8964  3.5093
16658TIP3   OH271464   0.489   5.673   2.115 -0.2549 -0.1714 -0.0472
16658TIP3    H171465   0.558   5.618   2.153  0.4394  0.9371  0.3229
16658TIP3    H271466   0.408   5.636   2.151  0.3811  1.0245  2.8801
16659TIP3   OH271467   3.095   3.629  17.032 -0.1918  0.6748 -0.0857
16659TIP3    H171468   3.183   3.625  17.070 -0.4680 -0.7633  0.4722
16659TIP3    H271469   3.099   3.570  16.957 -0.9213 -0.1197  0.4887
16660TIP3   OH271470   2.478   2.720   2.485 -0.2083  1.4504 -0.2350
16660TIP3    H171471   2.414   2.664   2.529 -0.6612  0.1024 -2.4630
16660TIP3    H271472   2.434   2.805   2.477 -0.7028  1.2775  0.4896
16661TIP3   OH271473   3.773   5.023  11.262  0.4377 -0.5341  0.2161
16661TIP3    H171474   3.679   5.039  11.267  0.5591  0.4727 -0.2740
16661TIP3    H271475   3.803   5.029  11.353 -0.1731 -2.4833  0.5981
16662TIP3   OH271476   0.129   3.977   6.203 -0.1008  0.0311 -0.1888
16662TIP3    H171477   0.213   3.959   6.161  0.7672  0.6206  1.2506
16662TIP3    H271478   0.124   4.072   6.207 -0.4458 -0.0147  0.5262
16663TIP3   OH271479   2.851   6.452  16.668 -0.4023  0.0728  0.4836
16663TIP3    H171480   2.911   6.395  16.716  0.0389 -0.8830 -1.1413
16663TIP3    H271481   2.765   6.436  16.707  0.0379 -0.2128  1.3501
16664TIP3   OH271482   5.382   1.004  12.333 -0.8679  0.1286  0.4023
16664TIP3    H171483   5.415   1.050  12.256  1.0189  0.1144  1.1314
16664TIP3    H271484   5.288   0.998  12.320 -0.9464  2.5072 -0.6222
16665TIP3   OH271485   4.370   4.616   4.240  0.1752 -0.5301  0.0506
16665TIP3    H171486   4.281   4.581   4.234 -0.4020  1.0221 -1.2777
16665TIP3    H271487   4.389   4.616   4.333 -1.5178 -0.2124  0.4355
16666TIP3   OH271488   3.364   3.761  13.081  0.5068 -0.7114  0.1216
16666TIP3    H171489   3.341   3.728  12.994  0.4579 -0.1349 -0.0893
16666TIP3    H271490   3.459   3.754  13.085  0.4562 -1.4228  0.3089
16667TIP3   OH271491   4.249   1.909  14.828  0.0596 -0.5809 -0.2660
16667TIP3    H171492   4.199   1.963  14.890 -0.4860  0.4780 -1.5862
16667TIP3    H271493   4.340   1.931  14.845 -0.0406 -0.8248  0.6267
16668TIP3   OH271494   3.940   5.486  14.176 -0.3901  0.5676 -0.0818
16668TIP3    H171495   3.994   5.458  14.249 -1.2417  1.6127  0.9864
16668TIP3    H271496   3.925   5.407  14.125  1.1023  0.0320  0.2676
16669TIP3   OH271497   2.264   0.296  14.351  0.4256  0.0509  0.3206
16669TIP3    H171498   2.214   0.216  14.334  0.6708 -0.8268  3.2741
16669TIP3    H271499   2.197   0.360  14.376  0.3761  0.3973 -0.6318
16670TIP3   OH271500   4.813   5.368   0.970 -0.4522 -0.1891 -0.3511
16670TIP3    H171501   4.890   5.421   0.992  1.6230 -1.7849 -3.1336
16670TIP3    H271502   4.802   5.309   1.044 -0.4263  1.5293  1.0729
16671TIP3   OH271503   0.572   0.512   5.723 -0.5604  0.4481 -0.0530
16671TIP3    H171504   0.603   0.429   5.758 -0.8127 -0.5941 -2.1582
16671TIP3    H271505   0.648   0.570   5.728  0.1608 -0.4658 -0.2840
16672TIP3   OH271506   5.521   5.512  13.651 -0.1254  0.2840 -0.7733
16672TIP3    H171507   5.544   5.419  13.648 -1.2493 -0.5001  4.7183
16672TIP3    H271508   5.426   5.513  13.660 -0.1854  2.0262 -1.2995
16673TIP3   OH271509   2.253   1.528   4.085 -0.2022  0.5139 -0.5935
16673TIP3    H171510   2.234   1.571   4.168 -2.0217  2.0364 -1.7048
16673TIP3    H271511   2.347   1.509   4.088 -0.4146 -0.6286  2.2665
16674TIP3   OH271512   5.593   6.438  15.897 -0.2930  0.3140 -0.3273
16674TIP3    H171513   5.582   6.461  15.990 -2.2872  2.6583 -1.0501
16674TIP3    H271514   5.524   6.487  15.852 -1.2523 -2.9976 -2.7845
16675TIP3   OH271515   6.214   5.053  13.499 -0.0151 -0.2113 -0.3253
16675TIP3    H171516   6.261   5.136  13.502 -0.5827  0.0950  0.0959
16675TIP3    H271517   6.179   5.041  13.587 -1.8738  0.2288 -0.9579
16676TIP3   OH271518   5.926   2.730   5.743 -0.7095  0.3979 -0.1760
16676TIP3    H171519   6.018   2.711   5.729 -0.8408  1.7500 -4.0872
16676TIP3    H271520   5.918   2.745   5.837  2.7536 -0.8693  0.4552
16677TIP3   OH271521   3.731   4.508   4.374  0.2654  0.2879  0.0942
16677TIP3    H171522   3.744   4.544   4.287  0.8008  0.3065  0.1803
16677TIP3    H271523   3.766   4.574   4.433 -1.6878  1.0814  0.4360
16678TIP3   OH271524   2.670   4.214  12.885 -0.5947 -0.1478  0.3749
16678TIP3    H171525   2.628   4.274  12.823 -0.6799  0.7953  1.3180
16678TIP3    H271526   2.735   4.167  12.832 -0.4986  0.8038 -0.3904
16679TIP3   OH271527   5.020   1.831  16.961  0.3337  0.4898  0.1753
16679TIP3    H171528   5.092   1.852  16.902 -0.4492  1.5454 -0.4530
16679TIP3    H271529   5.055   1.844  17.049  0.9795  0.7522 -0.1177
16680TIP3   OH271530   3.180   2.166  16.168  0.0554 -0.1048  0.4906
16680TIP3    H171531   3.098   2.197  16.206  0.0609  0.0446  0.3839
16680TIP3    H271532   3.155   2.131  16.082  0.2796  1.1805 -0.1354
16681TIP3   OH271533   3.112   1.276   6.156  0.5100  0.6520 -0.7308
16681TIP3    H171534   3.151   1.202   6.204  0.3699  0.6717 -0.5871
16681TIP3    H271535   3.157   1.353   6.190 -2.3627  1.1897  2.4408
16682TIP3   OH271536   6.653   2.542   4.994 -0.6426 -0.5709  0.0172
16682TIP3    H171537   6.599   2.552   4.916 -0.9370 -1.6376  0.0669
16682TIP3    H271538   6.642   2.624   5.042 -1.3957 -0.3708 -0.4811
16683TIP3   OH271539   3.164   5.439  12.876 -0.2223 -0.0698 -0.4340
16683TIP3    H171540   3.122   5.525  12.874  0.5042  0.2804 -1.9436
16683TIP3    H271541   3.092   5.376  12.869 -0.7891  0.3790  1.0068
16684TIP3   OH271542   4.775   2.803   0.769  0.0475  0.1554  0.1263
16684TIP3    H171543   4.845   2.776   0.829  1.2915 -0.1119 -1.3571
16684TIP3    H271544   4.700   2.749   0.793  0.0605  1.0461  2.3212
16685TIP3   OH271545   3.340   3.356  17.145 -0.0060 -0.3897 -0.9773
16685TIP3    H171546   3.246   3.344  17.138 -0.0340 -0.3057 -0.7464
16685TIP3    H271547   3.351   3.428  17.207  0.2073 -0.3279 -1.0845
16686TIP3   OH271548   0.649   1.034   5.028  0.4105  0.2113 -0.3884
16686TIP3    H171549   0.673   0.972   4.959  0.7117  0.7206 -0.7503
16686TIP3    H271550   0.597   1.102   4.983  2.4317  1.7258 -0.5917
16687TIP3   OH271551   5.083   4.962  16.408  0.6792  0.0552  0.0621
16687TIP3    H171552   5.012   5.019  16.378 -0.6582 -1.3861  0.3337
16687TIP3    H271553   5.137   4.947  16.331 -0.6213 -0.6250 -0.7554
16688TIP3   OH271554   4.586   6.497   2.125  0.0921  0.1707  0.1331
16688TIP3    H171555   4.554   6.439   2.055 -2.1922 -0.1193  1.3116
16688TIP3    H271556   4.679   6.475   2.133  0.1455 -0.6493 -1.9681
16689TIP3   OH271557   2.317   1.421   2.848 -0.3115  0.0855 -0.0573
16689TIP3    H171558   2.405   1.393   2.872 -0.2169  0.7839  0.4503
16689TIP3    H271559   2.278   1.451   2.931 -0.7584  0.4655 -0.3984
16690TIP3   OH271560   1.439   5.611   5.774 -0.0519  0.0114 -0.2952
16690TIP3    H171561   1.499   5.542   5.801  1.1915  0.8505 -0.8561
16690TIP3    H271562   1.431   5.668   5.851  0.6308  0.4194 -0.5220
16691TIP3   OH271563   1.777   4.619  14.591 -0.1940 -0.0799  0.7847
16691TIP3    H171564   1.724   4.551  14.550  1.8670 -0.7141 -1.0678
16691TIP3    H271565   1.791   4.589  14.680 -1.9397 -0.4522  0.9659
16692TIP3   OH271566   4.083   1.118   4.953  0.0855 -0.7023 -0.3649
16692TIP3    H171567   4.020   1.180   4.988  0.4947  1.8746 -3.6512
16692TIP3    H271568   4.033   1.038   4.939 -1.0986 -0.3939  1.7480
16693TIP3   OH271569   2.348   5.312  10.726 -0.1501 -0.2653 -0.5866
16693TIP3    H171570   2.343   5.263  10.644  0.9738 -2.2995  0.4784
16693TIP3    H271571   2.441   5.332  10.737 -0.4914  1.5789 -0.6307
16694TIP3   OH271572   2.376   0.318  13.796 -0.2424  0.0054  0.4537
16694TIP3    H171573   2.459   0.365  13.791  0.1949 -0.8659 -0.8475
16694TIP3    H271574   2.322   0.356  13.726 -0.9647  0.5620  1.2835
16695TIP3   OH271575   4.966   6.594  12.707  0.3604  0.4433 -0.1676
16695TIP3    H171576   5.012   6.511  12.719 -0.4108  0.0487  0.1195
16695TIP3    H271577   5.035   6.658  12.691  1.0010 -0.1519  0.1932
16696TIP3   OH271578   2.771   3.154  16.621  0.2923 -0.1702  0.3230
16696TIP3    H171579   2.684   3.117  16.631  1.3734 -2.6989  1.4456
16696TIP3    H271580   2.801   3.124  16.535  0.9545 -1.5514  0.9969
16697TIP3   OH271581   2.249   0.032   3.153 -0.4123 -0.3926 -0.6095
16697TIP3    H171582   2.169   0.041   3.100 -0.0128 -1.1313 -1.3635
16697TIP3    H271583   2.280  -0.056   3.134  0.5331 -0.1496 -0.2342
16698TIP3   OH271584   2.622   1.473   3.253 -0.2859 -0.3776 -0.3790
16698TIP3    H171585   2.547   1.512   3.296 -0.7431 -1.1728 -0.4399
16698TIP3    H271586   2.698   1.513   3.295 -0.7151 -1.0854  1.1335
16699TIP3   OH271587   1.592   2.096  16.501  0.6444 -0.1776 -0.8778
16699TIP3    H171588   1.515   2.152  16.509  0.6956 -0.2948  0.8835
16699TIP3    H271589   1.647   2.140  16.436  1.0803  2.3549  1.0441
16700TIP3   OH271590   4.956   6.665   2.118 -0.0835 -0.3466 -0.2419
16700TIP3    H171591   4.932   6.661   2.025 -0.6467 -0.1089 -0.1155
16700TIP3    H271592   4.939   6.577   2.151 -0.1489 -0.3586 -0.3064
16701TIP3   OH271593   0.526   5.732  13.285 -0.6135  0.5559  0.0336
16701TIP3    H171594   0.580   5.776  13.220 -0.8587  0.6847 -0.0854
16701TIP3    H271595   0.580   5.731  13.364  0.8992 -2.2679 -0.9101
16702TIP3   OH271596   1.916   3.862   0.061 -0.1657 -0.5796  0.6352
16702TIP3    H171597   1.867   3.813  -0.006 -0.7141 -0.8800  1.2379
16702TIP3    H271598   1.869   3.945   0.069 -0.3122 -0.6831  0.8845
16703TIP3   OH271599   6.120   5.548  16.059 -0.1763 -0.3265 -0.3054
16703TIP3    H171600   6.189   5.485  16.082  0.1852  0.1316 -0.1050
16703TIP3    H271601   6.039   5.508  16.090  0.0289 -0.7574 -0.3143
16704TIP3   OH271602   3.010   1.347  12.467 -0.0630  0.2309  0.4473
16704TIP3    H171603   3.032   1.322  12.557  1.0747  0.6722  0.3055
16704TIP3    H271604   3.088   1.392  12.435 -0.3032 -0.2542 -0.8951
16705TIP3   OH271605   1.612   4.507  12.387 -0.1201 -0.0000  0.4091
16705TIP3    H171606   1.684   4.548  12.434 -1.6905  1.6851  1.4654
16705TIP3    H271607   1.602   4.560  12.308  0.7582 -1.1913 -0.5504
16706TIP3   OH271608   4.861   3.736   5.774 -0.0029 -0.0792  0.3636
16706TIP3    H171609   4.945   3.696   5.796  1.1597  2.1857  0.3968
16706TIP3    H271610   4.836   3.784   5.853 -0.8553  0.0437  0.0324
16707TIP3   OH271611   0.294   5.705  12.673 -0.0241  0.6995 -0.0534
16707TIP3    H171612   0.242   5.625  12.673 -0.9423  1.2898  0.2218
16707TIP3    H271613   0.354   5.694  12.600 -1.0332  0.3265 -0.8437
16708TIP3   OH271614   6.028   4.913  13.321 -0.2097  0.1818 -0.1082
16708TIP3    H171615   6.016   4.818  13.315 -1.7554  0.1472  2.1943
16708TIP3    H271616   6.121   4.924  13.341  0.1438 -0.7583 -1.0934
16709TIP3   OH271617   5.223   0.199  15.635 -0.0405 -0.0349  0.2795
16709TIP3    H171618   5.156   0.240  15.580  1.4878  1.5738 -0.4604
16709TIP3    H271619   5.296   0.183  15.576  0.8534 -0.2349  1.4118
16710TIP3   OH271620   5.938   4.253   3.815 -0.4097  0.1068 -0.1190
16710TIP3    H171621   5.978   4.247   3.728 -2.4447 -0.6799 -1.0618
16710TIP3    H271622   5.974   4.178   3.862 -1.2112 -1.0080 -1.1859
16711TIP3   OH271623   2.986   2.570   5.878  0.0540  0.5110 -0.0117
16711TIP3    H171624   3.029   2.486   5.857  0.5275  0.3958  1.3093
16711TIP3    H271625   2.992   2.576   5.973 -0.5943  1.7337 -0.0367
16712TIP3   OH271626   6.142   4.689  16.300  0.2579 -0.1381  0.4622
16712TIP3    H171627   6.087   4.645  16.236  1.1650 -1.8112  0.7867
16712TIP3    H271628   6.131   4.639  16.381  0.0196  1.2536  1.3285
16713TIP3   OH271629   4.875   1.722   5.992 -0.5849 -0.0625 -0.6153
16713TIP3    H171630   4.850   1.814   5.991  0.5358  0.2733  0.1717
16713TIP3    H271631   4.967   1.722   5.965  0.0383 -0.7087  1.3334
16714TIP3   OH271632   1.955   0.051  12.489  0.7014 -0.1474 -0.0323
16714TIP3    H171633   1.926   0.116  12.553 -0.4788 -1.3253  0.6824
16714TIP3    H271634   1.973   0.101  12.410 -0.5385  0.9992  0.3871
16715TIP3   OH271635   3.698   5.008   2.975 -0.4750  0.2318  0.5975
16715TIP3    H171636   3.616   5.054   2.958 -0.4210  0.0165 -0.2564
16715TIP3    H271637   3.687   4.922   2.934  0.2770  0.2923  0.2633
16716TIP3   OH271638   0.545   3.503   0.596 -0.1229 -0.2998 -0.0932
16716TIP3    H171639   0.631   3.495   0.638  0.2359 -0.3622 -0.8221
16716TIP3    H271640   0.489   3.443   0.646  0.2278 -0.1777  0.4579
16717TIP3   OH271641   4.134   2.734   0.276 -0.7147 -0.5785 -0.4072
16717TIP3    H171642   4.057   2.767   0.323 -0.3116  1.2609 -0.9668
16717TIP3    H271643   4.187   2.693   0.344 -0.0285  2.2310  0.9120
16718TIP3   OH271644   0.943   5.134  16.600  0.4020  0.4298  0.0207
16718TIP3    H171645   0.946   5.179  16.515  0.7558  0.7715  0.2093
16718TIP3    H271646   0.974   5.045  16.581  1.1583  0.7084 -0.0844
16719TIP3   OH271647   3.974   1.290   4.285  0.3724 -0.5065  0.1554
16719TIP3    H171648   3.880   1.292   4.306  0.2439 -2.1251 -0.1199
16719TIP3    H271649   3.994   1.197   4.273  1.6450 -0.0706 -1.4847
16720TIP3   OH271650   1.077   1.470  16.246  0.4238  0.3611 -0.6155
16720TIP3    H171651   1.051   1.497  16.158 -1.6008  2.9988  0.6404
16720TIP3    H271652   1.106   1.379  16.237 -2.2827 -0.3560 -3.5429
16721TIP3   OH271653   0.056   0.119   1.975 -0.2712 -0.0270 -0.7083
16721TIP3    H171654   0.091   0.134   2.063 -0.4178 -0.6758 -0.5362
16721TIP3    H271655  -0.038   0.130   1.984 -0.3397 -0.6210 -0.6668
16722TIP3   OH271656   5.724   3.581   6.004  1.0064  0.7648  0.4234
16722TIP3    H171657   5.694   3.601   6.093  2.4762  1.2472  0.8538
16722TIP3    H271658   5.783   3.507   6.015 -0.5710 -0.6880 -0.4985
16723TIP3   OH271659   2.900   4.249  13.654 -0.2462 -0.0395 -0.3766
16723TIP3    H171660   2.903   4.162  13.614  1.0285  0.5935 -1.7487
16723TIP3    H271661   2.808   4.275  13.647 -0.5080 -0.9723 -0.6033
16724TIP3   OH271662   3.244   1.968  12.162 -0.1112 -0.0368  0.1324
16724TIP3    H171663   3.298   2.046  12.154 -0.6289  0.3652  0.4886
16724TIP3    H271664   3.251   1.924  12.078 -1.9649  1.7859 -1.0542
16725TIP3   OH271665   3.700   5.006   5.655  0.2374  1.0772 -0.1003
16725TIP3    H171666   3.711   4.982   5.747 -0.5322 -0.6540 -0.4153
16725TIP3    H271667   3.749   4.939   5.607  2.1439  2.9764 -0.9508
16726TIP3   OH271668   5.512   5.086  12.380  0.0183 -0.0945 -0.3678
16726TIP3    H171669   5.424   5.105  12.346 -0.3168  2.8012  1.7188
16726TIP3    H271670   5.521   5.145  12.455  4.1758  0.4897 -1.1240
16727TIP3   OH271671   4.621   5.522  12.404 -0.6540 -0.0082  0.0906
16727TIP3    H171672   4.640   5.428  12.407 -0.6855 -0.0759 -1.4081
16727TIP3    H271673   4.635   5.551  12.494 -0.5461 -1.4237  0.5640
16728TIP3   OH271674   5.015   1.145   5.149 -0.3531  0.0600 -0.0268
16728TIP3    H171675   4.934   1.165   5.101 -0.2129  1.2756  0.2188
16728TIP3    H271676   5.083   1.191   5.101  0.1186 -0.4969  0.0968
16729TIP3   OH271677   2.278   0.776  14.140 -0.2810  0.0413 -0.1700
16729TIP3    H171678   2.290   0.772  14.046 -1.6716 -0.6117 -0.3535
16729TIP3    H271679   2.293   0.687  14.171 -1.8469 -0.2332 -0.0888
16730TIP3   OH271680   2.898   5.002  11.850 -0.1129 -0.0993  0.1294
16730TIP3    H171681   2.980   5.023  11.896  0.8701 -2.2834 -0.4772
16730TIP3    H271682   2.856   4.936  11.905  1.0241 -2.6774 -1.8386
16731TIP3   OH271683   3.868   5.955   3.201  0.3660 -0.0846  0.0004
16731TIP3    H171684   3.939   5.905   3.162  0.7980  0.9645 -0.5836
16731TIP3    H271685   3.805   5.967   3.130  0.5346  0.6906 -0.0233
16732TIP3   OH271686   6.169   3.841   4.061  0.2247 -0.8913  0.5988
16732TIP3    H171687   6.258   3.845   4.096  0.9857 -2.2857 -1.0195
16732TIP3    H271688   6.158   3.924   4.014  0.7517 -0.7928  0.6455
16733TIP3   OH271689   1.413   5.305   3.797  0.2015  0.2959 -0.3278
16733TIP3    H171690   1.446   5.225   3.757  1.8878 -0.2420  1.8902
16733TIP3    H271691   1.331   5.279   3.838  0.4956 -0.1951 -0.0350
16734TIP3   OH271692   4.404   0.818   0.665  0.2724  0.0844  0.1769
16734TIP3    H171693   4.470   0.786   0.603 -0.4247 -0.8601 -0.1098
16734TIP3    H271694   4.377   0.903   0.629 -0.3016 -0.5561 -0.9956
16735TIP3   OH271695   4.336   6.559   6.361  0.0814  0.7420  0.2219
16735TIP3    H171696   4.303   6.485   6.309  0.1811  1.0519 -0.2834
16735TIP3    H271697   4.289   6.635   6.328 -1.9351  0.5914  2.4437
16736TIP3   OH271698   3.567   6.436  11.251 -0.4355  0.4309  0.6419
16736TIP3    H171699   3.494   6.461  11.195 -0.9346 -2.4651 -0.1654
16736TIP3    H271700   3.634   6.403  11.190  0.2717  0.1022  1.5734
16737TIP3   OH271701   0.022   2.587   4.727  0.2752 -0.3461  0.8717
16737TIP3    H171702   0.076   2.523   4.772 -0.3081 -1.0948  0.5162
16737TIP3    H271703   0.082   2.631   4.667  0.7792 -0.2116  1.4641
16738TIP3   OH271704   6.812   3.714   5.396 -0.3712  0.2158 -0.0832
16738TIP3    H171705   6.736   3.668   5.362 -0.5740 -0.8044  1.6397
16738TIP3    H271706   6.777   3.779   5.457  0.1104 -0.6333  1.1518
16739TIP3   OH271707   1.945   2.382  15.096 -0.2437  0.0629 -0.6520
16739TIP3    H171708   1.920   2.372  15.188  0.1307  1.2096 -0.4053
16739TIP3    H271709   1.879   2.334  15.047 -0.7687 -0.0857  0.1929
16740TIP3   OH271710   2.467   0.128  16.501 -0.1984  0.4118  0.4527
16740TIP3    H171711   2.460   0.142  16.407  0.5186  1.2354  0.5060
16740TIP3    H271712   2.558   0.102  16.515 -0.5610 -0.7346  0.8127
16741TIP3   OH271713   0.451   3.521  11.763 -0.4817  0.1381 -0.4389
16741TIP3    H171714   0.400   3.563  11.832 -2.7116 -2.5299 -0.2961
16741TIP3    H271715   0.430   3.428  11.770  4.1069 -1.1742 -0.7431
16742TIP3   OH271716   6.814   3.721  17.000 -0.6360 -0.1355 -0.0336
16742TIP3    H171717   6.871   3.750  16.929 -0.9614  1.6308  0.3667
16742TIP3    H271718   6.875   3.692  17.069 -0.3125 -3.2882 -1.4641
16743TIP3   OH271719   3.030   2.319   3.168 -0.0946 -0.0620 -0.2095
16743TIP3    H171720   3.090   2.276   3.108  1.6936  0.6370  0.9994
16743TIP3    H271721   3.022   2.409   3.135 -0.9273 -0.2921 -0.6649
16744TIP3   OH271722   4.101   5.031  12.662 -0.3670 -0.6187  0.2013
16744TIP3    H171723   4.042   4.999  12.594 -0.0314 -1.3931  0.2596
16744TIP3    H271724   4.069   4.989  12.742 -2.0683  1.9107  0.9470
16745TIP3   OH271725   6.089   3.900  13.549  0.3176 -0.2488 -0.1486
16745TIP3    H171726   6.150   3.896  13.475 -1.5460 -0.2970 -1.7867
16745TIP3    H271727   6.080   3.809  13.577  1.5454 -0.1522  0.6275
16746TIP3   OH271728   2.273   6.159   1.129  1.0675  0.0595  0.1859
16746TIP3    H171729   2.240   6.246   1.106 -0.6569 -0.7856 -0.8065
16746TIP3    H271730   2.325   6.172   1.208 -1.3486  1.6305  1.6483
16747TIP3   OH271731   4.968   1.602   4.281 -0.3847  0.5716  0.0814
16747TIP3    H171732   4.892   1.546   4.291 -0.5828  1.1007  1.8315
16747TIP3    H271733   5.041   1.549   4.313  0.1637 -0.1980 -2.2471
16748TIP3   OH271734   1.040   5.213  14.388 -0.3290 -0.2785  0.0970
16748TIP3    H171735   1.106   5.238  14.324 -0.0849 -1.0992  0.0153
16748TIP3    H271736   1.020   5.294  14.436  1.9763 -0.3161  1.2619
16749TIP3   OH271737   1.111   3.472  13.976  0.0809 -0.1724  0.7236
16749TIP3    H171738   1.176   3.496  13.909  0.2982  0.6994  1.2309
16749TIP3    H271739   1.053   3.410  13.932  0.3793  0.1821 -0.1951
16750TIP3   OH271740   0.335   5.794   1.361  0.1343  0.1410 -0.1013
16750TIP3    H171741   0.401   5.855   1.327  0.6846 -0.2781  0.1940
16750TIP3    H271742   0.252   5.838   1.345  0.4655  0.5446 -0.7631
16751TIP3   OH271743   2.519   1.659  13.650  0.4673  0.0432 -0.2875
16751TIP3    H171744   2.437   1.612  13.638 -0.1440  0.5997  1.4894
16751TIP3    H271745   2.500   1.749  13.620  0.1722  0.3732  0.8538
16752TIP3   OH271746   3.870   2.044   1.809 -0.1696 -0.0798  0.0144
16752TIP3    H171747   3.884   2.104   1.882 -0.4969  0.7559 -0.5943
16752TIP3    H271748   3.954   2.001   1.797  0.8629  2.0998 -1.1591
16753TIP3   OH271749   0.049   3.208   2.296  0.1089 -0.4728  0.6237
16753TIP3    H171750  -0.018   3.146   2.270 -0.8174  0.5228  0.5862
16753TIP3    H271751   0.048   3.275   2.228 -0.9829  1.1326  2.1278
16754TIP3   OH271752   4.794   2.212   5.306 -0.2800  0.2260  0.3749
16754TIP3    H171753   4.705   2.186   5.327 -0.2174 -1.3454 -1.0515
16754TIP3    H271754   4.843   2.130   5.304  1.4127  1.1231  1.9145
16755TIP3   OH271755   4.353   5.976  10.499  0.4010  0.1035 -0.1125
16755TIP3    H171756   4.309   6.021  10.427 -2.6792 -0.1070  1.5109
16755TIP3    H271757   4.361   5.885  10.470 -0.3773  0.1136 -0.3582
16756TIP3   OH271758   5.139   0.394   3.155 -0.4513 -0.8387 -0.1266
16756TIP3    H171759   5.097   0.452   3.091 -0.6237  0.0686  0.7785
16756TIP3    H271760   5.071   0.334   3.183 -0.8995 -0.0334  0.5699
16757TIP3   OH271761   1.783   1.004  11.653 -0.6802  0.8997 -0.0511
16757TIP3    H171762   1.845   0.996  11.725 -0.8300 -0.9879 -0.0991
16757TIP3    H271763   1.698   0.982  11.690 -1.2462  2.6811 -0.1799
16758TIP3   OH271764   1.288   4.337   4.589 -0.6117  0.0808  0.1900
16758TIP3    H171765   1.359   4.305   4.534 -0.6015 -0.3122  0.4252
16758TIP3    H271766   1.323   4.415   4.632 -0.1247 -0.4203  0.7240
16759TIP3   OH271767   1.072   0.882  13.210 -0.1219  0.1887 -0.5393
16759TIP3    H171768   1.086   0.972  13.182 -0.3506 -0.3492 -2.5593
16759TIP3    H271769   1.093   0.829  13.133  0.3373 -1.5217  0.6927
16760TIP3   OH271770   1.806   5.237   0.279 -0.4764  0.6876 -0.7849
16760TIP3    H171771   1.808   5.205   0.369 -0.0274  0.1304 -0.9922
16760TIP3    H271772   1.895   5.266   0.261 -0.7446  1.5487 -0.7920
16761TIP3   OH271773   3.585   2.803  16.120  0.0553  0.1472 -0.0231
16761TIP3    H171774   3.621   2.817  16.033 -0.7962  0.7605 -0.2811
16761TIP3    H271775   3.579   2.890  16.158 -0.8511  0.0307  0.1300
16762TIP3   OH271776   2.537   4.232   4.709  0.1060 -0.5609 -0.0883
16762TIP3    H171777   2.557   4.192   4.794  1.2003  1.2271  0.5568
16762TIP3    H271778   2.610   4.207   4.653 -0.4898 -1.5340 -0.4408
16763TIP3   OH271779   1.871   0.860   0.604 -0.1814  0.4627  0.0577
16763TIP3    H171780   1.965   0.845   0.615  0.1043  1.6742 -0.5416
16763TIP3    H271781   1.866   0.945   0.560 -1.5047 -0.2608 -1.2760
16764TIP3   OH271782   6.277   3.389  13.891 -0.2662 -0.1350 -0.2115
16764TIP3    H171783   6.328   3.469  13.905 -0.5777  0.1779 -0.8551
16764TIP3    H271784   6.226   3.379  13.972 -0.1714  0.2696 -0.0974
16765TIP3   OH271785   4.861   1.834   4.331 -0.2173 -0.3092  0.1979
16765TIP3    H171786   4.887   1.742   4.337  1.2343  0.1519  1.7548
16765TIP3    H271787   4.932   1.876   4.283  0.9898  0.5807  2.5903
16766TIP3   OH271788   4.205   5.711   1.811 -0.0565 -0.1147  0.4563
16766TIP3    H171789   4.255   5.792   1.799  0.6561 -0.8300 -1.8688
16766TIP3    H271790   4.220   5.687   1.902  1.1066  1.4544  0.7245
16767TIP3   OH271791   4.876   3.988   1.872  0.3560  0.3119 -0.3908
16767TIP3    H171792   4.928   3.982   1.952 -1.2061 -1.9307  0.5510
16767TIP3    H271793   4.879   4.081   1.849  1.6834  0.8575  1.6854
16768TIP3   OH271794   0.193   1.089  15.787  0.2552  0.0550  0.0502
16768TIP3    H171795   0.231   1.174  15.809 -0.0517  0.3773 -0.6395
16768TIP3    H271796   0.139   1.106  15.710  1.0513 -0.9829 -0.7659
16769TIP3   OH271797   0.967   1.492   2.723 -0.2101 -0.6730  0.9798
16769TIP3    H171798   0.908   1.550   2.772 -1.3476 -0.0703 -1.0046
16769TIP3    H271799   0.910   1.424   2.688  0.2173 -0.0800 -0.9778
16770TIP3   OH271800   6.224   0.560  17.150  0.1336 -0.0931  0.1665
16770TIP3    H171801   6.281   0.578  17.075  0.9257  1.4619  1.0847
16770TIP3    H271802   6.143   0.526  17.112  0.1995  1.4495 -1.4544
16771TIP3   OH271803   4.910   6.410   2.236  0.0885  0.1574  0.7127
16771TIP3    H171804   4.836   6.359   2.202  1.5901 -1.1504 -0.7580
16771TIP3    H271805   4.913   6.387   2.329 -0.8477 -0.4267  0.6171
16772TIP3   OH271806   4.321   1.649   0.455 -0.0037  0.0202 -0.2954
16772TIP3    H171807   4.391   1.588   0.477 -0.0796 -0.3385 -1.0414
16772TIP3    H271808   4.271   1.605   0.386  0.4303  1.2734 -1.4283
16773TIP3   OH271809   2.164   6.489   1.373  0.5207  0.2457  0.0377
16773TIP3    H171810   2.092   6.528   1.323  1.5283  0.7945 -1.0567
16773TIP3    H271811   2.199   6.422   1.315  1.3172  0.4587  0.2557
16774TIP3   OH271812   5.875   6.059   1.694 -0.1748  0.2623 -0.0053
16774TIP3    H171813   5.918   6.076   1.610 -3.0309  0.8415 -1.4487
16774TIP3    H271814   5.947   6.033   1.752  1.7642 -1.6945 -2.9779
16775TIP3   OH271815   6.599   5.860  14.607  0.4125  0.0786  0.2161
16775TIP3    H171816   6.656   5.936  14.598 -1.3286  1.4635  0.3934
16775TIP3    H271817   6.624   5.802  14.534  1.9592  0.6436  0.2555
16776TIP3   OH271818   6.144   2.550   1.191  0.4522  0.1792  0.3573
16776TIP3    H171819   6.132   2.476   1.132 -1.6197  0.2225  0.6550
16776TIP3    H271820   6.123   2.516   1.277 -0.6303  1.1120  0.4872
16777TIP3   OH271821   4.200   6.128  15.002 -1.2138  0.1489  0.1062
16777TIP3    H171822   4.256   6.184  14.950  0.6695 -1.7437 -0.0264
16777TIP3    H271823   4.143   6.085  14.938 -0.5098 -0.4236 -0.1400
16778TIP3   OH271824   5.856   3.228   3.521  0.3858  0.6398  0.2333
16778TIP3    H171825   5.823   3.271   3.442 -0.1525  0.9957  0.6444
16778TIP3    H271826   5.932   3.178   3.491 -0.2466  0.1765 -0.6455
16779TIP3   OH271827   0.977   5.499   4.567 -0.0719 -0.2202  0.0525
16779TIP3    H171828   0.973   5.492   4.472 -0.8353 -0.4693  0.0977
16779TIP3    H271829   0.950   5.590   4.585 -0.3124 -0.2889  0.0480
16780TIP3   OH271830   0.867   2.820  14.227  0.4625 -0.3221 -0.1033
16780TIP3    H171831   0.775   2.847  14.231  0.5781 -0.0282  0.5669
16780TIP3    H271832   0.886   2.816  14.133 -0.7338 -2.0694 -0.3272
16781TIP3   OH271833   2.158   4.545   2.009 -0.1435  0.2361  0.7903
16781TIP3    H171834   2.141   4.460   1.968  1.0811 -0.5315  1.8043
16781TIP3    H271835   2.073   4.589   2.010 -0.8683 -1.1163  0.5427
16782TIP3   OH271836   2.877   6.114   3.509  0.0444 -0.5518 -0.0391
16782TIP3    H171837   2.820   6.191   3.519  2.2077  1.2483 -0.7094
16782TIP3    H271838   2.897   6.087   3.599 -2.8939 -2.1701  0.2621
16783TIP3   OH271839   6.742   1.025   3.809  0.5261 -0.4267  0.3653
16783TIP3    H171840   6.837   1.014   3.813  0.5219 -0.2287  1.4869
16783TIP3    H271841   6.715   0.975   3.732  1.4661 -1.0509  0.4187
16784TIP3   OH271842   5.806   1.496  14.391 -0.1134 -0.1004 -0.2581
16784TIP3    H171843   5.820   1.488  14.297  1.2017  1.0466 -0.1973
16784TIP3    H271844   5.880   1.549  14.422 -1.2480  0.7181  1.2030
16785TIP3   OH271845   5.959   6.154  15.904 -0.3077  0.0582  0.1663
16785TIP3    H171846   5.935   6.217  15.836  0.4534  1.0052  0.7409
16785TIP3    H271847   5.956   6.069  15.861 -1.5088  0.4648 -0.5908
16786TIP3   OH271848   5.854   3.972   5.961  0.5850 -0.0260  0.0017
16786TIP3    H171849   5.764   4.002   5.949  1.4929  2.6076 -0.7753
16786TIP3    H271850   5.866   3.969   6.056 -0.2488 -0.1839  0.1075
16787TIP3   OH271851   5.391   2.083   3.690 -0.0531 -0.0774 -0.1657
16787TIP3    H171852   5.450   2.017   3.654  0.0266 -0.2591  0.2838
16787TIP3    H271853   5.372   2.141   3.617  1.2715  0.4158 -0.1517
16788TIP3   OH271854   0.530   3.845  11.610  0.0998 -0.1978  0.2780
16788TIP3    H171855   0.491   3.932  11.607 -0.8494 -0.4933  2.3403
16788TIP3    H271856   0.519   3.811  11.522 -1.2652  1.0347 -0.0720
16789TIP3   OH271857   4.826   6.208   2.709  0.4356 -0.5856 -0.3016
16789TIP3    H171858   4.893   6.140   2.719  0.6317 -0.2708  0.6175
16789TIP3    H271859   4.775   6.203   2.789  2.1347  2.1370  1.1058
16790TIP3   OH271860   3.123   2.910  10.904  0.1774  0.2108  0.4438
16790TIP3    H171861   3.130   2.844  10.972  0.3659  0.7199  0.9253
16790TIP3    H271862   3.161   2.869  10.826 -0.8397 -0.6905  0.3997
16791TIP3   OH271863   4.645   2.701  14.452  0.4785 -0.7735  0.2247
16791TIP3    H171864   4.582   2.710  14.523 -0.2769 -0.3256 -0.4706
16791TIP3    H271865   4.727   2.735  14.488  0.1092 -0.5517  0.8767
16792TIP3   OH271866   6.086   0.895   5.926  0.3404 -0.1981  0.3983
16792TIP3    H171867   6.096   0.833   5.998 -1.3136 -0.8552  0.1229
16792TIP3    H271868   6.070   0.840   5.849  1.4994  0.5105 -0.3761
16793TIP3   OH271869   3.830   3.202   5.775  0.2465 -0.4304 -0.3252
16793TIP3    H171870   3.770   3.213   5.701 -0.8453 -0.0837  0.5905
16793TIP3    H271871   3.887   3.279   5.771 -0.4146  0.0715 -0.2610
16794TIP3   OH271872   4.312   1.857   2.423  0.6109  0.5281 -0.5152
16794TIP3    H171873   4.262   1.890   2.349  0.0283 -0.4829 -0.6027
16794TIP3    H271874   4.301   1.923   2.492 -0.4648  0.5450 -0.6929
16795TIP3   OH271875   1.923   2.055  16.626 -0.1539  0.3095 -0.0947
16795TIP3    H171876   1.913   2.074  16.533 -2.2980 -1.0699 -0.2040
16795TIP3    H271877   1.990   2.117  16.656 -0.6541  1.9687 -2.1704
16796TIP3   OH271878   6.619   2.789  11.900  0.0071  0.7196 -0.1997
16796TIP3    H171879   6.564   2.790  11.978 -0.4136  2.7302 -0.4439
16796TIP3    H271880   6.558   2.780  11.827  0.2966 -0.1060 -0.3414
16797TIP3   OH271881   1.768   3.522  15.832 -0.3109  0.3183  0.5579
16797TIP3    H171882   1.754   3.427  15.835  2.5236 -0.2384 -0.4814
16797TIP3    H271883   1.701   3.558  15.891 -1.5474 -2.2901  0.8925
16798TIP3   OH271884   2.277   2.869   4.704  0.7502  0.1180  0.3888
16798TIP3    H171885   2.214   2.938   4.682  1.0048  0.1456 -0.2718
16798TIP3    H271886   2.336   2.910   4.767  0.5026  0.2953  0.5078
16799TIP3   OH271887   1.277   2.363  12.350 -0.2350 -0.5845  0.2726
16799TIP3    H171888   1.291   2.455  12.331 -0.6394 -0.8190 -1.3278
16799TIP3    H271889   1.294   2.318  12.267  0.7117 -2.0496  1.2034
16800TIP3   OH271890   1.846   0.636   3.657  0.3704  0.2123  0.3684
16800TIP3    H171891   1.904   0.711   3.647  1.4023 -0.3909  1.5839
16800TIP3    H271892   1.842   0.620   3.751  1.7430 -2.3975  0.0834
16801TIP3   OH271893   4.729   4.217  15.263  0.4795  0.0106 -0.2156
16801TIP3    H171894   4.706   4.309  15.245 -0.0828 -0.3009 -1.1792
16801TIP3    H271895   4.645   4.174  15.275  0.6532 -0.6476 -1.2058
16802TIP3   OH271896   2.486   1.887   4.524 -0.0173 -0.7824  0.1642
16802TIP3    H171897   2.466   1.981   4.522  3.5164  0.0918 -0.7932
16802TIP3    H271898   2.482   1.864   4.617  2.0930  1.1835  0.8440
16803TIP3   OH271899   1.132   4.074  11.403 -0.1656  0.4800 -0.0115
16803TIP3    H171900   1.166   4.138  11.464 -3.6321  0.9214  1.7160
16803TIP3    H271901   1.096   4.126  11.331 -0.5837  0.3075  0.0686
16804TIP3   OH271902   6.084   4.127  11.011  0.1965  0.2301  0.4185
16804TIP3    H171903   6.119   4.122  11.100  0.2219 -0.5899  0.3679
16804TIP3    H271904   6.042   4.213  11.007 -1.8587 -0.6190  2.0112
16805TIP3   OH271905   2.306   2.867   2.250 -0.4467 -0.7614  0.7104
16805TIP3    H171906   2.348   2.929   2.310  0.3479 -1.1605  0.5929
16805TIP3    H271907   2.221   2.849   2.289 -0.6084  0.2336  0.8556
16806TIP3   OH271908   4.161   4.677   0.536 -0.0184 -0.2000 -0.4135
16806TIP3    H171909   4.205   4.665   0.451 -1.7324  1.0964 -1.5615
16806TIP3    H271910   4.230   4.707   0.595  0.9355  0.3520 -1.7585
16807TIP3   OH271911   3.886   6.800  16.072 -0.3361 -0.2326  0.3859
16807TIP3    H171912   3.966   6.762  16.108  1.0750  1.1647 -1.1061
16807TIP3    H271913   3.916   6.866  16.009 -2.6539  1.2403  0.6734
16808TIP3   OH271914   5.924   5.733  11.648  0.8330 -0.1735  0.4452
16808TIP3    H171915   5.881   5.662  11.695  0.2356 -0.4464 -0.5028
16808TIP3    H271916   5.973   5.690  11.578 -2.6395  0.4932 -2.6567
16809TIP3   OH271917   6.316   3.561   2.426  0.1399 -0.1475 -0.3199
16809TIP3    H171918   6.254   3.504   2.471  0.5512  0.3034  0.8446
16809TIP3    H271919   6.300   3.648   2.464  1.3849  0.0008 -0.1097
16810TIP3   OH271920   3.435   5.184   3.801  0.2713 -0.3344 -0.1055
16810TIP3    H171921   3.345   5.211   3.784  0.1783 -0.4270  0.2282
16810TIP3    H271922   3.485   5.265   3.802 -0.0488 -0.1326  1.1538
16811TIP3   OH271923   0.737   2.744  13.349  0.1610 -0.2967 -0.5915
16811TIP3    H171924   0.689   2.741  13.266  0.5443 -2.5653 -0.7750
16811TIP3    H271925   0.782   2.660  13.354  1.6009  0.5169  1.0850
16812TIP3   OH271926   1.915   2.653  14.091  0.3767 -0.1015 -0.1518
16812TIP3    H171927   1.902   2.729  14.147  0.6571 -0.0091 -0.2084
16812TIP3    H271928   2.010   2.649  14.079  0.4572 -1.0060  0.6210
16813TIP3   OH271929   6.519   4.045  15.079  0.4393 -0.6273 -0.1688
16813TIP3    H171930   6.579   4.100  15.028  0.2709  0.7137  0.9969
16813TIP3    H271931   6.447   4.026  15.019  0.2792  0.8488 -0.4858
16814TIP3   OH271932   3.284   6.148  17.179  0.4998  0.0159 -0.3329
16814TIP3    H171933   3.252   6.069  17.222 -1.3794  0.1538 -1.3522
16814TIP3    H271934   3.362   6.120  17.131 -0.2763 -1.3008 -0.8740
16815TIP3   OH271935   2.925   6.148  14.945  0.0563  0.1183 -0.1620
16815TIP3    H171936   2.915   6.087  14.873 -1.8964  0.3957 -0.1989
16815TIP3    H271937   2.960   6.096  15.017  2.1228 -0.1390 -1.2798
16816TIP3   OH271938   0.811   4.741   3.363  0.1851 -0.2393  0.5235
16816TIP3    H171939   0.831   4.822   3.411 -1.2774 -0.2961  1.2725
16816TIP3    H271940   0.733   4.762   3.312  0.3623 -0.8969 -0.0326
16817TIP3   OH271941   4.293   4.232   2.858  0.1400 -0.6706  0.4210
16817TIP3    H171942   4.315   4.314   2.902 -0.6285 -0.7492  0.9645
16817TIP3    H271943   4.283   4.255   2.766  0.3261 -0.2321  0.5104
16818TIP3   OH271944   1.718   1.306   5.825 -0.7093 -0.1431 -0.6037
16818TIP3    H171945   1.759   1.240   5.881 -2.3346 -1.3890 -0.8260
16818TIP3    H271946   1.629   1.275   5.811 -1.1082  1.4077 -1.8661
16819TIP3   OH271947   6.182   1.749  11.910 -0.2199  0.2765 -0.2663
16819TIP3    H171948   6.141   1.824  11.954  0.1067 -0.1096  0.7331
16819TIP3    H271949   6.270   1.746  11.945 -0.6891 -1.4851  0.9063
16820TIP3   OH271950   0.992   5.238   1.923 -0.1393  0.5119  0.2625
16820TIP3    H171951   0.973   5.332   1.922  1.0461  0.8117  1.7985
16820TIP3    H271952   1.085   5.232   1.945 -0.5124 -1.0228  1.7141
16821TIP3   OH271953   2.049   6.381   3.020  0.1350 -0.5104 -0.7947
16821TIP3    H171954   2.143   6.398   3.029  0.1786  0.1710 -2.2022
16821TIP3    H271955   2.021   6.350   3.107  1.3870  0.5950  0.0439
16822TIP3   OH271956   5.196   6.204   1.115  0.1002 -0.1588 -0.0998
16822TIP3    H171957   5.153   6.191   1.031 -0.9065 -0.0771  0.3815
16822TIP3    H271958   5.231   6.117   1.138  1.1363  0.0072 -0.9822
16823TIP3   OH271959   4.940   3.416   1.009 -0.3486 -0.2665  0.8595
16823TIP3    H171960   4.947   3.380   0.921 -0.1232 -3.6341  2.1052
16823TIP3    H271961   4.859   3.378   1.044 -0.2028  0.6532  2.2832
16824TIP3   OH271962   0.615   5.864   4.399 -0.2214  0.0611 -0.3161
16824TIP3    H171963   0.564   5.783   4.408 -0.1014 -0.0360 -0.5190
16824TIP3    H271964   0.556   5.925   4.355  0.3349 -0.5221 -1.9592
16825TIP3   OH271965   6.133   2.719   5.195 -0.2060 -0.6561  0.1409
16825TIP3    H171966   6.207   2.702   5.255  0.7923 -0.5932 -1.0326
16825TIP3    H271967   6.157   2.673   5.115 -0.3475  1.2782 -1.0540
16826TIP3   OH271968   2.039   4.325   0.296 -0.1917 -0.0112  0.0163
16826TIP3    H171969   2.065   4.249   0.348 -2.0570 -1.4287 -1.0040
16826TIP3    H271970   2.116   4.344   0.241  0.8277 -0.1671  1.3316
16827TIP3   OH271971   2.737   1.703   4.682 -0.0843 -0.4809 -0.3448
16827TIP3    H171972   2.730   1.608   4.682  0.4506 -0.5451 -1.6084
16827TIP3    H271973   2.722   1.728   4.591  1.8824  0.4605 -0.4617
16828TIP3   OH271974   4.066   5.640   3.643  0.1880  0.3343 -0.1454
16828TIP3    H171975   4.068   5.639   3.547  0.8676  0.6289 -0.1348
16828TIP3    H271976   3.978   5.607   3.665 -0.1601  0.7541 -0.8724
16829TIP3   OH271977   2.680   4.730   5.435 -0.9448 -0.2285  0.1617
16829TIP3    H171978   2.703   4.800   5.374  0.8584 -1.5319 -0.7513
16829TIP3    H271979   2.616   4.677   5.387 -2.1111  0.6050  0.7530
16830TIP3   OH271980   1.894   6.347  12.705  0.0454 -0.5461  0.3091
16830TIP3    H171981   1.825   6.404  12.741  0.4492  0.0350  0.1730
16830TIP3    H271982   1.856   6.311  12.625 -0.7883 -1.6870  1.1724
16831TIP3   OH271983   6.418   1.528   3.137 -0.1984  0.0359  0.1641
16831TIP3    H171984   6.427   1.449   3.191  1.3327  1.6153  2.3807
16831TIP3    H271985   6.420   1.600   3.200 -0.9933  1.9040 -1.8402
16832TIP3   OH271986   6.615   2.011   1.222  0.2676  0.4728  0.0937
16832TIP3    H171987   6.578   2.073   1.285 -0.2296  0.2881 -0.0115
16832TIP3    H271988   6.590   2.045   1.137  2.1510  1.5092 -0.1095
16833TIP3   OH271989   1.733   0.447   5.359 -0.0536 -0.6793 -0.0443
16833TIP3    H171990   1.795   0.474   5.291  0.0827  0.6918  0.5826
16833TIP3    H271991   1.671   0.390   5.314 -0.7357  1.2252 -1.6288
16834TIP3   OH271992   3.170   3.244   0.865  0.4497  0.0155  0.0993
16834TIP3    H171993   3.086   3.198   0.869  0.5823 -0.1546  1.5517
16834TIP3    H271994   3.234   3.175   0.847  0.2930  0.1402 -0.9771
16835TIP3   OH271995   3.373   3.022  11.239 -0.5911  0.1274 -0.7843
16835TIP3    H171996   3.365   2.934  11.202 -2.8636  0.4499 -1.2297
16835TIP3    H271997   3.433   3.011  11.313  1.1188 -1.2653 -2.2851
16836TIP3   OH271998   1.865   1.010  16.958  0.0436 -1.1652 -0.4307
16836TIP3    H171999   1.934   1.047  17.013  0.1143 -1.0593 -0.5894
16836TIP3    H272000   1.895   0.921  16.938 -0.4317 -1.5383  0.4813
16837TIP3   OH272001   3.682   0.336  12.523 -0.1245 -0.2432 -0.4893
16837TIP3    H172002   3.753   0.287  12.482 -0.7087 -0.9472 -0.6902
16837TIP3    H272003   3.649   0.393  12.454  0.9229  0.8762 -0.0990
16838TIP3   OH272004   3.363   4.117  16.609  0.3312  0.1708  0.7034
16838TIP3    H172005   3.302   4.045  16.625  0.5813 -0.1836  0.0991
16838TIP3    H272006   3.437   4.100  16.668 -0.3211  0.8282  1.7383
16839TIP3   OH272007   0.732   4.186   0.050  0.0661 -0.1838 -0.1642
16839TIP3    H172008   0.718   4.131  -0.027 -0.6933 -2.0948  1.2742
16839TIP3    H272009   0.779   4.130   0.112 -1.0652  0.6126  1.4943
16840TIP3   OH272010   3.663   3.407  13.470 -0.1698 -0.2903  0.1820
16840TIP3    H172011   3.587   3.410  13.413 -0.3552  1.0600  0.4718
16840TIP3    H272012   3.650   3.478  13.532  0.9253 -0.5643  0.7646
16841TIP3   OH272013   1.943   6.745   4.898 -0.3564  0.1672  0.5605
16841TIP3    H172014   1.848   6.732   4.891 -0.2193 -0.0372 -1.4844
16841TIP3    H272015   1.979   6.701   4.821  1.4918 -0.4617  1.7335
16842TIP3   OH272016   2.998   1.420   0.407  0.1345 -0.2203 -0.3107
16842TIP3    H172017   2.909   1.391   0.386 -0.7126 -0.5709  3.2246
16842TIP3    H272018   3.052   1.341   0.399 -1.1519 -1.7429  3.7089
16843TIP3   OH272019   1.281   5.140   5.011 -0.5054 -0.0068  0.1878
16843TIP3    H172020   1.235   5.221   5.032  1.4993  0.9902  0.9268
16843TIP3    H272021   1.366   5.148   5.055  1.5529 -0.4891 -3.3163
16844TIP3   OH272022   3.551   0.121   5.351  0.2973 -0.1984  0.1267
16844TIP3    H172023   3.476   0.176   5.330  0.8979  0.7292  0.3210
16844TIP3    H272024   3.516   0.033   5.358 -0.3689 -0.1704 -2.1687
16845TIP3   OH272025   6.221   1.573   1.152 -0.2387  0.7980  0.6465
16845TIP3    H172026   6.184   1.618   1.228 -0.9626  0.0494  0.7536
16845TIP3    H272027   6.268   1.498   1.189 -1.6075 -0.2581  0.3111
16846TIP3   OH272028   4.100   5.819   3.120 -0.4093  0.4979  0.3970
16846TIP3    H172029   4.093   5.835   3.026 -1.5886 -0.8705  0.2299
16846TIP3    H272030   4.188   5.781   3.132 -0.8943 -0.9422 -0.4195
16847TIP3   OH272031   5.136   1.941  16.275  0.1370 -0.6624 -0.2576
16847TIP3    H172032   5.185   1.967  16.196 -1.3546  3.2674 -0.1324
16847TIP3    H272033   5.071   2.010  16.286 -2.6978 -3.4248  1.9621
16848TIP3   OH272034   2.721   6.753   4.118 -0.4080  0.5373  0.3805
16848TIP3    H172035   2.787   6.689   4.092  0.2616  0.8061  1.3556
16848TIP3    H272036   2.673   6.771   4.038 -0.7931 -1.3779  0.1229
16849TIP3   OH272037   0.785   3.331  16.102  0.1946 -0.2333  0.2093
16849TIP3    H172038   0.869   3.345  16.146 -0.3462  0.4978  1.0596
16849TIP3    H272039   0.735   3.410  16.122  0.3425  0.7719 -2.8245
16850TIP3   OH272040   2.980   4.240   2.582  0.5282  0.4553 -0.2292
16850TIP3    H172041   2.903   4.295   2.600 -0.4420 -0.9668  0.0899
16850TIP3    H272042   3.042   4.263   2.651 -1.3770 -1.5937  2.3595
16851TIP3   OH272043   2.478   3.181  15.857  0.1643  0.2041  0.3976
16851TIP3    H172044   2.500   3.125  15.783  0.2086 -1.1899  1.4359
16851TIP3    H272045   2.474   3.269  15.820  1.9561 -0.2176 -0.9078
16852TIP3   OH272046   0.247   3.646  16.209 -0.5011  0.0357  0.0642
16852TIP3    H172047   0.220   3.558  16.236 -0.1972 -0.9036 -2.4338
16852TIP3    H272048   0.165   3.691  16.189 -0.5982 -0.1570  0.0252
16853TIP3   OH272049   4.662   5.956  12.719  0.0798 -0.3400  0.1365
16853TIP3    H172050   4.658   5.904  12.799 -0.1290  0.1784  0.4729
16853TIP3    H272051   4.660   6.047  12.750  0.3485 -0.1360 -0.4416
16854TIP3   OH272052   3.964   0.641   2.249 -0.2543 -0.3903  0.0803
16854TIP3    H172053   3.970   0.732   2.218  2.3713 -0.5823 -0.2120
16854TIP3    H272054   3.913   0.596   2.182  1.9360  0.0438 -2.0028
16855TIP3   OH272055   3.900   0.924   3.485 -0.3058  0.0675  0.1735
16855TIP3    H172056   3.819   0.974   3.489 -0.0703  0.4139  0.7946
16855TIP3    H272057   3.954   0.960   3.555 -0.7335 -2.0824  1.7230
16856TIP3   OH272058   4.652   6.749  14.595  0.6614  0.0679  0.4890
16856TIP3    H172059   4.594   6.761  14.521 -1.4196 -0.7035  1.9081
16856TIP3    H272060   4.740   6.758  14.558 -0.3108  0.6827 -1.8498
16857TIP3   OH272061   1.630   6.311   5.379  0.0300  0.2832 -0.1394
16857TIP3    H172062   1.703   6.265   5.337  0.5518  1.2102 -0.2794
16857TIP3    H272063   1.567   6.324   5.308  1.2794  2.6141 -0.9446
16858TIP3   OH272064   4.902   5.357   5.429  0.0948  0.3857  0.1582
16858TIP3    H172065   4.993   5.356   5.401 -0.0266  2.4694 -0.4715
16858TIP3    H272066   4.854   5.316   5.357  0.4947 -0.6663  0.4687
16859TIP3   OH272067   2.036   4.986   5.556 -0.3899  0.6048 -0.2759
16859TIP3    H172068   1.966   4.955   5.614  0.2866 -0.7978 -0.1646
16859TIP3    H272069   2.030   4.929   5.479 -0.2431  1.3904 -0.8794
16860TIP3   OH272070   0.100   2.727  17.057  0.5257 -0.2136  0.6013
16860TIP3    H172071   0.137   2.685  16.980  1.1197  0.9305  0.2419
16860TIP3    H272072   0.008   2.740  17.035  0.5092 -0.6197  0.4169
16861TIP3   OH272073   6.218   0.669  14.493  0.5924  0.3929  0.9444
16861TIP3    H172074   6.141   0.619  14.521  1.4712 -1.9390 -0.5159
16861TIP3    H272075   6.183   0.756  14.473 -1.0409  0.4431  3.4198
16862TIP3   OH272076   3.397   2.045  11.362 -0.3773  0.8043 -0.3567
16862TIP3    H172077   3.305   2.028  11.380 -0.3178  1.4216  0.6174
16862TIP3    H272078   3.411   2.012  11.273 -1.3756  0.1440 -0.2806
16863TIP3   OH272079   0.208   3.405  13.171 -0.0831  0.2684  0.0919
16863TIP3    H172080   0.199   3.416  13.266  0.4251  0.7317  0.0916
16863TIP3    H272081   0.134   3.454  13.135  1.1714  2.3331  0.1644
16864TIP3   OH272082   5.855   6.681  13.710 -0.1735 -0.1354 -0.5480
16864TIP3    H172083   5.905   6.745  13.659 -0.7829  1.2626  0.5736
16864TIP3    H272084   5.918   6.648  13.775 -0.2671  0.4526 -0.1544
16865TIP3   OH272085   1.847   6.254  11.531 -0.3745  0.5466 -0.4438
16865TIP3    H172086   1.771   6.296  11.491 -0.8964 -1.6025 -1.8658
16865TIP3    H272087   1.898   6.221  11.457  0.7900  0.0265  0.5561
16866TIP3   OH272088   0.515   2.458  12.852 -0.3634  0.1589 -0.6573
16866TIP3    H172089   0.605   2.490  12.861 -0.0724 -0.7091 -0.4318
16866TIP3    H272090   0.462   2.538  12.851  0.4561  0.7121 -1.4860
16867TIP3   OH272091   4.052   2.925   6.182 -0.2925 -0.1946 -0.5120
16867TIP3    H172092   4.140   2.892   6.163  0.1109  0.4992  0.1026
16867TIP3    H272093   4.057   2.956   6.272 -1.7329 -1.9763  0.2505
16868TIP3   OH272094   5.822   3.227  10.921 -0.0710  0.2384 -0.1677
16868TIP3    H172095   5.728   3.221  10.937  0.0239  2.5194  1.7350
16868TIP3    H272096   5.837   3.167  10.848 -2.4700 -2.5346  1.3928
16869TIP3   OH272097   4.882   4.277   1.832  0.9805  0.4852 -0.3326
16869TIP3    H172098   4.880   4.329   1.751  0.3219  0.4072 -0.3727
16869TIP3    H272099   4.807   4.309   1.882  2.0472  1.3447  0.7692
16870TIP3   OH272100   5.911   6.117   1.378 -0.2684 -0.5690 -0.8667
16870TIP3    H172101   5.988   6.061   1.389  0.8199  0.9767 -0.3341
16870TIP3    H272102   5.889   6.110   1.285  0.9563 -0.4821 -1.1711
16871TIP3   OH272103   0.991   5.224  16.353  0.3895 -0.5945  0.4893
16871TIP3    H172104   1.012   5.149  16.297 -1.8364 -0.5245 -0.5324
16871TIP3    H272105   0.936   5.280  16.299  0.2371  0.7318  1.9497
16872TIP3   OH272106   4.027   2.060  12.431  0.1532  0.2343 -0.3023
16872TIP3    H172107   4.023   1.969  12.402 -1.3374  0.5044 -1.0611
16872TIP3    H272108   3.953   2.102  12.387 -0.0086  1.5043  1.1037
16873TIP3   OH272109   2.415   1.631  16.870  0.7966  0.8503 -0.6357
16873TIP3    H172110   2.482   1.687  16.909  0.6408  0.4638  0.2060
16873TIP3    H272111   2.433   1.544  16.906 -1.0091  0.9827  0.7457
16874TIP3   OH272112   4.530   6.506  16.081  0.4539 -0.2457  0.3233
16874TIP3    H172113   4.449   6.479  16.124 -1.1028  1.7652 -1.1432
16874TIP3    H272114   4.560   6.581  16.131  0.7525 -0.2407  0.1365
16875TIP3   OH272115   1.141   3.518   5.029  0.4454  0.6006 -0.8930
16875TIP3    H172116   1.227   3.560   5.021  1.6079 -1.3372  0.6915
16875TIP3    H272117   1.138   3.456   4.956  0.5101  0.4503 -0.7667
16876TIP3   OH272118   5.163   5.968   1.444 -0.1611 -0.2818 -0.0118
16876TIP3    H172119   5.249   6.007   1.456 -0.9975  1.8233 -0.3746
16876TIP3    H272120   5.174   5.876   1.469  2.3518 -0.2693 -0.8151
16877TIP3   OH272121   4.009   1.651  12.634 -0.7003 -0.3454  0.1726
16877TIP3    H172122   4.102   1.629  12.644 -0.7277 -0.3946  0.3126
16877TIP3    H272123   3.963   1.592  12.694 -0.8098 -0.2254  0.2079
16878TIP3   OH272124   0.960   2.114   3.828 -0.1173  0.0586 -0.4585
16878TIP3    H172125   0.974   2.036   3.775 -0.3527  0.1224 -0.6157
16878TIP3    H272126   0.886   2.158   3.787 -0.3801  0.0435  0.0003
16879TIP3   OH272127   6.613   0.338  15.173 -0.0479  0.5968  0.2849
16879TIP3    H172128   6.548   0.383  15.227  1.4041  3.8258 -0.4671
16879TIP3    H272129   6.681   0.313  15.235  1.1127  3.3524  0.2589
16880TIP3   OH272130   4.069   1.782  11.077 -0.2455 -1.0401 -0.0338
16880TIP3    H172131   4.085   1.855  11.137 -0.6254  0.0602 -1.2216
16880TIP3    H272132   4.035   1.712  11.133  1.4189 -0.8242  1.3514
16881TIP3   OH272133   3.963   2.555  16.442 -0.2339 -0.0167 -0.0432
16881TIP3    H172134   4.025   2.620  16.410  0.8529 -2.0514 -2.4359
16881TIP3    H272135   3.887   2.563  16.384  0.1366 -1.1942 -0.7204
16882TIP3   OH272136   6.121   1.192  15.329 -0.0190  0.0287 -0.3606
16882TIP3    H172137   6.150   1.268  15.379  0.2607  1.0327 -1.9693
16882TIP3    H272138   6.030   1.212  15.307  0.0177 -0.1603 -0.6867
16883TIP3   OH272139   5.867   5.695   6.228 -0.1850  0.4781 -0.2599
16883TIP3    H172140   5.846   5.636   6.301 -0.0802  1.0201  0.2089
16883TIP3    H272141   5.935   5.753   6.263 -0.4345  1.0087 -0.6587
16884TIP3   OH272142   1.974   2.109  11.386 -0.4047  0.2989 -0.0827
16884TIP3    H172143   1.969   2.101  11.290  1.1099  1.2705 -0.2846
16884TIP3    H272144   1.926   2.034  11.419 -2.4789  0.8804 -1.5806
16885TIP3   OH272145   2.709   5.039  17.087  0.3076  0.2500 -0.5567
16885TIP3    H172146   2.791   4.991  17.087 -0.4307 -1.0565 -0.7011
16885TIP3    H272147   2.731   5.126  17.052  1.6887  0.0740 -0.1599
16886TIP3   OH272148   2.726   2.462  16.641  0.4515  1.1858  0.0339
16886TIP3    H172149   2.804   2.477  16.693  0.4250  1.0540  0.1111
16886TIP3    H272150   2.670   2.538  16.658  0.5804  1.3009 -0.0540
16887TIP3   OH272151   0.390   0.239  16.201 -0.4578  0.2748 -0.2766
16887TIP3    H172152   0.307   0.273  16.166 -0.6566 -0.1432 -0.2250
16887TIP3    H272153   0.404   0.158  16.152 -0.1714  0.2536 -0.1554
16888TIP3   OH272154   6.578   6.460   2.588  0.8047  0.2191  0.3572
16888TIP3    H172155   6.620   6.374   2.584  0.9615  0.1626  2.3313
16888TIP3    H272156   6.632   6.510   2.650  0.8801  1.8584 -0.9544
16889TIP3   OH272157   0.068   6.612  15.595 -0.0256 -0.4345 -0.3409
16889TIP3    H172158   0.065   6.702  15.627  2.3102 -1.1672  2.3562
16889TIP3    H272159  -0.023   6.586  15.587 -0.7439  1.5159  0.8262
16890TIP3   OH272160   2.468   6.788   2.793  0.3960  0.6277 -0.3894
16890TIP3    H172161   2.406   6.729   2.836  1.3357 -1.2830 -1.5495
16890TIP3    H272162   2.537   6.803   2.858  0.9790 -0.9222 -0.6214
16891TIP3   OH272163   6.645   3.497  15.856 -0.8198  0.2342 -0.1282
16891TIP3    H172164   6.675   3.586  15.835  0.9523  0.3171  2.3091
16891TIP3    H272165   6.642   3.452  15.771  3.0575  1.2669 -1.0194
16892TIP3   OH272166   4.475   4.368   4.346 -0.6996  0.1118  0.6974
16892TIP3    H172167   4.543   4.303   4.335  0.1274  1.0523  0.1570
16892TIP3    H272168   4.419   4.359   4.269 -0.2099  0.4834  0.2987
16893TIP3   OH272169   5.540   5.235  13.649  0.0349  0.1138  0.1135
16893TIP3    H172170   5.627   5.195  13.643 -0.3019 -0.8439  1.2283
16893TIP3    H272171   5.494   5.201  13.572  0.0066 -1.0805  0.6272
16894TIP3   OH272172   0.233   6.344   3.205  1.0249  0.1150 -0.3623
16894TIP3    H172173   0.193   6.425   3.236  0.2448  0.0505 -1.1247
16894TIP3    H272174   0.242   6.356   3.110  3.0980  0.2183 -0.1936
16895TIP3   OH272175   6.332   4.221  10.950  0.4539  0.6110 -0.2238
16895TIP3    H172176   6.404   4.240  11.010  0.1350 -0.1401  0.4130
16895TIP3    H272177   6.271   4.167  11.001  0.5638 -0.7432 -1.4549
16896TIP3   OH272178   2.502   5.420  15.958  0.3503  0.2419 -0.4905
16896TIP3    H172179   2.484   5.514  15.950 -0.0298  0.1380 -0.8885
16896TIP3    H272180   2.589   5.415  15.997 -0.7992  0.7704  2.3301
16897TIP3   OH272181   0.797   2.401   1.724  0.1505 -0.0932 -0.3498
16897TIP3    H172182   0.779   2.485   1.767 -0.8344 -0.2691 -0.4147
16897TIP3    H272183   0.862   2.423   1.657  0.1750  0.5506 -0.1271
16898TIP3   OH272184   1.863   6.285   2.448 -0.0631 -0.0450  0.2819
16898TIP3    H172185   1.827   6.209   2.494  0.6693 -0.5865 -0.0158
16898TIP3    H272186   1.943   6.253   2.408  0.8271  1.1482  1.0176
16899TIP3   OH272187   3.231   5.133  13.883  0.4446 -0.0227  0.8846
16899TIP3    H172188   3.299   5.183  13.929  0.0911 -0.5584  2.0407
16899TIP3    H272189   3.159   5.196  13.872  0.0331 -0.2182  2.2607
16900TIP3   OH272190   5.887   6.210  15.124 -0.0593  0.0178 -1.0029
16900TIP3    H172191   5.909   6.204  15.031 -1.3618 -0.9531 -1.2763
16900TIP3    H272192   5.892   6.119  15.155  0.8329  0.3948 -0.0009
16901TIP3   OH272193   4.198   0.464  14.570 -0.0301 -0.0552 -0.5557
16901TIP3    H172194   4.138   0.505  14.632  0.8661  1.1532 -0.4452
16901TIP3    H272195   4.274   0.438  14.624 -0.6563 -2.1049 -0.5831
16902TIP3   OH272196   4.624   3.082  16.553 -0.1564 -0.3283  0.1344
16902TIP3    H172197   4.657   3.170  16.533 -1.9924  0.7159  1.4770
16902TIP3    H272198   4.529   3.092  16.559 -0.4752 -2.5650 -0.3218
16903TIP3   OH272199   3.936   3.275   1.643  0.0769  0.6115 -0.3686
16903TIP3    H172200   3.865   3.270   1.579  0.6199  1.3038 -1.0379
16903TIP3    H272201   3.974   3.362   1.630  1.4535  0.0103 -0.4536
16904TIP3   OH272202   3.587   0.764  14.551  0.1945 -0.4502 -0.2004
16904TIP3    H172203   3.620   0.777  14.462 -0.0641  1.1742 -0.0930
16904TIP3    H272204   3.514   0.826  14.558 -0.5518 -1.4202  0.7535
16905TIP3   OH272205   4.809   3.700   5.296 -0.1036 -0.8137 -0.4199
16905TIP3    H172206   4.766   3.677   5.378  2.2152 -1.5319  0.6881
16905TIP3    H272207   4.737   3.714   5.234 -1.9109 -0.7490  1.5807
16906TIP3   OH272208   2.785   4.441   2.628 -0.1088  0.3781 -0.2313
16906TIP3    H172209   2.717   4.509   2.620 -0.7205 -0.0180  1.2546
16906TIP3    H272210   2.821   4.453   2.715 -0.4735 -1.4178  0.2104
16907TIP3   OH272211   2.308   2.965  13.224  0.0094 -0.5357 -0.2426
16907TIP3    H172212   2.404   2.966  13.230  0.1889 -1.1136 -2.2736
16907TIP3    H272213   2.282   3.052  13.254  0.9909 -0.9491  2.0451
16908TIP3   OH272214   2.592   0.338  13.514  0.2916 -0.4069  0.1666
16908TIP3    H172215   2.673   0.388  13.512  0.4266 -0.6363 -0.7695
16908TIP3    H272216   2.583   0.303  13.425 -1.2590  0.2799  0.0265
16909TIP3   OH272217   6.196   4.596  15.237 -0.3837  0.3994  0.3949
16909TIP3    H172218   6.194   4.684  15.200  0.1954  0.3799  0.3080
16909TIP3    H272219   6.175   4.538  15.163 -1.1715  0.4834  0.5430
16910TIP3   OH272220   4.556   5.988   1.784  0.1170 -0.1355  0.5423
16910TIP3    H172221   4.519   6.073   1.807  0.2410  0.4071 -1.1318
16910TIP3    H272222   4.598   6.002   1.699  1.2662 -1.5600  0.8354
16911TIP3   OH272223   2.715   6.541   3.079  0.3591  0.2725  0.1081
16911TIP3    H172224   2.642   6.534   3.140  0.8994 -1.4119  0.6273
16911TIP3    H272225   2.793   6.527   3.132  1.0658  1.6780 -0.4995
16912TIP3   OH272226   2.932   5.184   4.871 -0.2942 -0.4219  0.2774
16912TIP3    H172227   2.948   5.118   4.939 -0.3167 -0.6022  0.1105
16912TIP3    H272228   3.001   5.168   4.807 -0.4266 -0.4190  0.1357
16913TIP3   OH272229   5.390   0.102   0.686 -0.2750  0.5101 -1.1629
16913TIP3    H172230   5.459   0.167   0.670 -0.5492  0.6416 -1.8594
16913TIP3    H272231   5.415   0.027   0.631  0.9485 -0.6829  0.8974
16914TIP3   OH272232   4.583   1.034  13.189  0.5467  0.1014 -0.2982
16914TIP3    H172233   4.497   1.075  13.188  0.1670 -0.6773 -0.5997
16914TIP3    H272234   4.568   0.947  13.228  1.0475 -0.3420 -1.0743
16915TIP3   OH272235   5.521   6.258   3.989  0.3288 -0.4234 -0.2522
16915TIP3    H172236   5.516   6.280   4.082 -1.7959 -0.4106 -0.3347
16915TIP3    H272237   5.576   6.180   3.986 -0.2551 -0.9203  1.1146
16916TIP3   OH272238   6.223   3.263  16.146  0.4814 -0.4473 -0.3148
16916TIP3    H172239   6.136   3.224  16.155  1.3002 -2.6768 -1.2985
16916TIP3    H272240   6.222   3.306  16.060 -0.0075  0.6184  0.2058
16917TIP3   OH272241   4.670   0.850   1.836 -0.3853  0.3318  0.2324
16917TIP3    H172242   4.684   0.770   1.787  0.9120 -0.4137  1.7368
16917TIP3    H272243   4.654   0.917   1.769  0.7672 -0.7226 -1.1519
16918TIP3   OH272244   3.637   0.359  15.275 -0.2581 -0.0422  0.5612
16918TIP3    H172245   3.628   0.357  15.370  1.2495 -1.1657  0.7233
16918TIP3    H272246   3.548   0.371  15.242 -0.8717 -0.2096  2.0954
16919TIP3   OH272247   4.367   5.913   1.984 -0.0233 -0.3358 -0.3153
16919TIP3    H172248   4.411   5.924   2.068  0.5564  0.7866 -0.7496
16919TIP3    H272249   4.434   5.933   1.919 -0.8295  0.1778 -1.0123
16920TIP3   OH272250   4.334   6.450  11.740 -0.7112  0.1674  0.0315
16920TIP3    H172251   4.251   6.455  11.787 -0.3147 -0.1781  0.7875
16920TIP3    H272252   4.327   6.372  11.686 -0.8189  0.0503  0.2147
16921TIP3   OH272253   2.249   1.012  15.378  0.6103 -0.1858 -1.5826
16921TIP3    H172254   2.216   1.067  15.449 -1.8706 -1.8904 -1.2907
16921TIP3    H272255   2.314   0.956  15.419  0.1288 -0.2767 -0.9328
16922TIP3   OH272256   5.599   0.014   6.559 -0.1388  0.1964 -0.1354
16922TIP3    H172257   5.574   0.106   6.568  1.9146  0.8921 -0.8321
16922TIP3    H272258   5.656  -0.003   6.634 -1.4483 -0.8922  0.6431
16923TIP3   OH272259   5.412   1.608   1.490 -0.0038 -0.6040 -0.5039
16923TIP3    H172260   5.450   1.696   1.491  0.6928 -0.8149 -3.2584
16923TIP3    H272261   5.485   1.549   1.507  0.3633 -0.8246 -2.6166
16924TIP3   OH272262   5.942   1.589   1.413 -0.3484 -0.7103  0.2941
16924TIP3    H172263   5.979   1.512   1.457 -0.5500 -1.8414 -1.4103
16924TIP3    H272264   6.016   1.648   1.399  0.4198 -1.9120 -0.9725
16925TIP3   OH272265   4.653   6.385  11.586  0.0935 -0.0619  0.1912
16925TIP3    H172266   4.743   6.353  11.596  0.3238  0.3769 -0.4027
16925TIP3    H272267   4.606   6.313  11.546  0.5453  0.2284 -0.8971
16926TIP3   OH272268   0.515   1.393  12.543 -0.8607  0.1314  0.2167
16926TIP3    H172269   0.581   1.403  12.612  0.7738  0.0818 -1.2727
16926TIP3    H272270   0.494   1.483  12.518 -0.6043  0.1397  0.0227
16927TIP3   OH272271   0.367   5.459  12.099  0.1860 -0.1262  0.0744
16927TIP3    H172272   0.321   5.375  12.101 -1.3873  0.7065  0.5412
16927TIP3    H272273   0.452   5.440  12.138 -1.2109 -0.9344  3.0067
16928TIP3   OH272274   4.166   2.321   6.668 -0.2517  0.0539  0.1545
16928TIP3    H172275   4.242   2.282   6.711 -0.5078 -2.4799 -1.4845
16928TIP3    H272276   4.096   2.313   6.732  0.0510 -0.9630  0.3814
16929TIP3   OH272277   6.729   2.305  16.933  0.0514  0.6058  0.7871
16929TIP3    H172278   6.672   2.288  16.859 -1.2850  0.0945  1.8871
16929TIP3    H272279   6.804   2.352  16.896 -0.0432 -0.5995 -1.0374
16930TIP3   OH272280   6.215   4.003   2.336 -0.0134 -0.4352  0.1057
16930TIP3    H172281   6.303   4.038   2.354  0.3294 -2.4431  2.8130
16930TIP3    H272282   6.223   3.964   2.248  1.8313 -0.6363  0.3142
16931TIP3   OH272283   1.689   3.645   4.818  0.2571 -0.5311 -0.3838
16931TIP3    H172284   1.681   3.606   4.905  0.8370 -2.4906 -1.1507
16931TIP3    H272285   1.779   3.676   4.814  0.0271  0.2150 -0.0642
16932TIP3   OH272286   1.452   3.699  12.495  0.3349 -0.2678  0.0260
16932TIP3    H172287   1.383   3.679  12.432  0.4559 -0.5507 -0.0200
16932TIP3    H272288   1.438   3.791  12.518 -0.4652 -0.4994  0.5205
16933TIP3   OH272289   6.299   4.143   6.050  0.1377 -0.3457 -0.7796
16933TIP3    H172290   6.241   4.089   6.104  1.9931  0.3105  2.0597
16933TIP3    H272291   6.246   4.220   6.028 -1.3911 -1.6580 -1.9358
16934TIP3   OH272292   1.690   2.563  11.219 -0.1902 -0.2676 -0.3963
16934TIP3    H172293   1.624   2.506  11.259 -0.1001  1.2213  2.0640
16934TIP3    H272294   1.642   2.643  11.196  0.5229  0.3903  0.3626
16935TIP3   OH272295   0.275   4.471   2.513  0.2967  0.3800  0.0173
16935TIP3    H172296   0.184   4.501   2.521  0.4271  0.7214  0.2253
16935TIP3    H272297   0.308   4.515   2.434  0.4682  0.7356  0.2860
16936TIP3   OH272298   0.796   6.169  14.197 -0.3213  0.0966 -0.2131
16936TIP3    H172299   0.834   6.092  14.154  1.4834  0.8463 -0.0532
16936TIP3    H272300   0.871   6.220  14.226 -1.4657  1.8394 -0.1294
16937TIP3   OH272301   5.981   1.842   3.850  0.4249 -0.0322 -0.0318
16937TIP3    H172302   6.003   1.749   3.858 -0.4887 -0.3652 -1.1685
16937TIP3    H272303   5.921   1.859   3.922 -1.2252 -0.9177 -1.1585
16938TIP3   OH272304   0.779   6.319   2.857  0.1696 -0.6414  0.3362
16938TIP3    H172305   0.859   6.357   2.893  1.0419 -0.0117 -2.0785
16938TIP3    H272306   0.807   6.237   2.816 -0.0521  0.2503 -1.7634
16939TIP3   OH272307   5.067   1.963   2.013  0.2083 -0.1946 -0.0992
16939TIP3    H172308   5.136   1.897   2.018  0.5005  0.1399  0.4750
16939TIP3    H272309   5.082   2.008   1.930  1.0849  0.2866  0.2962
16940TIP3   OH272310   6.777   4.778  14.266 -0.1491  0.5594 -0.5135
16940TIP3    H172311   6.775   4.869  14.239 -0.3642  0.3652 -1.1574
16940TIP3    H272312   6.696   4.740  14.231 -0.6919  0.4213  0.8270
16941TIP3   OH272313   1.570   0.312   5.201  0.3216 -0.0309 -0.1196
16941TIP3    H172314   1.595   0.388   5.148  0.8308 -0.1214 -0.0187
16941TIP3    H272315   1.499   0.271   5.153  0.8816 -0.1964 -0.8179
16942TIP3   OH272316   0.515   0.261   2.130 -0.5008  0.1233  0.0693
16942TIP3    H172317   0.452   0.297   2.067  0.7217  0.8526 -0.7657
16942TIP3    H272318   0.594   0.244   2.079  1.2650  2.7044  1.7317
16943TIP3   OH272319   3.247   2.111  15.342  0.0020  0.5566  0.1988
16943TIP3    H172320   3.288   2.102  15.256 -1.1470 -0.3655 -0.2872
16943TIP3    H272321   3.154   2.098  15.326 -0.5269  2.5642  1.2744
16944TIP3   OH272322   1.705   1.192  15.169 -0.1586 -0.0495  0.2333
16944TIP3    H172323   1.742   1.131  15.105  2.2461  0.7838  0.7267
16944TIP3    H272324   1.684   1.271  15.119  0.9849  0.3175  0.3028
16945TIP3   OH272325   3.863   0.920   1.763  0.1410 -0.0141 -0.2668
16945TIP3    H172326   3.903   0.914   1.849  0.3547  0.5970 -0.3182
16945TIP3    H272327   3.935   0.905   1.701  0.1394  0.3156 -0.3492
16946TIP3   OH272328   3.114   1.605  12.349  0.0515  0.0561  0.2006
16946TIP3    H172329   3.026   1.569  12.335  0.3076 -2.3517  3.6266
16946TIP3    H272330   3.099   1.690  12.390 -0.7530 -0.5891  1.2982
16947TIP3   OH272331   3.817   4.778  12.269 -0.5916  0.0364 -1.0911
16947TIP3    H172332   3.824   4.865  12.309  0.3923 -1.1010  1.3960
16947TIP3    H272333   3.885   4.778  12.201  0.2139  0.8253 -0.3156
16948TIP3   OH272334   4.467   3.229   3.958  0.0864  0.1106  0.1154
16948TIP3    H172335   4.541   3.199   3.905  0.1072 -2.0795  1.2635
16948TIP3    H272336   4.425   3.296   3.905  0.5604 -1.4197 -2.3489
16949TIP3   OH272337   1.069   6.209   3.378  0.5264 -0.4027  0.2148
16949TIP3    H172338   1.135   6.264   3.335 -0.0240  0.1446  0.0646
16949TIP3    H272339   0.988   6.259   3.372 -0.1026 -1.4520 -0.3857
16950TIP3   OH272340   3.326   1.109  14.792  0.4083 -0.2495 -0.7710
16950TIP3    H172341   3.277   1.126  14.874 -0.5135  1.0259 -1.5474
16950TIP3    H272342   3.381   1.186  14.781  0.5499 -0.4306 -1.3332
16951TIP3   OH272343   5.886   2.479   2.279 -0.8108  0.1924  0.9082
16951TIP3    H172344   5.892   2.573   2.296  2.0355  0.6692 -1.8162
16951TIP3    H272345   5.813   2.470   2.217  1.9545  1.5687 -2.9370
16952TIP3   OH272346   4.996   1.765  15.860  0.8089  0.3210 -0.0641
16952TIP3    H172347   4.959   1.852  15.851  0.7141  0.5860  2.1617
16952TIP3    H272348   5.084   1.772  15.823  1.7668  2.1551  2.2722
16953TIP3   OH272349   4.720   6.379  15.921 -0.4939 -0.9088  0.0001
16953TIP3    H172350   4.667   6.412  15.994 -0.2409 -2.6865  1.0506
16953TIP3    H272351   4.735   6.287  15.943 -0.1908 -1.4276 -2.1948
16954TIP3   OH272352   4.229   6.245  11.575 -0.2165  0.0283 -0.1205
16954TIP3    H172353   4.291   6.241  11.502 -0.3210 -1.3000 -0.1659
16954TIP3    H272354   4.159   6.301  11.543  0.9776  1.6458 -0.0273
16955TIP3   OH272355   6.495   1.845   2.487  0.1688 -0.0372 -0.1600
16955TIP3    H172356   6.400   1.853   2.491  0.2091  0.3947 -0.0367
16955TIP3    H272357   6.515   1.836   2.394  0.0024 -0.1742 -0.1817
16956TIP3   OH272358   4.092   0.143   5.022 -0.2414  0.1519  0.2898
16956TIP3    H172359   4.159   0.160   4.956  0.3111  0.2051  0.8526
16956TIP3    H272360   4.113   0.203   5.094  0.3792 -1.2636  1.3461
16957TIP3   OH272361   5.878   0.539  14.291  0.0921  0.0831 -0.1998
16957TIP3    H172362   5.908   0.495  14.370  1.5117 -0.7847 -1.1719
16957TIP3    H272363   5.915   0.627  14.297  1.9612 -0.6210 -0.8389
16958TIP3   OH272364   0.401   3.803  11.346 -0.1618  0.1084 -0.3260
16958TIP3    H172365   0.446   3.730  11.304 -1.0283 -1.6893  1.6922
16958TIP3    H272366   0.413   3.876  11.285  1.4137 -1.4702 -2.0668
16959TIP3   OH272367   2.818   4.017   1.095 -0.5677 -0.0524  0.0664
16959TIP3    H172368   2.773   3.941   1.130 -0.5451 -0.1123 -0.0342
16959TIP3    H272369   2.909   4.005   1.122 -0.1546 -1.0787 -1.6219
16960TIP3   OH272370   3.857   5.960   6.448 -0.1816 -0.4498  0.5047
16960TIP3    H172371   3.944   5.964   6.409  0.3406 -0.4806  1.6219
16960TIP3    H272372   3.821   6.048   6.436 -0.3813 -0.6852 -0.7709
16961TIP3   OH272373   4.086   1.427  14.111 -0.0453 -0.1890  0.1306
16961TIP3    H172374   4.077   1.338  14.145 -3.8608  0.4265  1.2091
16961TIP3    H272375   4.110   1.480  14.188 -1.2094  0.1311  0.3014
16962TIP3   OH272376   3.295   4.928   1.992  0.0107 -0.0969 -0.1810
16962TIP3    H172377   3.341   4.928   2.076  1.1457  0.9557 -0.7732
16962TIP3    H272378   3.351   4.875   1.935  0.6900  1.4393 -0.9907
16963TIP3   OH272379   2.785   6.108  16.966  1.0152  1.0195  0.9738
16963TIP3    H172380   2.841   6.033  16.989  1.5217  1.7533  2.2583
16963TIP3    H272381   2.794   6.168  17.041 -1.6627  1.0892  1.3340
16964TIP3   OH272382   0.485   4.546   1.792  0.1923 -0.5402 -0.3291
16964TIP3    H172383   0.427   4.555   1.868  0.0133 -0.9239 -0.4161
16964TIP3    H272384   0.572   4.564   1.827  0.1423 -0.9539  0.0240
16965TIP3   OH272385   4.028   2.819  16.116 -0.2342  0.0604 -0.4890
16965TIP3    H172386   3.933   2.811  16.108 -0.0296 -0.9618 -2.2606
16965TIP3    H272387   4.062   2.737  16.081  1.2302 -1.4631  3.8378
16966TIP3   OH272388   2.734   3.817   3.783 -0.4954 -0.0905 -0.1960
16966TIP3    H172389   2.772   3.778   3.862  2.6683  0.5212 -1.2586
16966TIP3    H272390   2.722   3.744   3.723  1.3475 -0.0940 -0.6443
16967TIP3   OH272391   5.321   0.621   4.912 -0.1312  0.1518  0.3136
16967TIP3    H172392   5.244   0.671   4.883  0.4104  1.2966  0.7674
16967TIP3    H272393   5.395   0.680   4.897  0.8239 -1.3328 -1.1150
16968TIP3   OH272394   5.384   3.591  11.663 -0.8630  0.0631 -0.5073
16968TIP3    H172395   5.475   3.564  11.677 -0.9695  0.7791  2.0134
16968TIP3    H272396   5.334   3.510  11.673 -0.6264 -0.0685 -0.3743
16969TIP3   OH272397   3.062   0.449  14.749  0.1516 -0.0257 -0.5264
16969TIP3    H172398   3.051   0.361  14.785  3.3536 -0.1306  0.4377
16969TIP3    H272399   2.973   0.484  14.746 -0.9333 -2.2419  1.8187
16970TIP3   OH272400   5.741   3.783   3.505  1.0913 -0.3302  0.4180
16970TIP3    H172401   5.693   3.846   3.451  0.2400 -0.7676  0.6499
16970TIP3    H272402   5.771   3.717   3.442 -0.4413 -1.1772  0.5209
16971TIP3   OH272403   4.319   5.169   5.663 -0.3147 -0.4863  0.3695
16971TIP3    H172404   4.361   5.083   5.656 -2.1178 -1.5461  1.5358
16971TIP3    H272405   4.364   5.224   5.599  0.6150 -2.4243 -0.7248
16972TIP3   OH272406   1.674   2.578  15.122  0.1188  0.0910  0.6525
16972TIP3    H172407   1.688   2.490  15.088 -0.3113  0.4997 -0.6174
16972TIP3    H272408   1.689   2.636  15.047 -2.4034  0.9271  0.7098
16973TIP3   OH272409   2.505   0.949   5.668  0.8187 -0.1759 -0.5390
16973TIP3    H172410   2.580   0.905   5.708  2.0004  1.7082 -0.5515
16973TIP3    H272411   2.495   1.029   5.720 -0.7168 -0.0352 -1.0221
16974TIP3   OH272412   5.228   2.526  13.261  0.1866 -0.0588 -0.5381
16974TIP3    H172413   5.152   2.511  13.317 -0.5789  2.5944 -0.7003
16974TIP3    H272414   5.303   2.527  13.320 -0.1080 -1.0108 -0.1321
16975TIP3   OH272415   0.706   1.645   5.033  0.0348  0.5303  0.0818
16975TIP3    H172416   0.773   1.676   4.972  0.4771 -1.2361 -0.3822
16975TIP3    H272417   0.691   1.719   5.092 -0.7961  2.5397 -2.4450
16976TIP3   OH272418   1.192   3.791   5.469  0.0294 -0.3064 -0.0219
16976TIP3    H172419   1.171   3.804   5.562  0.7955  2.2117 -0.1240
16976TIP3    H272420   1.277   3.746   5.471  1.4355  2.1563  0.6468
16977TIP3   OH272421   0.018   1.211  15.618 -0.2557  0.5998 -0.0322
16977TIP3    H172422  -0.027   1.150  15.559 -0.1951  0.9412 -0.4401
16977TIP3    H272423  -0.035   1.211  15.697  0.4579 -0.9895  0.4910
16978TIP3   OH272424   1.508   2.018   6.662 -0.7277  1.2939  0.3687
16978TIP3    H172425   1.544   2.025   6.574 -0.0316 -2.5971  0.2056
16978TIP3    H272426   1.421   1.980   6.649  0.9659 -3.6197  1.2856
16979TIP3   OH272427   2.644   3.292  11.562  0.3080  0.1408 -0.2178
16979TIP3    H172428   2.700   3.222  11.528 -0.6503 -1.4660  1.3626
16979TIP3    H272429   2.561   3.281  11.517  0.5017  1.0647 -0.8426
16980TIP3   OH272430   2.362   3.434   1.385  0.1498  0.2107 -0.0640
16980TIP3    H172431   2.385   3.399   1.472  0.3434  0.6914  0.0805
16980TIP3    H272432   2.287   3.382   1.358 -0.0139  0.1648  0.4632
16981TIP3   OH272433   3.382   1.119   2.253 -0.0317  0.3951  0.0663
16981TIP3    H172434   3.447   1.128   2.184 -1.5271  1.5566 -1.2609
16981TIP3    H272435   3.375   1.024   2.267  0.3111  0.1386 -1.3523
16982TIP3   OH272436   5.635   0.178   1.381 -0.1492 -0.0138  0.1267
16982TIP3    H172437   5.702   0.117   1.350 -0.7606 -0.4797 -0.2888
16982TIP3    H272438   5.552   0.132   1.368 -0.4450 -0.3598  2.6944
16983TIP3   OH272439   1.569   0.615   1.588  0.6999  0.2194  0.2810
16983TIP3    H172440   1.532   0.541   1.540  1.4257 -1.6001  2.3439
16983TIP3    H272441   1.657   0.626   1.550  0.1887  0.8026 -0.7803
16984TIP3   OH272442   3.946   5.280  10.656 -0.6987 -0.5218  0.1367
16984TIP3    H172443   3.915   5.199  10.617  0.7934 -1.1622  0.2167
16984TIP3    H272444   4.039   5.266  10.671 -0.7506  0.5496  1.7994
16985TIP3   OH272445   0.087   3.330   6.065 -0.0177 -0.4795 -0.7435
16985TIP3    H172446   0.024   3.329   6.137  0.9941  0.6201  0.2163
16985TIP3    H272447   0.053   3.395   6.004 -0.6438 -1.0864 -1.0593
16986TIP3   OH272448   1.512   1.059   3.752  0.0800  0.6078 -0.3292
16986TIP3    H172449   1.466   1.137   3.784 -0.5951 -0.2618  0.9533
16986TIP3    H272450   1.447   0.989   3.760  1.0597 -0.3125 -0.2230
16987TIP3   OH272451   0.992   4.888  10.794 -0.0488 -0.3507  0.2418
16987TIP3    H172452   1.088   4.887  10.791 -0.0140  1.0024  0.4680
16987TIP3    H272453   0.970   4.974  10.830 -1.3188 -1.1392  1.4468
16988TIP3   OH272454   6.221   3.451  13.420 -0.0169 -0.2411  0.3116
16988TIP3    H172455   6.244   3.367  13.381 -1.1076 -0.3188 -0.2096
16988TIP3    H272456   6.238   3.516  13.351 -0.5738 -0.2128  0.1947
16989TIP3   OH272457   4.203   0.509  12.846 -0.2720  0.0493 -0.1599
16989TIP3    H172458   4.107   0.511  12.839 -0.2613 -0.0828 -0.3595
16989TIP3    H272459   4.232   0.582  12.792 -0.1922 -0.9163 -1.4728
16990TIP3   OH272460   1.160   5.441   6.313 -0.3498 -0.1067 -0.0055
16990TIP3    H172461   1.222   5.430   6.385  0.2597  0.7898 -0.3799
16990TIP3    H272462   1.149   5.535   6.305 -1.8040 -0.2443  0.0767
16991TIP3   OH272463   1.768   0.383  13.414 -0.2161  0.2751  1.1638
16991TIP3    H172464   1.819   0.304  13.399 -0.1901  0.5679 -0.4397
16991TIP3    H272465   1.689   0.370  13.361  0.3653  1.8383 -0.1728
16992TIP3   OH272466   0.811   1.482  16.258  0.3003 -0.2725 -0.0021
16992TIP3    H172467   0.895   1.471  16.303 -0.9226 -1.5615  2.1550
16992TIP3    H272468   0.756   1.413  16.294 -1.6292  0.3973 -1.5203
16993TIP3   OH272469   1.283   6.531   3.339 -0.1528 -0.2964 -0.2190
16993TIP3    H172470   1.290   6.463   3.406 -1.0612 -0.9148 -0.7240
16993TIP3    H272471   1.205   6.580   3.363 -0.0195 -0.0074 -0.3723
16994TIP3   OH272472   1.222   1.200   6.034  0.4536  0.3137  0.3554
16994TIP3    H172473   1.168   1.259   5.981  0.9713  1.2103  0.8114
16994TIP3    H272474   1.161   1.158   6.094 -0.1071 -0.5361 -0.7697
16995TIP3   OH272475   6.213   1.034  13.079  0.4784  0.3583 -0.1443
16995TIP3    H172476   6.264   0.990  13.011  0.8398  0.8217 -0.1791
16995TIP3    H272477   6.257   1.118  13.092  0.7445  0.0536  1.0640
16996TIP3   OH272478   5.033   5.109  14.864  0.2074 -0.4764 -0.3374
16996TIP3    H172479   5.126   5.089  14.861  0.1608 -1.3582  1.9269
16996TIP3    H272480   5.029   5.203  14.877  0.7627 -0.4360 -0.4205
16997TIP3   OH272481   1.712   2.472   1.991 -0.0960  0.3499  0.1267
16997TIP3    H172482   1.767   2.533   2.041  0.0856 -0.3665  0.8166
16997TIP3    H272483   1.645   2.445   2.053 -0.2267 -0.0908 -0.2039
16998TIP3   OH272484   5.440   2.786  15.924  0.6271  0.2714  0.0481
16998TIP3    H172485   5.526   2.826  15.942  0.2750  0.6524  0.9272
16998TIP3    H272486   5.383   2.860  15.906  0.5237  0.0018 -0.7672
16999TIP3   OH272487   0.809   0.424  10.438 -0.5951 -0.1991 -0.6583
16999TIP3    H172488   0.788   0.496  10.378  0.9703  0.7822 -0.0830
16999TIP3    H272489   0.725   0.398  10.476 -1.2412  1.0005 -1.2370
17000TIP3   OH272490   2.573   4.770   3.211  0.2595 -0.0153  0.0853
17000TIP3    H172491   2.478   4.766   3.200  0.3543  0.0222 -0.8385
17000TIP3    H272492   2.590   4.714   3.287 -0.5223  0.1936  0.4278
17001TIP3   OH272493   1.524   5.556   2.914 -0.0085  0.7350  1.2229
17001TIP3    H172494   1.431   5.568   2.931 -0.5669  0.0907 -1.0127
17001TIP3    H272495   1.531   5.553   2.819  2.3132  0.7461  1.3272
17002TIP3   OH272496   0.991   1.724  11.338  0.1664  0.4880 -0.2259
17002TIP3    H172497   1.036   1.728  11.253  2.1789 -0.8992  0.6828
17002TIP3    H272498   0.903   1.694  11.317  0.0242  1.9603 -1.9717
17003TIP3   OH272499   1.523   3.191   4.482  0.6126  0.4713  0.1676
17003TIP3    H172500   1.521   3.252   4.556  0.4325  1.2335 -0.4494
17003TIP3    H272501   1.564   3.240   4.411  2.4985 -0.8606  0.2658
17004TIP3   OH272502   6.413   6.081   2.330  0.2175  0.1940 -0.4305
17004TIP3    H172503   6.351   6.112   2.264  0.9088 -1.7379 -2.1274
17004TIP3    H272504   6.479   6.034   2.280  1.6474 -0.0401  1.5517
17005TIP3   OH272505   2.195   4.465  16.748  0.0358  0.8566 -0.3554
17005TIP3    H172506   2.276   4.466  16.697  0.2681  0.7448  0.0116
17005TIP3    H272507   2.140   4.400  16.704  1.2841 -1.3344  1.1377
17006TIP3   OH272508   6.029   5.170   1.386 -0.1967  0.5084  0.6313
17006TIP3    H172509   6.112   5.212   1.362 -0.1563  0.8137  1.2956
17006TIP3    H272510   6.040   5.144   1.477 -0.1323 -1.1977  0.1696
17007TIP3   OH272511   3.524   0.644  12.754 -0.2133  0.3135  0.1062
17007TIP3    H172512   3.436   0.611  12.737  0.3849 -0.4816 -1.6372
17007TIP3    H272513   3.513   0.739  12.763 -1.3615  0.1265  0.9707
17008TIP3   OH272514   3.664   2.926  12.597 -0.0879  0.4842 -0.3140
17008TIP3    H172515   3.705   3.012  12.602 -4.2838  2.8919 -2.4310
17008TIP3    H272516   3.689   2.892  12.511  0.3924  0.2013 -0.0702
17009TIP3   OH272517   1.741   5.412  12.744 -0.0977 -0.1736 -0.2635
17009TIP3    H172518   1.812   5.421  12.681  0.2620 -1.0646 -0.0129
17009TIP3    H272519   1.734   5.317  12.757  0.8226  0.0089  2.1184
17010TIP3   OH272520   5.200   5.155  14.533 -0.4483 -0.4346  0.0823
17010TIP3    H172521   5.209   5.248  14.553 -0.2185 -0.5252  0.3983
17010TIP3    H272522   5.241   5.146  14.447 -0.9834 -0.1424 -0.2134
17011TIP3   OH272523   0.802   6.606  15.180 -0.0764  0.4880 -0.2079
17011TIP3    H172524   0.832   6.584  15.269  0.1132  1.7401  0.0542
17011TIP3    H272525   0.737   6.539  15.160  0.9751 -0.7213  0.2648
17012TIP3   OH272526   3.545   2.937  15.825 -0.4929  0.3639 -0.0913
17012TIP3    H172527   3.504   2.955  15.741  0.5888  0.4443 -0.6178
17012TIP3    H272528   3.629   2.983  15.821 -0.4976  0.5064  1.0999
17013TIP3   OH272529   4.306   3.812   5.346 -0.4864  0.4073  0.0596
17013TIP3    H172530   4.240   3.781   5.285 -2.0484  2.5600  0.5568
17013TIP3    H272531   4.370   3.858   5.292 -0.5496  0.1975 -0.1928
17014TIP3   OH272532   6.382   2.871  12.191 -0.1894  0.2441 -0.7755
17014TIP3    H172533   6.368   2.778  12.175  0.0140 -0.0852  0.8291
17014TIP3    H272534   6.474   2.885  12.168  0.8392 -0.7774  2.2385
17015TIP3   OH272535   4.381   4.826  14.827  0.3797  0.2028 -0.0294
17015TIP3    H172536   4.292   4.840  14.859  0.2796 -0.0007 -0.2123
17015TIP3    H272537   4.436   4.873  14.889  0.0855  1.1190 -0.4422
17016TIP3   OH272538   1.757   4.086  17.048 -0.1931  0.3908  0.0317
17016TIP3    H172539   1.727   4.140  17.121  0.6157  0.3793  0.3866
17016TIP3    H272540   1.684   4.085  16.986 -1.0270  0.1039  1.0015
17017TIP3   OH272541   2.768   0.279  12.239  0.4723 -0.0985 -0.3644
17017TIP3    H172542   2.735   0.337  12.308  0.8802 -0.1643 -0.1095
17017TIP3    H272543   2.717   0.301  12.162 -0.4547 -0.4682  0.1215
17018TIP3   OH272544   3.539   0.426  15.518 -0.0743  0.5729  0.1641
17018TIP3    H172545   3.448   0.447  15.537 -0.3756 -0.1354 -0.4567
17018TIP3    H272546   3.567   0.372  15.592  0.3424  2.0708  1.1558
17019TIP3   OH272547   3.021   1.390  17.217  0.3047 -0.1440 -0.2253
17019TIP3    H172548   3.092   1.447  17.187 -0.6536  1.4010  0.3575
17019TIP3    H272549   2.949   1.407  17.155 -0.2319 -0.1654  0.3824
17020TIP3   OH272550   4.731   5.858  13.236  0.0042 -0.5317 -0.0305
17020TIP3    H172551   4.772   5.932  13.191 -2.5477  0.3698 -1.0788
17020TIP3    H272552   4.793   5.834  13.305  0.8531  2.7058  0.4844
17021TIP3   OH272553   0.636   0.769   1.855 -0.5441 -0.0616 -0.1191
17021TIP3    H172554   0.665   0.800   1.769 -1.2973  0.9492 -0.0284
17021TIP3    H272555   0.540   0.772   1.852 -0.5836  0.4091  0.8881
17022TIP3   OH272556   2.300   2.859   3.767  0.7090 -0.6695 -0.1652
17022TIP3    H172557   2.231   2.826   3.709  1.9074 -2.1568 -0.8473
17022TIP3    H272558   2.368   2.890   3.707  1.2062 -0.5269  0.4596
17023TIP3   OH272559   2.168   2.523  11.897 -0.3002  0.1387 -0.9852
17023TIP3    H172560   2.073   2.517  11.885 -0.1257  0.4261 -2.7023
17023TIP3    H272561   2.203   2.452  11.843  0.4290 -0.9360  0.8102
17024TIP3   OH272562   4.601   5.885   5.468  0.0334 -0.3177 -0.3025
17024TIP3    H172563   4.603   5.924   5.381 -1.5701  0.3948 -0.0707
17024TIP3    H272564   4.561   5.953   5.523 -0.5672 -1.3759  0.6136
17025TIP3   OH272565   2.325   2.893   5.246 -0.2951  0.0291 -0.2709
17025TIP3    H172566   2.260   2.823   5.238  1.2812 -1.2798 -2.8362
17025TIP3    H272567   2.273   2.971   5.266 -2.6815 -0.9762 -2.0911
17026TIP3   OH272568   0.668   4.908   2.089 -0.1741  0.0744  0.4352
17026TIP3    H172569   0.707   4.948   2.012  2.8599 -0.0186  1.8049
17026TIP3    H272570   0.574   4.928   2.082 -0.6927 -2.6683 -4.8598
17027TIP3   OH272571   5.660   1.459  13.641 -0.1571  0.4135  0.2331
17027TIP3    H172572   5.679   1.553  13.641  1.2790  0.1368 -0.1571
17027TIP3    H272573   5.682   1.430  13.552  3.4251 -1.0322  1.4504
17028TIP3   OH272574   4.275   3.231   1.627 -0.1996 -0.0110 -0.0110
17028TIP3    H172575   4.274   3.297   1.558 -0.7550 -0.4521 -0.4318
17028TIP3    H272576   4.271   3.147   1.581  0.6372 -0.3612  0.5092
17029TIP3   OH272577   6.162   2.935  17.097 -0.1559 -0.6076  0.1353
17029TIP3    H172578   6.152   2.870  17.028 -0.8086  0.6359 -0.9919
17029TIP3    H272579   6.230   2.899  17.154  0.4357 -1.6630 -1.1735
17030TIP3   OH272580   1.408   6.646  15.264  0.1869 -0.5074  0.3161
17030TIP3    H172581   1.493   6.688  15.251  1.3604 -2.3361  1.5674
17030TIP3    H272582   1.378   6.625  15.175  1.8228 -1.2212 -0.1115
17031TIP3   OH272583   2.213   1.780   0.788  0.5894 -0.2486 -0.2149
17031TIP3    H172584   2.246   1.690   0.789  0.6708 -0.2376 -1.1123
17031TIP3    H272585   2.163   1.786   0.707 -1.8675 -0.3337  1.2208
17032TIP3   OH272586   3.497   6.766   4.992  0.3542 -0.4927  0.1557
17032TIP3    H172587   3.505   6.750   4.898 -0.8642 -0.5605  0.0487
17032TIP3    H272588   3.470   6.858   4.999 -2.4077 -1.2362  0.2567
17033TIP3   OH272589   4.098   0.371   1.147  0.0738  0.4050 -0.0184
17033TIP3    H172590   4.055   0.394   1.064  0.9209  1.8892 -0.0894
17033TIP3    H272591   4.156   0.445   1.164  1.2631 -0.7259  0.9793
17034TIP3   OH272592   0.801   0.022  13.518  0.1425  0.4393  0.1780
17034TIP3    H172593   0.783  -0.051  13.459 -1.8887  0.3736  0.8161
17034TIP3    H272594   0.876   0.067  13.478 -1.5902  0.8486 -2.8941
17035TIP3   OH272595   1.773   4.390   0.161  0.0080  0.0993  0.0221
17035TIP3    H172596   1.856   4.386   0.209 -0.1988  1.4350  0.5159
17035TIP3    H272597   1.735   4.474   0.184 -0.2642  0.6767 -2.2345
17036TIP3   OH272598   2.709   1.921  13.029  0.1898  0.3697 -0.1389
17036TIP3    H172599   2.653   1.979  12.977  0.2437 -1.6317 -2.6185
17036TIP3    H272600   2.798   1.945  13.004  0.3445  0.9669  0.8995
17037TIP3   OH272601   5.597   1.095  15.981 -0.7831  1.0313  0.2148
17037TIP3    H172602   5.510   1.088  16.019 -1.0373 -1.6857 -0.6619
17037TIP3    H272603   5.582   1.095  15.886  0.1461 -1.1825  0.0004
17038TIP3   OH272604   5.582   2.796   3.983  0.6187  0.1938 -0.5539
17038TIP3    H172605   5.562   2.850   3.907  1.5178  2.1456  0.5275
17038TIP3    H272606   5.602   2.709   3.947  1.5148  1.1810 -2.5738
17039TIP3   OH272607   5.542   3.102  17.002  0.3569  0.0757 -0.2420
17039TIP3    H172608   5.636   3.102  16.984 -0.0917  0.0216 -3.2156
17039TIP3    H272609   5.502   3.132  16.919 -2.2532 -0.0721  0.8591
17040TIP3   OH272610   0.149   0.905   4.810  0.2847 -0.5587 -0.3408
17040TIP3    H172611   0.187   0.914   4.897 -2.4263  0.4637  0.8531
17040TIP3    H272612   0.119   0.993   4.787 -1.3553 -1.2667 -1.1251
17041TIP3   OH272613   3.429   5.404  15.089 -0.4235 -0.0992  0.5554
17041TIP3    H172614   3.432   5.456  15.169  0.5885  0.2550  0.3020
17041TIP3    H272615   3.419   5.467  15.018 -0.4881 -0.3475  0.3388
17042TIP3   OH272616   2.546   3.470  15.819  0.2770 -0.1824  0.8134
17042TIP3    H172617   2.602   3.511  15.754  0.6786  2.5818  2.7317
17042TIP3    H272618   2.457   3.483  15.786  0.4994  0.7682  0.5719
17043TIP3   OH272619   4.491   5.451  16.220  0.5751  0.0118 -0.5127
17043TIP3    H172620   4.427   5.486  16.281 -0.0194 -0.0563 -1.0904
17043TIP3    H272621   4.468   5.359  16.210  1.3464 -0.2463  0.0051
17044TIP3   OH272622   0.050   3.189  16.913  0.2550  0.1578  0.3874
17044TIP3    H172623   0.092   3.253  16.971 -0.4268  0.2510  0.7882
17044TIP3    H272624   0.005   3.242  16.847  1.7026  0.0482 -0.7542
17045TIP3   OH272625   1.094   2.380   3.289  0.0878  0.1246  0.0083
17045TIP3    H172626   1.047   2.308   3.246 -0.1112 -1.0245  2.0105
17045TIP3    H272627   1.025   2.431   3.331  0.2912  1.1317 -0.8564
17046TIP3   OH272628   1.532   0.724  17.053  0.3044 -0.2729 -0.9256
17046TIP3    H172629   1.617   0.679  17.062 -1.3472 -3.3634  0.6420
17046TIP3    H272630   1.505   0.704  16.963  1.0609  0.5045 -1.3472
17047TIP3   OH272631   3.018   3.957   6.051  0.6800 -0.0836  0.3819
17047TIP3    H172632   2.944   3.907   6.086  1.2428 -0.0201  1.7210
17047TIP3    H272633   2.978   4.022   5.994 -0.1545 -1.2397 -0.4108
17048TIP3   OH272634   3.561   4.645  16.712 -0.0140 -0.0629  0.0742
17048TIP3    H172635   3.553   4.549  16.714 -0.8109 -0.0278 -0.6042
17048TIP3    H272636   3.535   4.669  16.623  0.5173  0.7669  0.1278
17049TIP3   OH272637   2.281   6.093  15.218 -0.5207 -0.1528  0.4545
17049TIP3    H172638   2.339   6.098  15.142  1.0287 -0.0592  1.5830
17049TIP3    H272639   2.279   6.183  15.252 -1.5755 -0.0989  0.2719
17050TIP3   OH272640   1.607   2.551   1.724 -0.4463  0.5291  0.0190
17050TIP3    H172641   1.516   2.550   1.694 -0.4870 -0.1867  0.1422
17050TIP3    H272642   1.603   2.521   1.815 -0.2134  1.6755  0.4165
17051TIP3   OH272643   4.673   0.775  12.609 -0.9341  0.1611 -0.1981
17051TIP3    H172644   4.751   0.753  12.557 -0.0030 -0.5244  1.3977
17051TIP3    H272645   4.680   0.869  12.623  0.4881 -0.1216  1.2193
17052TIP3   OH272646   3.597   4.230  17.174  0.1544  0.6333 -0.2490
17052TIP3    H172647   3.681   4.186  17.163 -0.2786 -0.5693  0.9829
17052TIP3    H272648   3.585   4.280  17.093  1.0281 -0.9267 -1.4028
17053TIP3   OH272649   6.642   5.695  14.835 -0.1584 -0.5452 -0.3549
17053TIP3    H172650   6.719   5.640  14.819  1.0788  0.5080  1.4332
17053TIP3    H272651   6.648   5.764  14.768  0.2555 -0.6938 -0.4777
17054TIP3   OH272652   4.318   4.115  14.420 -0.0814  0.6194  0.0097
17054TIP3    H172653   4.240   4.159  14.455  0.7426  2.2627 -0.1336
17054TIP3    H272654   4.312   4.126  14.326 -0.3307 -0.4281 -0.1099
17055TIP3   OH272655   0.433   0.153  12.755 -0.1640  0.4861  0.7660
17055TIP3    H172656   0.461   0.096  12.683 -1.4255  1.6704 -0.7532
17055TIP3    H272657   0.397   0.093  12.821  1.3563 -0.6603  0.5965
17056TIP3   OH272658   3.443   4.747   1.311 -0.7392  0.2406 -0.0566
17056TIP3    H172659   3.405   4.680   1.368  0.1538 -0.2441 -0.0166
17056TIP3    H272660   3.435   4.828   1.361  0.3593 -0.2343  0.9292
17057TIP3   OH272661   1.677   2.279   2.591  0.6396 -0.5890 -0.2503
17057TIP3    H172662   1.642   2.359   2.630  0.7366 -0.1973 -0.9608
17057TIP3    H272663   1.627   2.208   2.632  1.1801 -0.2376  1.0675
17058TIP3   OH272664   3.460   6.266   3.879  0.4844  0.3312 -0.4035
17058TIP3    H172665   3.522   6.227   3.940 -0.9351 -0.3439  0.6669
17058TIP3    H272666   3.439   6.352   3.916  0.2976  0.2984 -0.4330
17059TIP3   OH272667   6.810   2.490   6.773 -0.1248 -0.7494 -0.1572
17059TIP3    H172668   6.742   2.426   6.794  0.5325 -1.0420  1.1831
17059TIP3    H272669   6.857   2.452   6.700  1.2851 -2.6641  1.6234
17060TIP3   OH272670   3.103   0.599   5.825 -0.4425  0.2712  0.2581
17060TIP3    H172671   3.136   0.559   5.906  1.2216  1.7911  0.3908
17060TIP3    H272672   3.159   0.563   5.757 -0.0543  1.0408  0.1600
17061TIP3   OH272673   0.575   4.670  15.896 -0.0207 -0.0658 -0.3297
17061TIP3    H172674   0.561   4.605  15.966 -1.1095  0.2297 -0.2550
17061TIP3    H272675   0.519   4.743  15.920  1.4578  1.0819 -0.2216
17062TIP3   OH272676   2.867   2.159   3.905  0.4526 -0.2361  0.1037
17062TIP3    H172677   2.811   2.083   3.920  0.5048 -0.0523  1.3539
17062TIP3    H272678   2.874   2.201   3.991 -0.3862  1.7598 -0.7254
17063TIP3   OH272679   0.833   1.671   5.639 -0.4323 -0.3216  0.0688
17063TIP3    H172680   0.817   1.761   5.668 -0.8638 -1.0531  2.3420
17063TIP3    H272681   0.921   1.651   5.671  0.1237 -0.3602 -1.4370
17064TIP3   OH272682   2.414   0.635   5.287 -0.2458  0.3385 -0.2751
17064TIP3    H172683   2.413   0.650   5.382 -0.6138 -0.4734 -0.1427
17064TIP3    H272684   2.504   0.609   5.268 -0.6099 -1.4161  0.1875
17065TIP3   OH272685   2.520   1.675   1.858 -0.1797 -0.4884  0.6032
17065TIP3    H172686   2.463   1.613   1.813 -0.5819 -0.0525  0.4969
17065TIP3    H272687   2.479   1.687   1.944 -0.4618  0.1065  0.3921
17066TIP3   OH272688   2.508   3.604   4.999 -0.3231 -0.0631 -0.5141
17066TIP3    H172689   2.459   3.559   4.930  0.2916  0.2915 -1.1998
17066TIP3    H272690   2.560   3.536   5.040  1.0380  0.0707 -1.9238
17067TIP3   OH272691   1.920   2.858  14.264 -0.2982  0.1466 -0.3439
17067TIP3    H172692   1.951   2.928  14.207  3.7043  0.8052  2.2107
17067TIP3    H272693   1.878   2.904  14.337 -1.0814 -0.3629 -0.4710
17068TIP3   OH272694   2.988   5.380   3.027  0.1080  0.4491  0.2995
17068TIP3    H172695   3.046   5.402   3.100 -1.3780 -0.0309  1.6881
17068TIP3    H272696   2.905   5.422   3.048 -0.8441 -1.0527 -0.2546
17069TIP3   OH272697   5.030   4.764   2.646 -0.2485 -0.0638 -0.1136
17069TIP3    H172698   4.946   4.718   2.648 -1.3511  1.8078  0.1456
17069TIP3    H272699   5.095   4.700   2.673 -2.1257 -0.5868  3.7728
17070TIP3   OH272700   1.660   2.666  10.821 -0.4910  0.5837 -0.2327
17070TIP3    H172701   1.571   2.699  10.838 -0.6700 -0.9871  2.6354
17070TIP3    H272702   1.714   2.745  10.818 -2.0752  1.7325 -3.8081
17071TIP3   OH272703   3.474   5.864   4.864 -0.2828 -0.2539  0.5886
17071TIP3    H172704   3.410   5.813   4.914 -1.8437  0.3075 -0.7301
17071TIP3    H272705   3.466   5.953   4.899 -0.7340 -0.0487 -0.0069
17072TIP3   OH272706   2.698   2.198  13.688 -0.3799 -0.7107  0.0591
17072TIP3    H172707   2.637   2.127  13.705  0.1114 -1.9944 -2.9267
17072TIP3    H272708   2.645   2.267  13.648 -1.0199  1.1541  3.6913
17073TIP3   OH272709   3.977   5.495  16.661  0.5476  0.3977 -0.0290
17073TIP3    H172710   4.016   5.564  16.607  1.8409 -0.4699 -0.2337
17073TIP3    H272711   4.031   5.492  16.739  1.1537 -1.0807 -0.4817
17074TIP3   OH272712   4.713   3.339  14.114 -0.2880  0.0070  0.1249
17074TIP3    H172713   4.689   3.247  14.106 -0.5748  0.1412 -0.5952
17074TIP3    H272714   4.802   3.337  14.149 -0.8888 -0.5023  1.6798
17075TIP3   OH272715   6.771   1.683   0.811 -0.1094 -0.0714 -0.1232
17075TIP3    H172716   6.737   1.699   0.900  0.3471  2.6668 -0.3561
17075TIP3    H272717   6.763   1.588   0.799 -2.1626 -0.2645  2.0328
17076TIP3   OH272718   2.913   4.336  14.953  0.3887 -0.0381  0.0853
17076TIP3    H172719   2.904   4.415  14.900 -0.7455  0.4980  1.0344
17076TIP3    H272720   2.903   4.366  15.043 -2.0051 -1.4948  0.3940
17077TIP3   OH272721   1.066   0.753   3.550  0.0819 -0.3484 -0.4191
17077TIP3    H172722   1.022   0.669   3.540 -1.4201  0.4066 -0.4509
17077TIP3    H272723   1.001   0.809   3.593  1.9237  0.1034  2.0234
17078TIP3   OH272724   1.845   3.760   3.161  0.1918 -0.0129 -0.1777
17078TIP3    H172725   1.757   3.798   3.164  0.1160  0.1299 -2.4670
17078TIP3    H272726   1.851   3.707   3.241 -2.4687 -1.1142 -0.5925
17079TIP3   OH272727   5.669   5.681  15.471 -0.3167 -0.3930  0.0203
17079TIP3    H172728   5.672   5.768  15.511  0.4506 -0.7519  0.7842
17079TIP3    H272729   5.749   5.638  15.502 -0.7346 -1.4001 -0.2644
17080TIP3   OH272730   6.169   0.230  14.867  0.3410 -0.0648 -0.0434
17080TIP3    H172731   6.205   0.168  14.930 -0.5461 -2.0455 -1.3745
17080TIP3    H272732   6.080   0.246  14.898  0.2783 -0.1557 -0.1763
17081TIP3   OH272733   3.460   5.240  14.026  0.1847 -0.5238  0.8360
17081TIP3    H172734   3.496   5.310  13.971 -0.5017 -0.5448  0.3494
17081TIP3    H272735   3.534   5.181  14.041  0.6074 -0.0337  0.7081
17082TIP3   OH272736   5.215   0.919  12.878 -0.4758 -0.6216 -0.2381
17082TIP3    H172737   5.278   0.939  12.809  1.1577 -0.8298  1.1107
17082TIP3    H272738   5.224   0.992  12.940 -1.3645 -0.7931  0.1044
17083TIP3   OH272739   5.021   4.342   5.621 -0.1981  0.6198  0.1359
17083TIP3    H172740   5.021   4.288   5.542  1.6591 -1.0056  1.1438
17083TIP3    H272741   4.982   4.285   5.688 -0.1769  1.3366  0.7637
17084TIP3   OH272742   0.344   5.788  15.575 -0.4321  0.1922  0.4371
17084TIP3    H172743   0.317   5.864  15.626  0.4453 -0.5215  2.0485
17084TIP3    H272744   0.440   5.789  15.581 -0.3693 -0.4593 -0.3858
17085TIP3   OH272745   1.467   1.938   1.800  0.0947 -0.1491 -0.2722
17085TIP3    H172746   1.446   2.005   1.865  1.9297  0.8544 -0.6469
17085TIP3    H272747   1.444   1.976   1.716  0.3850 -0.2991 -0.4234
17086TIP3   OH272748   2.086   3.821  13.155 -0.0976 -0.0919 -0.3256
17086TIP3    H172749   2.049   3.908  13.171  0.0921 -0.2442  1.0174
17086TIP3    H272750   2.011   3.769  13.125 -0.7301 -0.0690  1.1631
17087TIP3   OH272751   0.015   6.720   3.187 -0.1468 -0.6777  0.8010
17087TIP3    H172752  -0.064   6.773   3.181  0.3318  0.1286  1.5040
17087TIP3    H272753   0.082   6.779   3.221  0.3400 -1.7727  1.8365
17088TIP3   OH272754   2.100   0.759   4.941  0.0267 -0.1507  0.1474
17088TIP3    H172755   2.108   0.782   5.034 -0.0413 -1.7716  0.5873
17088TIP3    H272756   2.186   0.728   4.916  0.7150  2.4425 -1.0271
17089TIP3   OH272757   5.425   2.260   1.327 -0.1281 -0.2063 -0.0781
17089TIP3    H172758   5.456   2.347   1.303  1.5222 -1.5495 -3.5722
17089TIP3    H272759   5.504   2.210   1.345 -0.8967 -1.4059  0.1250
17090TIP3   OH272760   2.116   4.717  15.223 -0.9165  0.3091  0.1428
17090TIP3    H172761   2.209   4.695  15.211 -1.1240 -0.7134  0.3271
17090TIP3    H272762   2.109   4.739  15.316 -1.1252 -1.0383  0.4636
17091TIP3   OH272763   0.341   1.472   4.140 -0.7783 -0.4783  0.3628
17091TIP3    H172764   0.352   1.466   4.045 -0.5595 -0.0533  0.3582
17091TIP3    H272765   0.423   1.438   4.175  0.4497  2.1734  0.3382
17092TIP3   OH272766   3.433   0.709  16.464  0.6751 -1.1919  0.2023
17092TIP3    H172767   3.506   0.647  16.468 -0.0876 -2.0587  0.7952
17092TIP3    H272768   3.412   0.716  16.371  1.6863 -0.7204 -0.0031
17093TIP3   OH272769   4.567   3.724   5.146 -0.1605  0.0201  0.1610
17093TIP3    H172770   4.519   3.776   5.082 -0.2525  0.8522  0.8845
17093TIP3    H272771   4.611   3.656   5.094 -1.0948  0.0104 -0.6490
17094TIP3   OH272772   6.791   1.609   2.508 -0.3741  0.6920 -0.0199
17094TIP3    H172773   6.816   1.699   2.488  1.5842 -0.0134 -1.1351
17094TIP3    H272774   6.775   1.569   2.422 -3.0486  0.4090  0.5483
17095TIP3   OH272775   5.529   6.775  16.047 -0.0121 -0.1285 -0.2604
17095TIP3    H172776   5.586   6.798  16.120  1.1520 -1.0393 -0.8480
17095TIP3    H272777   5.465   6.846  16.043  1.8575  1.6320 -0.3987
17096TIP3   OH272778   3.991   0.206  15.450 -0.0776 -0.5385 -0.2765
17096TIP3    H172779   3.951   0.258  15.381 -1.6279 -1.9234 -0.4866
17096TIP3    H272780   4.075   0.178  15.413  0.6269  1.4427 -0.2821
17097TIP3   OH272781   4.870   2.919  15.700  0.3819  0.5105 -0.2743
17097TIP3    H172782   4.875   2.857  15.773 -0.6555 -1.1332 -1.5111
17097TIP3    H272783   4.873   2.864  15.622 -3.9911  1.5313 -1.4545
17098TIP3   OH272784   1.408   2.185   1.972  0.0079 -0.1013 -0.0024
17098TIP3    H172785   1.476   2.246   1.945 -0.7762  0.9357  0.3175
17098TIP3    H272786   1.430   2.164   2.063  0.1153 -0.0724 -0.0212
17099TIP3   OH272787   1.047   1.969   6.262  0.0195 -0.0416 -0.0399
17099TIP3    H172788   1.127   2.003   6.302 -1.3033  1.8753  1.1549
17099TIP3    H272789   0.977   2.003   6.318 -1.7052 -0.4726 -1.8549
17100TIP3   OH272790   3.664   4.830   5.157 -0.2843 -0.9373 -0.1657
17100TIP3    H172791   3.653   4.925   5.154  0.1890 -0.8392  0.9098
17100TIP3    H272792   3.602   4.800   5.224 -0.3234 -1.3785 -0.3892
17101TIP3   OH272793   2.445   2.953  11.486  0.1106 -0.0004 -0.2777
17101TIP3    H172794   2.445   3.013  11.561 -1.7373  0.2807 -0.4526
17101TIP3    H272795   2.475   2.870  11.522 -0.9861  0.0683  0.8607
17102TIP3   OH272796   6.561   4.401   1.236 -0.9520  0.5839  0.4144
17102TIP3    H172797   6.577   4.343   1.311  1.7491  0.4513 -0.1777
17102TIP3    H272798   6.520   4.345   1.171  0.5420 -0.4314  0.2945
17103TIP3   OH272799   3.290   3.168   3.628  0.1460  0.4064 -0.2645
17103TIP3    H172800   3.299   3.260   3.652 -2.0357  1.4364 -2.8765
17103TIP3    H272801   3.224   3.134   3.689 -0.8677  1.2990 -0.8264
17104TIP3   OH272802   0.548   1.087  12.056  0.9379  0.3524  0.9512
17104TIP3    H172803   0.582   1.110  12.143  0.2204  1.5305  0.9335
17104TIP3    H272804   0.459   1.123  12.055  1.6482  2.2613 -1.0320
17105TIP3   OH272805   1.272   3.428   3.907  0.1946  0.1422 -0.0865
17105TIP3    H172806   1.228   3.354   3.866 -0.7586 -0.6321  2.1585
17105TIP3    H272807   1.363   3.400   3.917  0.2270 -0.0196 -0.7871
17106TIP3   OH272808   5.037   0.009   2.510 -0.0565  0.0942 -0.4093
17106TIP3    H172809   4.956   0.028   2.461 -0.0357 -0.1003 -0.5204
17106TIP3    H272810   5.009   0.010   2.601 -0.5015 -1.4234 -0.5050
17107TIP3   OH272811   5.283   3.867   2.806 -0.1222 -0.5976  0.8663
17107TIP3    H172812   5.280   3.790   2.750  0.1538  0.4647 -0.6950
17107TIP3    H272813   5.202   3.915   2.786  0.6145  0.4658  0.3382
17108TIP3   OH272814   2.437   5.596  12.019 -0.4219 -0.3209 -0.1843
17108TIP3    H172815   2.497   5.535  12.063  0.2260 -0.3959 -1.1404
17108TIP3    H272816   2.372   5.540  11.976 -0.6586 -0.2746  0.1105
17109TIP3   OH272817   1.767   5.733  10.767 -0.1032 -0.0553  0.6944
17109TIP3    H172818   1.758   5.655  10.712 -1.3741  0.9288 -0.5719
17109TIP3    H272819   1.854   5.768  10.745 -0.3458 -0.0198 -0.2633
17110TIP3   OH272820   4.828   0.844  11.462  0.0347  0.1265  0.5991
17110TIP3    H172821   4.855   0.836  11.554  0.7636  3.7735  0.8523
17110TIP3    H272822   4.903   0.812  11.412  1.0981  1.4309  1.3061
17111TIP3   OH272823   3.647   3.480  13.091 -1.0342  0.5450 -0.5292
17111TIP3    H172824   3.715   3.513  13.149 -0.0635 -0.1860 -1.2171
17111TIP3    H272825   3.574   3.459  13.149 -1.7669  3.9140 -0.0627
17112TIP3   OH272826   1.712   4.047   1.426  0.0451  0.4154 -0.2174
17112TIP3    H172827   1.690   3.954   1.432 -2.1498  0.8332 -1.0203
17112TIP3    H272828   1.730   4.073   1.516  0.8693 -0.7932  0.0011
17113TIP3   OH272829   5.307   1.733   0.022 -0.0254 -0.7476 -0.1624
17113TIP3    H172830   5.252   1.661  -0.012 -1.7450  0.7128 -0.6498
17113TIP3    H272831   5.270   1.812  -0.018  2.0824  0.3980  0.0151
17114TIP3   OH272832   1.471   2.378  11.154  0.1913 -0.4882 -0.1336
17114TIP3    H172833   1.416   2.454  11.133  1.8143  0.6040 -0.6241
17114TIP3    H272834   1.539   2.379  11.087  1.4949 -1.0811  1.1425
17115TIP3   OH272835   0.263   0.062  16.446  0.0427  0.2056  0.1529
17115TIP3    H172836   0.275   0.135  16.507  2.5457 -1.0092  1.2680
17115TIP3    H272837   0.322   0.081  16.373  2.9722 -1.8677  1.7526
17116TIP3   OH272838   1.645   0.545   5.047 -0.4487 -0.0517  0.1653
17116TIP3    H172839   1.718   0.600   5.018  0.1555 -1.1138 -0.3904
17116TIP3    H272840   1.606   0.512   4.966 -1.9800  1.0046  0.4280
17117TIP3   OH272841   5.669   4.182   5.243 -0.9693 -0.2220  0.3960
17117TIP3    H172842   5.663   4.087   5.252 -2.0083 -0.0873  1.3590
17117TIP3    H272843   5.763   4.200   5.241 -0.7605 -1.3258 -0.6063
17118TIP3   OH272844   6.235   6.745  11.337  0.3315 -0.1609  0.7600
17118TIP3    H172845   6.229   6.657  11.299 -0.9796 -0.4073  1.4885
17118TIP3    H272846   6.144   6.772  11.348  0.7074  0.5634  2.2183
17119TIP3   OH272847   1.237   6.753  13.164 -0.1437 -0.2052  0.3810
17119TIP3    H172848   1.187   6.779  13.241 -0.3005  0.7545 -0.0230
17119TIP3    H272849   1.179   6.772  13.090  0.8754  1.1838 -0.1087
17120TIP3   OH272850   4.632   1.181  11.075  0.3572 -0.4211 -0.4345
17120TIP3    H172851   4.585   1.169  11.157 -0.5421  1.8140 -0.5619
17120TIP3    H272852   4.570   1.227  11.018  2.3864  1.9199 -0.8959
17121TIP3   OH272853   5.675   2.363   2.084 -0.3469  0.0761 -0.2795
17121TIP3    H172854   5.602   2.306   2.059 -2.4534  3.2077 -1.8704
17121TIP3    H272855   5.742   2.348   2.017 -0.6195 -0.8810 -0.3539
17122TIP3   OH272856   5.098   2.652   5.746 -0.1432 -0.0456  0.1134
17122TIP3    H172857   5.163   2.656   5.816 -0.3284  1.9728  0.2294
17122TIP3    H272858   5.015   2.667   5.789 -0.3171  0.7272 -0.4713
17123TIP3   OH272859   3.419   0.242  13.564 -0.4001 -1.0672  0.2261
17123TIP3    H172860   3.437   0.150  13.582 -0.1796 -1.2640 -0.8933
17123TIP3    H272861   3.397   0.244  13.471 -0.3130  0.0232  0.2175
17124TIP3   OH272862   4.346   1.479  14.565 -0.7420 -0.3928 -0.6824
17124TIP3    H172863   4.365   1.533  14.642  0.2074  0.0369 -1.1998
17124TIP3    H272864   4.311   1.541  14.501 -0.3350 -0.5142 -1.0271
17125TIP3   OH272865   2.071   4.965   4.429  0.0130 -0.2385 -0.6704
17125TIP3    H172866   2.021   5.045   4.444 -0.2284  0.0337 -2.5954
17125TIP3    H272867   2.016   4.913   4.370  0.7937 -1.1830 -0.6013
17126TIP3   OH272868   0.794   4.370  13.414  0.2957 -0.2591  0.4100
17126TIP3    H172869   0.783   4.458  13.378  1.6732  1.2192  3.2969
17126TIP3    H272870   0.885   4.347  13.396 -0.0963 -1.1965 -0.4635
17127TIP3   OH272871   5.034   1.673  16.233 -0.5727  0.2342  0.1118
17127TIP3    H172872   5.071   1.761  16.219  0.9646 -0.7063 -2.5925
17127TIP3    H272873   4.948   1.676  16.191 -0.6673  0.5270  0.3230
17128TIP3   OH272874   2.425   3.997   3.163  0.2446 -0.3903  0.3403
17128TIP3    H172875   2.486   3.936   3.121  0.6011  0.4099 -0.3414
17128TIP3    H272876   2.478   4.043   3.228 -0.3951 -1.8899  1.9853
17129TIP3   OH272877   3.659   4.839  12.029 -0.3774  0.6243  0.3732
17129TIP3    H172878   3.716   4.777  11.984 -3.5906 -1.6794 -0.8488
17129TIP3    H272879   3.647   4.802  12.117 -0.5747  0.7007  0.3807
17130TIP3   OH272880   0.129   4.859  12.820 -0.2654  0.1119  0.4434
17130TIP3    H172881   0.135   4.935  12.763 -0.7296 -1.0146 -1.1753
17130TIP3    H272882   0.054   4.810  12.787  0.2523 -1.2472  1.1991
17131TIP3   OH272883   3.458   5.682   6.497  0.2046  0.2450 -0.8599
17131TIP3    H172884   3.387   5.697   6.436 -0.3161  0.7381 -0.1514
17131TIP3    H272885   3.462   5.761   6.550  0.7913 -0.0747 -0.4090
17132TIP3   OH272886   2.008   2.950  12.554  0.1644 -0.6020 -0.2556
17132TIP3    H172887   1.969   3.037  12.558 -2.3155 -1.6519 -0.1548
17132TIP3    H272888   1.990   2.912  12.640 -0.2628 -1.8024 -0.8570
17133TIP3   OH272889   5.242   2.689  12.003  0.4236  0.1374 -0.6601
17133TIP3    H172890   5.238   2.641  12.086  0.8697 -0.4988 -0.9983
17133TIP3    H272891   5.236   2.621  11.936 -2.8010  0.8062 -1.2234
17134TIP3   OH272892   1.721   0.751  14.010 -0.0153 -0.6831 -0.9783
17134TIP3    H172893   1.794   0.808  14.032 -0.5230  0.0960 -1.2777
17134TIP3    H272894   1.673   0.798  13.942 -1.5973 -0.5138  0.1934
17135TIP3   OH272895   0.568   2.136  12.669 -0.0773  0.6998 -0.0821
17135TIP3    H172896   0.637   2.166  12.728 -0.1321  1.1762 -0.2590
17135TIP3    H272897   0.490   2.183  12.698 -0.6010 -0.6455  0.8302
17136TIP3   OH272898   1.740   0.996   0.300 -0.5802 -0.4965 -0.3063
17136TIP3    H172899   1.708   1.047   0.375  2.0538 -0.2630  0.7402
17136TIP3    H272900   1.710   0.906   0.318  0.2028 -0.4836  1.1698
17137TIP3   OH272901   2.862   2.416   0.639 -0.4219  0.2582 -0.2212
17137TIP3    H172902   2.775   2.386   0.666 -1.0927  1.6373 -0.7623
17137TIP3    H272903   2.910   2.336   0.620 -1.6485 -0.5211 -0.1526
17138TIP3   OH272904   0.659   2.359  13.296 -0.8765  0.1307  0.2015
17138TIP3    H172905   0.635   2.445  13.262 -1.4053 -0.2231 -0.3458
17138TIP3    H272906   0.596   2.343  13.366 -1.5488 -0.3105 -0.4849
17139TIP3   OH272907   2.585   5.296   3.515  0.2064 -0.1585  0.7318
17139TIP3    H172908   2.634   5.351   3.455 -0.3706 -1.4516 -1.0117
17139TIP3    H272909   2.651   5.254   3.569  0.8208  0.1524  0.2303
17140TIP3   OH272910   2.171   4.753   3.970 -0.0741 -0.2916  0.4353
17140TIP3    H172911   2.140   4.747   4.061 -0.6346 -0.8940  0.2153
17140TIP3    H272912   2.140   4.672   3.929 -0.5246  0.3410 -0.5027
17141TIP3   OH272913   6.541   1.459  14.057 -0.2143  0.2561  0.2826
17141TIP3    H172914   6.501   1.381  14.018  1.1499 -0.2710 -0.1386
17141TIP3    H272915   6.587   1.426  14.134 -1.1566  0.9621  1.1625
17142TIP3   OH272916   2.827   4.637   3.816 -0.9410 -0.2430 -0.6917
17142TIP3    H172917   2.802   4.687   3.738  1.2335  2.2522  0.0557
17142TIP3    H272918   2.918   4.611   3.800 -1.0806 -1.3747  0.2337
17143TIP3   OH272919   1.098   4.004   4.464  0.3353  0.7061 -0.0535
17143TIP3    H172920   1.068   4.029   4.551  0.9091  0.4945  0.2131
17143TIP3    H272921   1.131   4.085   4.425  1.0808  0.5992  0.3465
17144TIP3   OH272922   5.109   2.766  15.819 -0.6546 -0.3782 -0.0085
17144TIP3    H172923   5.122   2.857  15.845 -2.0683 -0.5400  1.4620
17144TIP3    H272924   5.129   2.716  15.898  0.8117 -1.4325 -1.0071
17145TIP3   OH272925   5.875   3.868  10.532 -0.2225  0.3907 -0.1213
17145TIP3    H172926   5.854   3.937  10.595 -1.1927 -0.7651  0.8863
17145TIP3    H272927   5.969   3.852  10.545 -0.4165  0.1442  1.0893
17146TIP3   OH272928   1.269   0.674  14.876  0.5044 -0.0788 -0.2902
17146TIP3    H172929   1.217   0.682  14.956  0.8790  0.8106 -0.1269
17146TIP3    H272930   1.343   0.734  14.889  0.7797 -0.2214 -1.1370
17147TIP3   OH272931   4.520   3.142   4.229 -0.4332 -0.0278 -0.6300
17147TIP3    H172932   4.530   3.155   4.134  1.2734 -2.2602 -0.8325
17147TIP3    H272933   4.434   3.101   4.238 -0.3076 -0.4651 -1.3183
17148TIP3   OH272934   2.719   0.682  11.421  0.1941 -0.0905 -0.1017
17148TIP3    H172935   2.678   0.707  11.338  0.3923  1.2597  0.1962
17148TIP3    H272936   2.768   0.602  11.399 -0.4195 -0.2259 -1.0799
17149TIP3   OH272937   1.924   6.554   2.820  0.2123  0.2178 -0.1030
17149TIP3    H172938   1.900   6.494   2.890  1.2786  0.7158  0.7297
17149TIP3    H272939   1.841   6.589   2.788 -0.4949 -2.1596 -1.0880
17150TIP3   OH272940   4.892   2.013   0.958 -0.3952  0.5042 -0.0458
17150TIP3    H172941   4.840   2.049   0.886 -0.0062  1.3942  0.0979
17150TIP3    H272942   4.873   2.070   1.032  1.0400  1.0909 -0.0841
17151TIP3   OH272943   5.233   0.928  16.964 -0.0227  0.1649 -0.0875
17151TIP3    H172944   5.152   0.923  16.913 -0.4164  0.4244  0.5015
17151TIP3    H272945   5.269   1.014  16.943  1.3803 -0.8591 -2.2220
17152TIP3   OH272946   5.085   4.145  14.797 -0.4354 -0.4579  0.0342
17152TIP3    H172947   5.127   4.188  14.871 -0.1563 -2.5414  1.1575
17152TIP3    H272948   5.098   4.205  14.723 -0.6824  1.6481  1.6219
17153TIP3   OH272949   6.790   1.742  14.766 -0.2837 -0.4892  0.5397
17153TIP3    H172950   6.780   1.680  14.837  0.5496  0.4884  1.5565
17153TIP3    H272951   6.884   1.739  14.744 -0.5200 -0.7527 -0.5036
17154TIP3   OH272952   1.510   0.838   5.884 -0.3636  0.4527 -0.3151
17154TIP3    H172953   1.577   0.847   5.951 -0.0381 -0.4107 -0.5107
17154TIP3    H272954   1.557   0.806   5.807 -0.7419  1.3738 -0.9480
17155TIP3   OH272955   5.800   4.220  13.621  0.3425  0.0390  0.0803
17155TIP3    H172956   5.895   4.224  13.627  0.3843 -0.2660 -0.3839
17155TIP3    H272957   5.780   4.127  13.618  0.0551  0.1127 -0.2842
17156TIP3   OH272958   1.314   5.705   0.112 -0.3189  0.1124  0.1318
17156TIP3    H172959   1.408   5.687   0.111 -0.5898 -1.4868  0.4632
17156TIP3    H272960   1.274   5.624   0.080 -1.6043  0.6699  0.2714
17157TIP3   OH272961   6.226   2.784  13.743 -0.3579 -0.2569 -0.2895
17157TIP3    H172962   6.205   2.860  13.798 -0.3337 -0.2520 -0.2869
17157TIP3    H272963   6.300   2.813  13.690  0.7698 -0.8353  0.9130
17158TIP3   OH272964   5.871   1.356   0.979 -0.2413  0.2396 -0.1779
17158TIP3    H172965   5.841   1.287   0.920  0.0207 -1.8816  2.0308
17158TIP3    H272966   5.851   1.324   1.066  2.6090  1.5904  1.1081
17159TIP3   OH272967   5.572   4.026  14.950  0.3368  0.4333 -0.6364
17159TIP3    H172968   5.640   3.993  15.008 -0.1968  0.3536 -0.0495
17159TIP3    H272969   5.490   4.013  14.998 -0.1306  0.2424 -1.4570
17160TIP3   OH272970   1.176   6.470  12.829  0.2037  0.4258 -0.9473
17160TIP3    H172971   1.144   6.442  12.914  1.8917  1.3546  0.0398
17160TIP3    H272972   1.169   6.566  12.830  0.7227  0.4869 -1.6345
17161TIP3   OH272973   3.068   6.635  14.471 -0.0675  0.2051 -0.1768
17161TIP3    H172974   3.116   6.711  14.506  0.7509 -0.1329 -0.5419
17161TIP3    H272975   3.135   6.569  14.455 -0.3727  0.3596 -2.4657
17162TIP3   OH272976   1.240   0.894   2.724  0.2421 -0.0209 -0.1557
17162TIP3    H172977   1.202   0.806   2.724 -0.2937  0.0874 -3.0112
17162TIP3    H272978   1.330   0.881   2.696 -0.0403  0.3475 -1.2977
17163TIP3   OH272979   2.013   4.030  15.258  0.5496  0.2262  0.0477
17163TIP3    H172980   1.959   4.105  15.233  1.6327  1.1377  0.3858
17163TIP3    H272981   2.103   4.063  15.258  1.0574 -1.0829  0.1706
17164TIP3   OH272982   2.642   5.260   2.521  0.4776  0.3566  0.3864
17164TIP3    H172983   2.642   5.204   2.443 -1.2720  1.0888 -0.1768
17164TIP3    H272984   2.699   5.333   2.497 -1.6399  1.6367 -1.0748
17165TIP3   OH272985   4.339   5.525   0.480  0.2135  0.1389  0.0748
17165TIP3    H172986   4.342   5.493   0.390  2.0541  0.7419 -0.1215
17165TIP3    H272987   4.278   5.467   0.524  0.6547 -1.3086 -1.1304
17166TIP3   OH272988   2.268   4.407   3.071  0.4243 -0.4033 -0.2896
17166TIP3    H172989   2.203   4.337   3.067  0.3708 -0.4488  0.9084
17166TIP3    H272990   2.219   4.484   3.099  0.5806  0.0012 -1.0882
17167TIP3   OH272991   3.026   1.970   5.166  0.2771 -0.0043  0.0214
17167TIP3    H172992   3.040   1.951   5.259 -0.5889 -1.8457 -0.1886
17167TIP3    H272993   3.106   1.940   5.123 -0.6056 -2.2238 -0.1669
17168TIP3   OH272994   3.061   4.543  12.332 -0.7047  0.4613 -0.4157
17168TIP3    H172995   2.987   4.582  12.378 -0.9239  0.7725 -1.0169
17168TIP3    H272996   3.137   4.594  12.360 -0.7446  0.2544  0.0665
17169TIP3   OH272997   1.334   6.739   4.136  0.4018  0.3530 -0.0686
17169TIP3    H172998   1.274   6.804   4.101  0.2964  0.6994  0.7193
17169TIP3    H272999   1.313   6.736   4.230  0.2455 -0.9812 -0.1223
17170TIP3   OH273000   2.726   0.614   2.163 -0.3329  0.0161  0.8127
17170TIP3    H173001   2.727   0.708   2.145 -1.8506 -0.3802 -1.8649
17170TIP3    H273002   2.818   0.587   2.154  0.2295  1.2818  2.2474
17171TIP3   OH273003   2.083   0.379  11.792 -0.3128  0.4283 -0.3842
17171TIP3    H173004   2.022   0.329  11.847  0.8068  1.0111  1.5089
17171TIP3    H273005   2.076   0.340  11.705 -0.7123 -1.9025  0.6297
17172TIP3   OH273006   3.869   1.982  11.914 -0.0483 -0.1609 -0.0125
17172TIP3    H173007   3.825   2.039  11.850  0.0933 -0.1230 -0.0779
17172TIP3    H273008   3.933   2.039  11.957 -1.0099  0.1325  1.0629
17173TIP3   OH273009   3.777   1.381   4.078  0.3518  0.4104  0.5878
17173TIP3    H173010   3.762   1.384   4.173  0.6155  0.5360  0.6255
17173TIP3    H273011   3.815   1.294   4.063  0.4773  0.4594  0.6217
17174TIP3   OH273012   3.240   2.990  11.503 -0.3930 -0.2176 -0.0622
17174TIP3    H173013   3.278   3.077  11.513 -1.3413  0.1111  0.7769
17174TIP3    H273014   3.316   2.932  11.493  0.2426  0.7125 -0.8681
17175TIP3   OH273015   4.307   5.678  11.811  0.2847  0.4803 -0.0079
17175TIP3    H173016   4.245   5.679  11.884 -2.5492  0.3796 -2.2256
17175TIP3    H273017   4.268   5.618  11.748  1.2771  2.4201 -2.6359
17176TIP3   OH273018   2.431   5.323   5.878  0.0214  0.0847  1.1140
17176TIP3    H173019   2.449   5.323   5.784  2.3830  0.7593  1.5184
17176TIP3    H273020   2.517   5.330   5.920 -0.9375 -0.5307  3.3533
17177TIP3   OH273021   3.945   5.816  10.577 -0.5374 -0.2454  0.9101
17177TIP3    H173022   3.928   5.733  10.622  0.7655 -0.1680  1.6005
17177TIP3    H273023   4.032   5.842  10.608 -0.1190  0.4358 -0.7406
17178TIP3   OH273024   3.111   0.624  15.838 -0.8110 -0.5677 -0.0548
17178TIP3    H173025   3.164   0.572  15.898  0.5829  1.3684  0.5107
17178TIP3    H273026   3.112   0.712  15.876 -0.9254  0.4530 -2.2588
17179TIP3   OH273027   4.166   3.878   3.636 -0.3533  0.1852  0.6460
17179TIP3    H173028   4.134   3.891   3.547 -0.6219 -1.3674  0.4847
17179TIP3    H273029   4.123   3.945   3.688 -0.9411  0.4912 -0.2300
17180TIP3   OH273030   4.447   2.374   5.527  0.3077 -0.1347  0.1054
17180TIP3    H173031   4.477   2.285   5.547 -0.8360 -0.9227 -1.4977
17180TIP3    H273032   4.453   2.380   5.432 -0.5761  1.1683  0.1117
17181TIP3   OH273033   6.463   6.134  13.475 -1.0496 -0.0157  0.3708
17181TIP3    H173034   6.492   6.160  13.388  2.2852  2.6132  2.0528
17181TIP3    H273035   6.369   6.151  13.475 -0.9667  0.8759 -2.3641
17182TIP3   OH273036   1.672   1.182   4.262 -0.1819  0.1445  0.2746
17182TIP3    H173037   1.633   1.100   4.231 -2.0310  0.5519  1.4141
17182TIP3    H273038   1.726   1.156   4.337  0.5245 -0.2084 -0.3385
17183TIP3   OH273039   3.374   1.796  12.841 -0.3739  0.1530  0.1339
17183TIP3    H173040   3.361   1.878  12.888 -1.4454  0.4159 -0.5644
17183TIP3    H273041   3.358   1.818  12.749  0.4494 -0.6032 -0.2168
17184TIP3   OH273042   1.640   4.204   2.294  0.3945  0.4053 -0.1662
17184TIP3    H173043   1.581   4.274   2.264  1.2038  1.8509  1.4489
17184TIP3    H273044   1.657   4.225   2.386  2.9457 -0.3101 -0.4060
17185TIP3   OH273045   0.400   1.280   3.624 -0.0885  0.0007  0.0449
17185TIP3    H173046   0.451   1.361   3.625  0.9625 -0.6367 -0.2879
17185TIP3    H273047   0.462   1.214   3.594 -1.1637 -0.7765 -0.5068
17186TIP3   OH273048   4.532   0.568   2.747  0.6517 -0.1640 -0.3214
17186TIP3    H173049   4.464   0.553   2.681 -0.7952  0.6629  0.9115
17186TIP3    H273050   4.504   0.517   2.823  1.1146  0.5986  0.3892
17187TIP3   OH273051   0.102   6.182   4.672 -0.1280  0.5745 -0.4221
17187TIP3    H173052   0.076   6.140   4.590  0.9982 -1.0200 -0.0282
17187TIP3    H273053   0.167   6.246   4.647 -0.5322  0.8146 -0.8709
17188TIP3   OH273054   0.775   1.979   0.337 -0.3927  0.7523  0.3242
17188TIP3    H173055   0.748   2.069   0.354  0.2448  1.0259 -0.0571
17188TIP3    H273056   0.764   1.969   0.242 -1.3821  0.1130  0.4979
17189TIP3   OH273057   5.793   6.579   1.530  0.3828 -0.0136  0.4222
17189TIP3    H173058   5.855   6.533   1.587 -1.9440 -1.5952  1.8682
17189TIP3    H273059   5.762   6.511   1.470 -2.2215 -0.1405  1.7948
17190TIP3   OH273060   1.189   0.460  14.342  0.2963  0.0858 -0.7222
17190TIP3    H173061   1.201   0.391  14.408  0.6132 -0.9112 -1.7793
17190TIP3    H273062   1.122   0.517  14.379 -2.7005 -2.7622 -1.2988
17191TIP3   OH273063   2.338   2.331  16.720  0.4800 -0.1652  0.5799
17191TIP3    H173064   2.340   2.312  16.814  2.7689  1.7183  1.0117
17191TIP3    H273065   2.355   2.425  16.714 -0.0809 -0.1517 -1.7223
17192TIP3   OH273066   5.160   5.233  16.075 -1.0805 -0.3006 -0.6512
17192TIP3    H173067   5.158   5.213  15.981  1.6501 -1.5574 -0.5553
17192TIP3    H273068   5.193   5.152  16.116  0.0535  0.9566  1.0896
17193TIP3   OH273069   5.037   1.880  12.003  0.0759  0.2044  0.2710
17193TIP3    H173070   5.007   1.969  11.981 -0.1332 -0.2249 -1.3676
17193TIP3    H273071   5.120   1.871  11.956  0.0553 -0.4772  0.3558
17194TIP3   OH273072   2.308   1.905   1.380 -0.1806 -0.5154  0.4161
17194TIP3    H173073   2.339   1.835   1.438 -0.3533  0.3555  1.6049
17194TIP3    H273074   2.242   1.951   1.432 -0.8877 -0.1654 -0.7711
17195TIP3   OH273075   3.098   2.342   1.177  0.5086  0.1853 -0.4309
17195TIP3    H173076   3.159   2.415   1.193 -0.5398  1.4341 -1.9032
17195TIP3    H273077   3.142   2.289   1.110  0.3099  0.6817 -0.9595
17196TIP3   OH273078   0.882   1.181  11.780  0.4720  0.8857  0.6198
17196TIP3    H173079   0.830   1.106  11.808  1.8094 -0.3694 -0.0941
17196TIP3    H273080   0.830   1.257  11.806 -0.0136 -0.2112  3.1683
17197TIP3   OH273081   5.762   1.614  11.515 -0.0992  0.2790 -0.5726
17197TIP3    H173082   5.742   1.635  11.424  1.0061  0.9631 -0.6760
17197TIP3    H273083   5.841   1.664  11.534 -0.3037  0.1195  0.7631
17198TIP3   OH273084   3.997   0.524  13.685 -0.5228  0.2039  0.1921
17198TIP3    H173085   4.057   0.459  13.649 -2.4835 -2.3791  1.3116
17198TIP3    H273086   3.942   0.549  13.611 -1.1741 -1.1197  0.2072
17199TIP3   OH273087   5.010   2.997   4.191  0.2989 -0.0363 -0.2828
17199TIP3    H173088   5.011   2.969   4.099  1.3001  0.3363 -0.3938
17199TIP3    H273089   5.088   2.957   4.229  0.8489  1.2353 -0.0278
17200TIP3   OH273090   5.091   5.869   4.623  0.5239  0.0815  0.3755
17200TIP3    H173091   5.172   5.820   4.613  0.5975  0.3126 -0.2428
17200TIP3    H273092   5.038   5.818   4.684  0.2994 -1.1475 -0.8063
17201TIP3   OH273093   5.375   2.071  15.404 -0.0587  0.4372  0.4076
17201TIP3    H173094   5.438   2.025  15.348 -0.8229 -1.0474  0.7044
17201TIP3    H273095   5.367   2.158  15.365  1.5007  0.3714 -0.1431
17202TIP3   OH273096   0.126   2.182  13.953 -0.0855  0.9589 -0.2860
17202TIP3    H173097   0.165   2.145  14.032  0.7575  1.2973 -0.5359
17202TIP3    H273098   0.178   2.260  13.935 -0.1306  0.7731 -1.2952
17203TIP3   OH273099   0.413   2.360   5.724 -0.0778  0.2849  0.2459
17203TIP3    H173100   0.434   2.387   5.814  0.5319  1.1087 -0.1307
17203TIP3    H273101   0.340   2.417   5.699  0.5125  0.8647 -0.1781
17204TIP3   OH273102   0.679   4.920  12.742 -0.1386 -0.1376  0.4537
17204TIP3    H173103   0.716   4.835  12.718 -0.1456 -0.8468  2.6716
17204TIP3    H273104   0.602   4.930  12.686  0.0954 -1.3968 -0.1241
17205TIP3   OH273105   2.558   0.908   2.681 -0.8982 -0.0575 -1.0472
17205TIP3    H173106   2.494   0.845   2.648 -3.2321  0.6856  1.6811
17205TIP3    H273107   2.512   0.956   2.750  2.4809  0.8010  0.8718
17206TIP3   OH273108   1.638   0.843   5.575 -0.1059 -0.4902 -0.1166
17206TIP3    H173109   1.707   0.850   5.641 -1.8807 -1.0824  1.8842
17206TIP3    H273110   1.623   0.933   5.547  1.4795 -0.3526 -0.6631
17207TIP3   OH273111   2.052   2.813  15.663 -0.4991  0.5251  0.4023
17207TIP3    H173112   1.990   2.771  15.603 -0.1160  0.1844  0.2388
17207TIP3    H273113   2.091   2.740  15.711  1.9779  0.4264 -1.5969
17208TIP3   OH273114   2.331   6.352  12.457  0.3151 -0.1254 -0.6220
17208TIP3    H173115   2.341   6.308  12.372 -2.3608 -1.9040 -0.1547
17208TIP3    H273116   2.274   6.427  12.439  1.1308  0.5041 -0.6439
17209TIP3   OH273117   0.926   2.299  14.774 -0.0395 -0.5259  0.6624
17209TIP3    H173118   0.902   2.338  14.858  1.4175  0.7738  0.5121
17209TIP3    H273119   0.843   2.267  14.738 -0.3938 -3.7455  3.7993
17210TIP3   OH273120   4.602   6.571  17.003 -0.4879 -0.0890 -0.2313
17210TIP3    H173121   4.534   6.632  16.973 -0.3253  0.4752  0.5310
17210TIP3    H273122   4.682   6.624  17.007 -0.2118 -0.5044 -0.1529
17211TIP3   OH273123   4.081   1.141   2.202  0.2399 -0.6667  0.6548
17211TIP3    H173124   4.110   1.104   2.118 -0.7253 -3.1958  1.3453
17211TIP3    H273125   4.121   1.228   2.205 -0.3195 -0.1538 -2.7596
17212TIP3   OH273126   0.472   1.858  14.910 -0.5851  0.4213  0.0734
17212TIP3    H173127   0.505   1.769  14.920 -2.9177 -0.4695  0.4130
17212TIP3    H273128   0.476   1.874  14.815  0.4884  0.2498  0.0738
17213TIP3   OH273129   5.381   0.301   3.037  0.5238  0.1326  0.2722
17213TIP3    H173130   5.326   0.325   3.111 -0.2098 -1.9698  0.4756
17213TIP3    H273131   5.326   0.242   2.984  1.5544  0.3659 -1.1275
17214TIP3   OH273132   6.794   4.018  16.423 -0.3202  0.1609 -0.2407
17214TIP3    H173133   6.724   4.045  16.363 -0.5107  0.4092  0.0920
17214TIP3    H273134   6.826   3.936  16.386 -0.7979  0.0359 -0.3876
17215TIP3   OH273135   0.606   4.136   0.961  0.5131 -0.0633 -0.2114
17215TIP3    H173136   0.524   4.147   0.912  1.5606  1.6799 -1.6862
17215TIP3    H273137   0.577   4.114   1.050 -1.5474  0.0029 -0.8035
17216TIP3   OH273138   2.590   1.964   2.332 -0.6179 -0.2090 -0.1189
17216TIP3    H173139   2.557   1.883   2.295  2.0497 -0.4349 -2.3431
17216TIP3    H273140   2.652   1.997   2.266  0.5563  2.1198  1.9786
17217TIP3   OH273141   0.928   5.301  12.204  0.2469 -0.0314  0.2208
17217TIP3    H173142   0.841   5.341  12.206  1.0760  1.9375 -0.1653
17217TIP3    H273143   0.935   5.261  12.117 -0.1329  0.1566  0.1033
17218TIP3   OH273144   3.517   0.574   6.933 -0.1961 -0.1406 -0.0741
17218TIP3    H173145   3.479   0.487   6.937  1.0129 -0.7508 -1.2422
17218TIP3    H273146   3.499   0.605   6.845  0.2797  0.3601 -0.0054
17219TIP3   OH273147   5.698   5.926   2.844  0.2520  0.4226  0.0161
17219TIP3    H173148   5.755   6.002   2.838 -0.4454  0.9144 -0.4907
17219TIP3    H273149   5.684   5.913   2.938 -0.0525  1.2461  0.0894
17220TIP3   OH273150   5.866   4.380  12.807  0.3906  0.1253 -0.5890
17220TIP3    H173151   5.926   4.451  12.783 -1.2168  2.5455  1.8650
17220TIP3    H273152   5.890   4.358  12.897 -0.7177 -0.7344 -0.4827
17221TIP3   OH273153   5.164   1.602   4.643 -0.1045  0.2441 -0.7970
17221TIP3    H173154   5.200   1.560   4.565  2.3167  0.8975 -0.1178
17221TIP3    H273155   5.188   1.694   4.634 -1.6381  0.7166 -0.2596
17222TIP3   OH273156   5.329   4.073  15.674  0.5179 -0.1194 -0.3494
17222TIP3    H173157   5.359   4.118  15.596  3.3846  0.3835  0.9223
17222TIP3    H273158   5.325   4.141  15.742 -1.6621 -0.5866  0.0844
17223TIP3   OH273159   5.718   5.431  11.208  0.0789 -0.3134  0.1375
17223TIP3    H173160   5.651   5.409  11.143  3.0628 -0.4453 -3.2181
17223TIP3    H273161   5.699   5.522  11.232 -1.0556 -0.2012 -1.0546
17224TIP3   OH273162   0.692   6.747   5.403 -0.4607 -0.2883  0.6092
17224TIP3    H173163   0.629   6.788   5.343 -0.7722 -1.2727  0.2514
17224TIP3    H273164   0.743   6.687   5.348  0.2146 -0.1500  1.0636
17225TIP3   OH273165   2.708   5.012   3.659 -0.0096 -0.2379  0.1696
17225TIP3    H173166   2.694   5.056   3.743 -0.2970 -0.4392  0.2282
17225TIP3    H273167   2.796   5.039   3.633  1.8744 -3.3574  2.5162
17226TIP3   OH273168   4.582   0.944  16.338  0.0612 -0.2445 -0.7628
17226TIP3    H173169   4.491   0.915  16.344  0.3544 -0.9585  0.6205
17226TIP3    H273170   4.616   0.938  16.428  1.9772 -1.7061 -1.4985
17227TIP3   OH273171   3.450   6.545  11.021  0.1533  0.4227 -0.2606
17227TIP3    H173172   3.541   6.552  10.990 -0.0781 -1.1407 -1.4341
17227TIP3    H273173   3.399   6.530  10.942 -0.6494 -2.2892  0.6516
17228TIP3   OH273174   1.484   5.738  14.659  0.3391 -0.2714  0.2917
17228TIP3    H173175   1.463   5.812  14.602 -0.2094 -0.9603 -0.4188
17228TIP3    H273176   1.554   5.771  14.716 -1.6546  1.6654  1.7894
17229TIP3   OH273177   4.923   1.922  12.540  1.0094 -0.7401 -0.0844
17229TIP3    H173178   4.913   1.827  12.539  2.0119 -0.8786  0.8236
17229TIP3    H273179   4.954   1.944  12.452  2.2227 -1.4550  0.1339
17230TIP3   OH273180   4.608   1.133   5.558 -0.6686  0.1877 -0.0581
17230TIP3    H173181   4.673   1.204   5.559 -1.0695  0.7000 -2.5455
17230TIP3    H273182   4.661   1.054   5.542 -0.2106 -0.1810  2.8245
17231TIP3   OH273183   3.127   2.487   4.001  0.0349  0.0905  0.2018
17231TIP3    H173184   3.218   2.459   3.992  0.1879  1.1055 -2.0098
17231TIP3    H273185   3.080   2.437   3.934 -1.3066 -1.2679  2.0425
17232TIP3   OH273186   4.324   1.751   4.853  0.1848 -0.6477  0.1784
17232TIP3    H173187   4.313   1.769   4.760  1.0409  0.7359  0.3105
17232TIP3    H273188   4.296   1.832   4.896 -1.6349 -1.7817  1.2463
17233TIP3   OH273189   4.413   4.091   3.928  0.1007 -0.4757 -0.3008
17233TIP3    H173190   4.496   4.078   3.973 -0.6693  0.8467  1.6218
17233TIP3    H273191   4.373   4.004   3.926 -0.2567 -0.4641  2.5288
17234TIP3   OH273192   1.624   5.342  14.086 -0.5109  0.1716 -0.6398
17234TIP3    H173193   1.689   5.409  14.107 -0.7283  0.4512 -0.8397
17234TIP3    H273194   1.665   5.260  14.109 -0.0514  0.3416 -0.8408
17235TIP3   OH273195   1.053   0.199  12.912 -0.0614 -0.1998  0.0477
17235TIP3    H173196   0.989   0.266  12.937 -1.0434 -0.9358 -0.4581
17235TIP3    H273197   1.070   0.216  12.820  2.2958  1.4558  0.6791
17236TIP3   OH273198   2.001   3.003   0.559  0.1342 -0.0352 -0.3575
17236TIP3    H173199   2.018   3.073   0.621  0.5345 -1.3315  1.0775
17236TIP3    H273200   1.929   3.035   0.505 -0.8200  0.8299  1.3482
17237TIP3   OH273201   3.669   5.326   4.937  0.3085  0.3914 -0.4622
17237TIP3    H173202   3.746   5.365   4.896 -0.0663  2.6367  0.7780
17237TIP3    H273203   3.692   5.319   5.030 -0.0776 -1.3558 -0.4789
17238TIP3   OH273204   1.316   2.716  10.974  0.4656  0.3013 -0.0595
17238TIP3    H173205   1.330   2.748  10.885  0.4184  1.2886  0.2832
17238TIP3    H273206   1.222   2.700  10.979  0.5233 -0.1665 -0.3063
17239TIP3   OH273207   5.984   1.609   2.376 -0.4456  0.4272  0.3537
17239TIP3    H173208   6.079   1.608   2.361 -0.4914  1.0459 -0.0251
17239TIP3    H273209   5.966   1.529   2.425  0.2193  0.1222  0.1054
17240TIP3   OH273210   5.359   3.076   2.598 -0.2081  0.6464  0.4923
17240TIP3    H173211   5.281   3.043   2.554 -2.2175  0.8385  3.5900
17240TIP3    H273212   5.325   3.125   2.673  2.9123  1.2449  1.6575
17241TIP3   OH273213   3.734   5.650   2.808  0.1279  0.0630 -0.3650
17241TIP3    H173214   3.646   5.681   2.827  0.5105  0.3183  1.1741
17241TIP3    H273215   3.732   5.624   2.717 -1.9342 -1.2978  0.0153
17242TIP3   OH273216   5.798   5.141   5.640  0.9605  0.1677  0.3339
17242TIP3    H173217   5.756   5.159   5.556  2.3555  1.2170 -0.1662
17242TIP3    H273218   5.819   5.048   5.637  1.2557  0.2560 -0.5943
17243TIP3   OH273219   1.802   5.878  16.632 -0.1366 -0.0697  0.7650
17243TIP3    H173220   1.891   5.899  16.603 -0.4083  0.3322  0.2149
17243TIP3    H273221   1.811   5.793  16.676  0.5695  0.1130  0.9931
17244TIP3   OH273222   4.386   2.214   6.774 -0.1986  0.1078 -0.0552
17244TIP3    H173223   4.478   2.238   6.765 -0.1388 -0.4056 -0.9205
17244TIP3    H273224   4.385   2.118   6.772 -0.9582  0.0958 -2.7580
17245TIP3   OH273225   3.281   5.637  16.728  0.1958 -0.4099 -0.0498
17245TIP3    H173226   3.196   5.602  16.757  0.5510  0.1198  1.6925
17245TIP3    H273227   3.299   5.710  16.787  1.6775 -0.2331 -0.6759
17246TIP3   OH273228   2.673   1.193   1.994  0.3373  0.1778  0.3924
17246TIP3    H173229   2.768   1.207   1.996  0.2780  0.5097  0.9530
17246TIP3    H273230   2.649   1.179   2.085 -0.1607  0.1324  0.2543
17247TIP3   OH273231   6.687   1.550  10.672  0.4957  0.2314  0.1488
17247TIP3    H173232   6.686   1.628  10.727  2.7690 -0.0199  0.6624
17247TIP3    H273233   6.713   1.582  10.585 -1.4594  0.3912 -0.4374
17248TIP3   OH273234   4.633   2.959  12.641 -0.4953  0.7677 -0.2402
17248TIP3    H173235   4.698   2.973  12.709  0.1094 -0.7720 -0.4618
17248TIP3    H273236   4.572   2.895  12.678 -1.4629  1.6175 -0.3207
17249TIP3   OH273237   1.713   3.750   2.199 -0.7243 -0.6663  0.3400
17249TIP3    H173238   1.800   3.784   2.176 -0.7273 -0.0754  1.1237
17249TIP3    H273239   1.660   3.829   2.212 -1.6744 -1.0290 -1.1599
17250TIP3   OH273240   0.278   3.653   0.234  1.0008  0.1623  0.6273
17250TIP3    H173241   0.298   3.560   0.222  1.3583 -0.0615  2.5658
17250TIP3    H273242   0.205   3.654   0.295 -0.3149  1.1587 -0.8810
17251TIP3   OH273243   1.653   0.571   6.296 -0.1177 -0.1350 -0.0907
17251TIP3    H173244   1.722   0.505   6.290 -0.6815 -0.6991 -0.4699
17251TIP3    H273245   1.700   0.655   6.294  0.5449 -0.5048 -0.5138
17252TIP3   OH273246   5.389   0.144  13.844  0.1317 -0.8078  0.5171
17252TIP3    H173247   5.420   0.138  13.754 -0.3229 -0.3734  0.3216
17252TIP3    H273248   5.373   0.238  13.857 -0.8593 -0.9900  0.6825
17253TIP3   OH273249   0.324   4.706   4.629 -0.5406  0.0993 -0.4952
17253TIP3    H173250   0.330   4.700   4.724 -1.8780  0.8710 -0.3414
17253TIP3    H273251   0.372   4.629   4.597  3.3284  1.7999  0.6454
17254TIP3   OH273252   0.873   6.171   4.467  0.0616 -0.2463  0.2850
17254TIP3    H173253   0.828   6.160   4.551  0.7689 -0.9719  0.5946
17254TIP3    H273254   0.806   6.157   4.401 -0.9372  2.1691  0.6864
17255TIP3   OH273255   3.014   2.005   3.647 -0.1227  0.2864 -0.3931
17255TIP3    H173256   2.982   1.929   3.599  0.3509 -0.8120  0.9663
17255TIP3    H273257   3.045   1.970   3.730  0.1362  1.9693  0.2679
17256TIP3   OH273258   3.627   4.578   5.516  0.2740  0.1789 -0.1837
17256TIP3    H173259   3.682   4.576   5.594 -0.1289  1.0865  0.1422
17256TIP3    H273260   3.538   4.563   5.549  0.1955 -0.2983 -0.5857
17257TIP3   OH273261   5.944   6.075  11.168 -0.1758  0.2329 -0.2813
17257TIP3    H173262   5.981   6.130  11.098  0.4427 -2.0723 -1.8771
17257TIP3    H273263   6.020   6.033  11.208 -0.5845  0.9982  1.3841
17258TIP3   OH273264   1.432   0.910  12.356  0.3149  0.0232 -0.3397
17258TIP3    H173265   1.368   0.964  12.402  0.4830  0.9401 -1.1423
17258TIP3    H273266   1.498   0.888  12.422 -0.0911  0.2594  0.1474
17259TIP3   OH273267   5.505   6.489  16.207 -0.1239 -0.1547  0.0407
17259TIP3    H173268   5.514   6.582  16.184 -0.6021 -0.2469 -0.5386
17259TIP3    H273269   5.417   6.483  16.245 -0.5645 -0.5933 -1.0360
17260TIP3   OH273270   5.025   3.157  15.723  0.1067  0.1583  0.3029
17260TIP3    H173271   4.983   3.085  15.675 -0.7312  0.3187  0.7885
17260TIP3    H273272   5.079   3.201  15.657  0.0882 -0.4970 -0.1585
17261TIP3   OH273273   4.587   6.061   4.586 -0.4334 -0.3906 -0.5276
17261TIP3    H173274   4.536   6.009   4.524  0.5262 -0.0946 -1.6126
17261TIP3    H273275   4.562   6.152   4.567 -3.5766 -0.4006  2.6681
17262TIP3   OH273276   1.620   4.336   3.818 -1.0079  0.8233  0.2103
17262TIP3    H173277   1.638   4.296   3.733 -2.3002 -0.1939  0.4011
17262TIP3    H273278   1.654   4.274   3.882 -1.5757  0.7720  0.4691
17263TIP3   OH273279   0.302   6.612  14.055 -0.0690  0.2462 -0.8101
17263TIP3    H173280   0.306   6.518  14.068 -1.1134  0.4910  1.9025
17263TIP3    H273281   0.239   6.624  13.984  0.5767 -1.0713 -1.6509
17264TIP3   OH273282   4.311   0.859   4.722  0.3372 -0.5674 -0.3729
17264TIP3    H173283   4.282   0.939   4.679  0.7249 -1.1051 -1.6798
17264TIP3    H273284   4.269   0.861   4.808 -1.0660  0.1666 -1.0510
17265TIP3   OH273285   2.377   2.352  11.436 -0.3868 -0.6114 -0.6466
17265TIP3    H173286   2.338   2.265  11.433  0.4511 -0.9833 -1.1968
17265TIP3    H273287   2.315   2.408  11.390 -0.9568 -0.9009 -0.2481
17266TIP3   OH273288   0.086   4.172  13.777  0.1721  0.0240  0.6780
17266TIP3    H173289   0.038   4.237  13.829 -1.2804  1.1835 -1.9026
17266TIP3    H273290   0.160   4.220  13.741  1.5991 -0.9627  2.1103
17267TIP3   OH273291   0.753   1.081  13.703 -0.2271 -0.5754  0.1648
17267TIP3    H173292   0.770   1.175  13.705  1.3329 -0.7848 -1.0852
17267TIP3    H273293   0.732   1.058  13.794 -2.2168  1.2005  0.2426
17268TIP3   OH273294   0.177   6.071  17.042  0.4188 -0.1774 -0.8942
17268TIP3    H173295   0.225   6.108  17.116  1.2805  0.0248 -1.5368
17268TIP3    H273296   0.102   6.027  17.081 -0.6927  2.2706 -0.0773
17269TIP3   OH273297   1.296   1.911  11.116  0.0591 -0.3930 -0.0991
17269TIP3    H173298   1.281   1.817  11.116 -1.0782 -0.2365  0.0787
17269TIP3    H273299   1.372   1.924  11.173  1.1286 -1.3052 -1.2776
17270TIP3   OH273300   2.775   1.105   2.438 -0.0075 -0.7037 -0.2525
17270TIP3    H173301   2.866   1.076   2.435  0.3499  0.3759 -0.1718
17270TIP3    H273302   2.772   1.182   2.381 -1.0717 -1.2293 -0.9502
17271TIP3   OH273303   3.839   2.367   1.106 -0.0629 -0.7738 -0.0506
17271TIP3    H173304   3.910   2.406   1.156 -0.8035  0.0560  0.3779
17271TIP3    H273305   3.809   2.293   1.159  0.1967 -0.8696 -0.0369
17272TIP3   OH273306   1.278   4.142   2.380  0.2461  0.2984 -0.1700
17272TIP3    H173307   1.310   4.198   2.310 -0.0148 -0.8282 -1.2387
17272TIP3    H273308   1.211   4.088   2.338 -0.1243 -0.1998  1.0288
17273TIP3   OH273309   5.282   5.966   6.186  0.1015 -0.1820  0.1040
17273TIP3    H173310   5.306   5.898   6.124  3.1356  0.6253  0.1931
17273TIP3    H273311   5.288   6.048   6.136  0.0746  0.2791  0.8291
17274TIP3   OH273312   4.773   1.229  12.494 -0.0438 -0.5099 -0.0293
17274TIP3    H173313   4.751   1.154  12.550  1.0720 -0.5490  0.4034
17274TIP3    H273314   4.846   1.271  12.540  1.2164 -0.8048 -1.6817
17275TIP3   OH273315   5.517   4.822   4.593 -0.0906 -0.0191  0.1291
17275TIP3    H173316   5.500   4.730   4.615 -1.2202  0.1365 -0.0309
17275TIP3    H273317   5.483   4.871   4.668 -0.4905  0.3196 -0.2690
17276TIP3   OH273318   0.327   3.849   4.282  0.6976  0.2035 -0.7032
17276TIP3    H173319   0.343   3.943   4.276  0.4416  0.1942 -1.8830
17276TIP3    H273320   0.413   3.812   4.303  0.4251  0.8233  1.7864
17277TIP3   OH273321   4.545   6.316   5.721  0.2136 -0.4666  0.3272
17277TIP3    H173322   4.543   6.412   5.727 -2.5138 -0.4034  0.0219
17277TIP3    H273323   4.558   6.299   5.627 -1.3513 -0.2675  0.0302
17278TIP3   OH273324   1.865   5.580  17.109  0.0881  0.4657  0.5123
17278TIP3    H173325   1.912   5.564  17.027  0.4315  3.0164  0.1031
17278TIP3    H273326   1.913   5.531  17.175  0.0817 -1.2720 -0.7099
17279TIP3   OH273327   3.704   2.185  13.953 -0.5966 -0.1450 -0.2357
17279TIP3    H173328   3.759   2.168  13.876 -1.3253 -0.1532 -0.7712
17279TIP3    H273329   3.746   2.138  14.024 -0.2076 -0.5881 -0.7528
17280TIP3   OH273330   6.300   1.421   5.610  0.4645 -0.3585  0.3576
17280TIP3    H173331   6.334   1.374   5.686  0.5582  1.9976  1.8907
17280TIP3    H273332   6.205   1.421   5.622  0.4881  0.1295  0.5796
17281TIP3   OH273333   2.565   1.216  14.155 -0.0081 -0.1967 -0.2096
17281TIP3    H173334   2.491   1.250  14.105  0.1096 -1.0068 -0.9582
17281TIP3    H273335   2.547   1.122  14.164 -1.1942  0.2184  3.2852
17282TIP3   OH273336   1.955   3.826  14.981  0.2719 -0.2013  0.5992
17282TIP3    H173337   1.898   3.786  15.046 -1.1169 -0.0197 -0.4430
17282TIP3    H273338   1.906   3.818  14.899  2.0004 -0.5209 -0.4511
17283TIP3   OH273339   2.553   4.295  13.907  0.1269 -0.3703 -0.6692
17283TIP3    H173340   2.558   4.294  13.811 -0.7950 -1.7796 -0.7444
17283TIP3    H273341   2.459   4.304  13.925  0.3273  0.2051  0.1098
17284TIP3   OH273342   5.246   1.870  16.807  0.9732 -0.5233 -0.6949
17284TIP3    H173343   5.278   1.817  16.879  0.4929 -0.2079 -0.2345
17284TIP3    H273344   5.317   1.871  16.743  0.8744 -1.9599 -0.8537
17285TIP3   OH273345   3.695   0.687   3.504 -0.2302 -0.2664 -0.5592
17285TIP3    H173346   3.691   0.672   3.410  1.3171 -1.4937 -0.4772
17285TIP3    H273347   3.751   0.764   3.514  0.4653 -0.7546 -0.6232
17286TIP3   OH273348   6.266   1.865  16.149  0.2249  0.3528  0.0165
17286TIP3    H173349   6.311   1.940  16.188  0.0377  0.7318 -0.4805
17286TIP3    H273350   6.221   1.901  16.073 -0.8879 -0.0256  0.4707
17287TIP3   OH273351   0.334   3.773   2.530  0.5263 -0.4014 -0.2631
17287TIP3    H173352   0.357   3.856   2.487  0.4970 -0.8721 -1.2139
17287TIP3    H273353   0.370   3.706   2.473  1.0337 -1.0530  0.7873
17288TIP3   OH273354   4.961   1.085  16.551  0.2793  0.3088 -0.3392
17288TIP3    H173355   4.988   1.143  16.622  0.3924 -1.5262  1.2018
17288TIP3    H273356   5.039   1.032  16.533  0.2859  0.8196 -1.9565
17289TIP3   OH273357   0.615   5.425  13.993 -0.3145  0.0870 -0.0202
17289TIP3    H173358   0.587   5.334  13.989 -0.2168  0.0196  0.6883
17289TIP3    H273359   0.701   5.425  13.951  0.2067 -0.3730  1.0154
17290TIP3   OH273360   0.329   5.951   4.539  0.3809  1.1052 -0.2910
17290TIP3    H173361   0.236   5.951   4.559  0.2203  0.2526 -0.9947
17290TIP3    H273362   0.357   5.860   4.547  0.8896  1.1627 -1.2258
17291TIP3   OH273363   3.165   2.345   4.940 -0.6408 -0.4684  0.1264
17291TIP3    H173364   3.203   2.328   4.854 -0.8896  0.8805 -0.2696
17291TIP3    H273365   3.209   2.425   4.970 -1.3966 -0.2789  0.7481
17292TIP3   OH273366   5.241   0.969   4.463 -0.2389  0.3539 -0.3073
17292TIP3    H173367   5.193   0.907   4.518 -0.8149  0.5981 -0.5365
17292TIP3    H273368   5.176   1.006   4.404 -0.1131  1.9372  0.4989
17293TIP3   OH273369   3.975   1.728   0.906  0.3937 -0.0611  0.0200
17293TIP3    H173370   4.053   1.679   0.933  0.7558  0.8455  0.7062
17293TIP3    H273371   3.972   1.719   0.811  1.7592  0.4583 -0.0941
17294TIP3   OH273372   1.326   2.483  15.999  0.4805 -0.0704 -0.2681
17294TIP3    H173373   1.258   2.511  15.938  0.2399  0.3153  0.1636
17294TIP3    H273374   1.406   2.524  15.967  0.1296  1.1721  0.3644
17295TIP3   OH273375   5.068   0.729   1.544  0.3637  0.1360 -0.2588
17295TIP3    H173376   5.112   0.710   1.462  3.8487  0.9529  1.2493
17295TIP3    H273377   5.100   0.663   1.605 -1.4503  0.0947  0.7393
17296TIP3   OH273378   0.904   6.772  17.146 -0.3995  0.0791 -0.0654
17296TIP3    H173379   0.904   6.837  17.076 -1.4980 -0.3952 -0.5327
17296TIP3    H273380   0.924   6.822  17.225 -0.9505  0.9390 -0.4558
17297TIP3   OH273381   1.851   2.543   1.202 -0.3358  0.0815  0.4113
17297TIP3    H173382   1.904   2.465   1.189  0.4333  0.8875 -1.7796
17297TIP3    H273383   1.805   2.528   1.285  1.8683 -1.4551  1.4440
17298TIP3   OH273384   5.633   5.783   4.399 -0.3371 -0.1227 -0.1152
17298TIP3    H173385   5.567   5.782   4.468 -0.7875 -0.6290 -0.5427
17298TIP3    H273386   5.666   5.873   4.399 -0.8288  0.0666  0.2842
17299TIP3   OH273387   2.671   3.870   3.100  0.5744 -0.0261  0.0798
17299TIP3    H173388   2.664   3.838   3.010  0.0321 -1.2333  0.5354
17299TIP3    H273389   2.765   3.862   3.121  0.3087 -2.6336  0.6051
17300TIP3   OH273390   3.597   5.973   1.704 -0.1799  0.2884 -0.2408
17300TIP3    H173391   3.538   5.949   1.632  0.5872 -0.0603 -0.7767
17300TIP3    H273392   3.636   5.891   1.731  1.3563  0.7034 -1.0807
17301TIP3   OH273393   5.721   0.788  14.787  0.1569 -0.1387 -0.5209
17301TIP3    H173394   5.662   0.863  14.787 -0.2390 -0.3991  0.9481
17301TIP3    H273395   5.686   0.729  14.721  0.0922  0.6765 -1.2280
17302TIP3   OH273396   3.818   3.077  16.424  0.6926 -0.5495  0.2454
17302TIP3    H173397   3.780   2.989  16.424 -0.0387 -0.2677 -1.0654
17302TIP3    H273398   3.887   3.074  16.490  0.6369 -2.0887  0.2653
17303TIP3   OH273399   5.732   3.182  12.857 -0.1641  0.1859  0.1752
17303TIP3    H173400   5.732   3.241  12.782  0.5764  0.6579  0.5309
17303TIP3    H273401   5.727   3.095  12.819 -1.1181  0.4656 -0.3659
17304TIP3   OH273402   2.733   3.502  13.989  0.3228  0.2051  0.0618
17304TIP3    H173403   2.672   3.529  13.920 -0.6038  0.7074  1.0425
17304TIP3    H273404   2.820   3.521  13.954 -0.1532  0.8884 -0.7741
17305TIP3   OH273405   5.261   2.866  11.251 -0.0311 -0.0091  0.4638
17305TIP3    H173406   5.284   2.774  11.239 -0.4048  0.1655 -2.3593
17305TIP3    H273407   5.180   2.877  11.201  0.4097  2.0035  0.1154
17306TIP3   OH273408   4.928   0.737   0.812  0.1410 -0.3636 -0.4675
17306TIP3    H173409   4.918   0.761   0.720 -1.2591 -3.1703 -1.1563
17306TIP3    H273410   4.840   0.743   0.848  0.4963 -0.3111  0.4125
17307TIP3   OH273411   1.123   6.086   4.062 -0.2941 -0.2256  0.7533
17307TIP3    H173412   1.205   6.053   4.025 -0.8409 -1.4546  0.5900
17307TIP3    H273413   1.133   6.074   4.156  0.1633  0.6959  0.8253
17308TIP3   OH273414   2.034   1.014  16.025 -0.4312  0.0750 -0.6024
17308TIP3    H173415   2.005   1.104  16.011  0.6764  0.6825  0.8047
17308TIP3    H273416   1.960   0.972  16.070 -1.8246 -0.3875 -3.1393
17309TIP3   OH273417   0.137   3.059  12.356 -0.0312 -0.5292 -0.2742
17309TIP3    H173418   0.149   3.116  12.280 -0.6893 -1.1253 -0.8447
17309TIP3    H273419   0.091   2.983  12.321 -0.4164 -0.7752  0.7474
17310TIP3   OH273420   2.727   5.449   2.722  0.1628  0.5592 -0.1971
17310TIP3    H173421   2.804   5.404   2.688 -0.7041 -1.0965 -0.0480
17310TIP3    H273422   2.660   5.381   2.732 -1.2633  1.8968 -0.0931
17311TIP3   OH273423   5.503   5.368   2.113  0.4856  0.1537  0.1934
17311TIP3    H173424   5.484   5.461   2.109 -1.9855 -0.2850  0.3413
17311TIP3    H273425   5.510   5.348   2.206 -1.0713 -0.1245  0.2850
17312TIP3   OH273426   6.255   6.601  11.661 -0.0560 -0.1553 -0.9615
17312TIP3    H173427   6.263   6.637  11.749 -0.4722 -0.0911 -0.9477
17312TIP3    H273428   6.256   6.506  11.673  2.0559 -0.1963 -1.0870
17313TIP3   OH273429   3.262   1.414  14.011 -0.0450  0.3269 -0.0791
17313TIP3    H173430   3.225   1.418  13.923 -2.5492  1.0859  0.9045
17313TIP3    H273431   3.191   1.380  14.065  1.6153 -0.6671  1.5906
17314TIP3   OH273432   4.500   2.773  15.501 -0.2888 -0.4083  0.4617
17314TIP3    H173433   4.407   2.793  15.512 -1.2291 -3.9977  0.3364
17314TIP3    H273434   4.528   2.739  15.586  1.2494  1.4842  0.7823
17315TIP3   OH273435   3.228   1.140  15.062 -0.2675  0.0209  0.8768
17315TIP3    H173436   3.174   1.083  15.116 -0.9891 -0.8061 -0.6568
17315TIP3    H273437   3.173   1.216  15.043  0.3870  0.8673  2.1898
17316TIP3   OH273438   5.661   3.620   5.180  0.1984 -0.0457  0.4164
17316TIP3    H173439   5.739   3.602   5.127  0.4953  1.7868  0.1779
17316TIP3    H273440   5.643   3.537   5.223  1.3445 -0.9483 -0.7424
17317TIP3   OH273441   1.829   6.327   3.778  0.4103  0.1237  0.2759
17317TIP3    H173442   1.870   6.255   3.729  0.0595 -1.6366  2.3993
17317TIP3    H273443   1.897   6.356   3.839 -0.2604 -0.1947  1.1940
17318TIP3   OH273444   0.455   3.960  15.005 -0.0984  0.3380  0.1568
17318TIP3    H173445   0.403   3.914  14.939  0.4672  0.4781 -0.3943
17318TIP3    H273446   0.521   3.896  15.033  0.9150  0.8939 -0.8669
17319TIP3   OH273447   1.769   2.559   4.645  0.1938 -0.3683  0.1368
17319TIP3    H173448   1.782   2.527   4.556  2.7652  1.0685 -0.1104
17319TIP3    H273449   1.840   2.520   4.695  1.0596  1.7463  0.6732
17320TIP3   OH273450   2.127   4.710   1.768  0.3490 -0.3125  0.5169
17320TIP3    H173451   2.160   4.666   1.847  2.0756  0.9836  0.5827
17320TIP3    H273452   2.053   4.763   1.800  0.5057 -0.4337  1.0997
17321TIP3   OH273453   0.323   0.866   2.206 -0.2447  0.0170  0.1835
17321TIP3    H173454   0.415   0.868   2.181 -0.5300 -0.0720 -0.9150
17321TIP3    H273455   0.317   0.800   2.275  0.3609 -0.5940 -0.3514
17322TIP3   OH273456   4.687   3.355  16.202  0.1764  0.4050  0.1044
17322TIP3    H173457   4.694   3.360  16.298 -1.3333  0.7668  0.2139
17322TIP3    H273458   4.721   3.268  16.181  0.0935  0.1362  1.0257
17323TIP3   OH273459   0.602   2.469  14.866 -0.3716  0.2023  0.3261
17323TIP3    H173460   0.547   2.520  14.926 -0.7784  0.3398 -0.1532
17323TIP3    H273461   0.682   2.452  14.914  0.3203  2.4225  0.0531
17324TIP3   OH273462   0.702   4.407  12.353 -0.5510  0.1526 -0.7114
17324TIP3    H173463   0.782   4.390  12.402 -0.1567  0.7405 -1.1388
17324TIP3    H273464   0.726   4.390  12.262 -1.8452 -3.0858 -0.6002
17325TIP3   OH273465   3.911   0.089  13.586  0.2490 -0.0800 -0.0903
17325TIP3    H173466   3.994   0.088  13.632  0.3653 -1.5968 -0.2915
17325TIP3    H273467   3.845   0.074  13.654  0.3899 -1.8986 -0.3130
17326TIP3   OH273468   6.434   1.096   4.339 -0.3097  0.0235 -0.4773
17326TIP3    H173469   6.356   1.043   4.358  0.3318 -0.7958 -0.0443
17326TIP3    H273470   6.433   1.164   4.406  0.2805 -1.0392  0.6627
17327TIP3   OH273471   5.033   6.590  14.726  0.6584 -0.1845 -0.0704
17327TIP3    H173472   5.075   6.622  14.646  2.7123 -0.7375  0.7283
17327TIP3    H273473   5.091   6.522  14.758 -1.1837 -1.4031  0.8316
17328TIP3   OH273474   4.139   1.627   2.721  0.2574 -0.3535 -0.6214
17328TIP3    H173475   4.203   1.692   2.750  0.3979  0.1132 -1.9222
17328TIP3    H273476   4.180   1.543   2.738  0.4591 -0.0926  0.2201
17329TIP3   OH273477   5.957   4.704  14.754  0.2461 -0.0336  0.0798
17329TIP3    H173478   5.901   4.781  14.743  0.8856  0.4744  0.3229
17329TIP3    H273479   6.046   4.738  14.754  0.5944 -0.8786 -0.7214
17330TIP3   OH273480   5.698   3.007   3.359  0.7085 -0.4092  0.1639
17330TIP3    H173481   5.662   2.972   3.441 -4.0546 -1.2116 -1.9330
17330TIP3    H273482   5.721   2.929   3.308  1.5378  0.0165 -0.1375
17331TIP3   OH273483   0.989   2.823   4.597  0.2110  0.4002 -0.3368
17331TIP3    H173484   1.051   2.884   4.559  1.2435 -0.4807 -0.1162
17331TIP3    H273485   1.023   2.736   4.574 -0.3721 -0.1148  0.6620
17332TIP3   OH273486   0.108   4.709   0.377  0.4862 -0.9511 -0.4479
17332TIP3    H173487   0.192   4.702   0.424  0.9341  0.7437 -0.9488
17332TIP3    H273488   0.042   4.697   0.445  1.1225  1.7180  0.7784
17333TIP3   OH273489   1.274   0.313  17.134 -0.2979 -0.0396 -0.0934
17333TIP3    H173490   1.302   0.345  17.048  0.1818 -0.2389 -0.0113
17333TIP3    H273491   1.234   0.228  17.115  0.9796 -0.6861  0.0276
17334TIP3   OH273492   2.161   0.685  12.734  0.6077  0.5359 -0.5463
17334TIP3    H173493   2.172   0.708  12.642 -3.0759 -1.2441 -1.6243
17334TIP3    H273494   2.081   0.730  12.761  0.3037 -0.8496  1.0357
17335TIP3   OH273495   0.135   3.047   5.548 -0.2193  0.1509  0.1588
17335TIP3    H173496   0.057   3.098   5.528 -0.5069  0.0298  0.9388
17335TIP3    H273497   0.207   3.110   5.545 -0.2978  0.1996 -0.8835
17336TIP3   OH273498   6.038   6.518   1.395  0.4909 -0.4985  0.2833
17336TIP3    H173499   5.992   6.592   1.433  2.6025  0.8742  0.3073
17336TIP3    H273500   6.127   6.523   1.430  1.4839 -1.3788 -1.8702
17337TIP3   OH273501   2.456   4.798   4.612  0.1668  0.0561  0.3059
17337TIP3    H173502   2.532   4.808   4.669  1.8157 -1.3098 -1.5246
17337TIP3    H273503   2.456   4.706   4.586 -0.1882  0.6877 -2.2718
17338TIP3   OH273504   1.595   6.695  14.566  0.7721 -0.5237 -0.1207
17338TIP3    H173505   1.655   6.745  14.510  1.5741 -0.9504  0.3475
17338TIP3    H273506   1.642   6.685  14.649 -0.5208  0.3912  0.7813
17339TIP3   OH273507   3.503   5.095  11.240  0.5094 -0.4469  0.0985
17339TIP3    H173508   3.452   5.061  11.166 -0.6340  0.5223  0.4102
17339TIP3    H273509   3.506   5.023  11.303  1.1045 -1.1249 -0.6911
17340TIP3   OH273510   5.425   3.329   2.353  0.2428  0.3857  0.2643
17340TIP3    H173511   5.468   3.412   2.332 -0.0452  0.1397 -1.4035
17340TIP3    H273512   5.398   3.340   2.444 -0.0329  2.2452  0.0147
17341TIP3   OH273513   1.107   0.918  12.246 -0.3750 -0.3287 -0.1386
17341TIP3    H173514   1.111   0.835  12.199  0.8161 -1.5268  1.9234
17341TIP3    H273515   1.195   0.955  12.237 -0.8140  0.5743 -0.7968
17342TIP3   OH273516   4.757   3.526   1.720  0.2236 -0.0861  0.0095
17342TIP3    H173517   4.661   3.520   1.724  0.2620 -0.4359  0.5988
17342TIP3    H273518   4.783   3.454   1.662  0.2009 -0.8082  0.8718
17343TIP3   OH273519   1.839   1.128   2.849 -0.1842  0.2313  0.4085
17343TIP3    H173520   1.926   1.167   2.856 -0.1385  0.7954 -2.1516
17343TIP3    H273521   1.853   1.046   2.801 -1.0305  0.2413  0.1252
17344TIP3   OH273522   5.496   5.209  15.631  0.3768  0.1046 -0.9093
17344TIP3    H173523   5.466   5.148  15.563 -0.2285  0.8643 -1.3473
17344TIP3    H273524   5.415   5.244  15.668  0.7073 -0.0704  0.0120
17345TIP3   OH273525   1.379   2.876  11.547  0.3291  0.4715  0.1074
17345TIP3    H173526   1.290   2.841  11.556  0.2647 -0.1958 -2.4351
17345TIP3    H273527   1.436   2.802  11.567  0.3121  0.6902  0.9876
17346TIP3   OH273528   1.003   2.529  12.174 -0.1709 -0.1122 -0.3541
17346TIP3    H173529   1.007   2.511  12.080  0.6310  0.4119 -0.4319
17346TIP3    H273530   0.963   2.451  12.212 -1.5853  0.1355 -1.2512
17347TIP3   OH273531   1.982   1.565   5.266 -0.2058  0.3563  0.5467
17347TIP3    H173532   1.966   1.491   5.325 -1.0429  1.5024  1.8118
17347TIP3    H273533   1.906   1.622   5.277  1.5426  2.6629  1.5659
17348TIP3   OH273534   3.781   3.892  13.545 -0.2493 -0.7841  0.3882
17348TIP3    H173535   3.700   3.907  13.496  0.7540  0.2729 -1.0218
17348TIP3    H273536   3.758   3.912  13.636 -2.4101 -3.7242  0.6200
17349TIP3   OH273537   0.850   4.366  15.426  0.6701  0.1407  0.6842
17349TIP3    H173538   0.943   4.349  15.437  0.3011 -2.9310  0.1094
17349TIP3    H273539   0.807   4.308  15.490 -0.8455  0.0053 -0.3885
17350TIP3   OH273540   2.096   3.972  16.653  0.2079 -0.1121  0.6338
17350TIP3    H173541   2.150   3.895  16.634  1.3154  0.6686  0.5450
17350TIP3    H273542   2.088   3.972  16.748 -0.4755 -0.7782  0.5839
17351TIP3   OH273543   3.564   0.528  13.246 -0.0705  0.0693 -0.2189
17351TIP3    H173544   3.476   0.504  13.219 -0.3742 -0.9059  1.5373
17351TIP3    H273545   3.617   0.519  13.167 -1.0481 -1.9518 -0.6843
17352TIP3   OH273546   5.507   3.459  12.721  0.1653  0.6455 -0.3440
17352TIP3    H173547   5.452   3.449  12.643 -0.2681  0.8445 -0.0714
17352TIP3    H273548   5.513   3.554  12.734 -1.9417  0.6354  1.3444
17353TIP3   OH273549   0.271   5.369  15.660 -0.1225 -0.4569  0.6230
17353TIP3    H173550   0.361   5.398  15.669 -0.3134  0.4755 -0.2795
17353TIP3    H273551   0.222   5.449  15.640 -0.9919 -1.0954  0.1250
17354TIP3   OH273552   3.425   2.053  13.351 -0.5189 -0.2412 -0.1077
17354TIP3    H173553   3.445   1.978  13.294  1.8412  0.2934 -0.0769
17354TIP3    H273554   3.401   2.123  13.291  0.7065 -0.0448 -0.3887
17355TIP3   OH273555   3.551   1.509  15.768 -0.0718 -0.7928 -0.7738
17355TIP3    H173556   3.581   1.450  15.838 -1.6558  0.7019  1.3170
17355TIP3    H273557   3.458   1.489  15.759 -0.1386 -0.1520 -1.6313
17356TIP3   OH273558   4.701   3.099  11.232 -0.2466 -0.3920 -0.4372
17356TIP3    H173559   4.740   3.144  11.307 -3.0537 -0.8532  1.4567
17356TIP3    H273560   4.706   3.162  11.160  0.0596  1.1620  0.8958
17357TIP3   OH273561   0.622   5.257   1.598  0.2799  0.1395  0.2235
17357TIP3    H173562   0.673   5.203   1.537  1.7261  0.3232  1.2028
17357TIP3    H273563   0.539   5.272   1.553  0.5718 -1.2947 -0.8839
17358TIP3   OH273564   3.810   2.345  15.676  0.3929  0.0692 -0.2619
17358TIP3    H173565   3.728   2.390  15.655 -0.3856 -1.0362  0.3392
17358TIP3    H273566   3.844   2.392  15.752  0.1907  0.3766 -0.3580
17359TIP3   OH273567   6.452   5.063  13.310 -0.3211  0.2944 -0.0546
17359TIP3    H173568   6.392   4.990  13.328  1.3778 -0.9299  0.8661
17359TIP3    H273569   6.478   5.095  13.397 -3.1102  3.9267 -0.2874
17360TIP3   OH273570   3.991   5.241  16.629  0.6090  0.0550  0.3590
17360TIP3    H173571   3.995   5.337  16.631 -0.4837  0.0917  1.4139
17360TIP3    H273572   4.059   5.216  16.566 -1.7257  1.6927 -3.1218
17361TIP3   OH273573   2.974   0.485   1.910 -0.0772 -0.0803 -0.3178
17361TIP3    H173574   2.900   0.478   1.851  1.6852  0.1435 -2.7219
17361TIP3    H273575   3.032   0.413   1.884  1.2134  0.6381  0.4656
17362TIP3   OH273576   4.172   1.245   1.494 -0.4378 -0.7824 -0.4984
17362TIP3    H173577   4.178   1.339   1.473  1.5331 -1.2637 -2.5354
17362TIP3    H273578   4.150   1.243   1.587 -0.6148  1.6928 -0.4067
17363TIP3   OH273579   5.091   2.271   1.171  0.3847  0.0471 -0.4108
17363TIP3    H173580   5.112   2.178   1.169  2.1086  0.3732 -3.0095
17363TIP3    H273581   5.057   2.290   1.083 -0.3877  1.7921  0.2044
17364TIP3   OH273582   0.808   0.877   1.597  0.1437 -0.6781  0.3078
17364TIP3    H173583   0.834   0.799   1.548 -0.4203  0.3144 -1.6635
17364TIP3    H273584   0.878   0.940   1.579 -0.6173  0.0522 -0.1438
17365TIP3   OH273585   3.307   0.176   0.030 -0.5711 -0.6730  0.4354
17365TIP3    H173586   3.340   0.237   0.096  0.3862 -1.6474  0.8917
17365TIP3    H273587   3.311   0.226  -0.052 -0.6818  0.1705  0.9293
17366TIP3   OH273588   4.475   6.678   5.720  0.4388 -0.6354 -0.1226
17366TIP3    H173589   4.557   6.640   5.752  0.8478  0.2313 -0.1081
17366TIP3    H273590   4.501   6.729   5.643  0.3300  1.5776  1.2340
17367TIP3   OH273591   2.881   3.965  10.644  0.1568  0.0553 -0.1794
17367TIP3    H173592   2.895   4.035  10.707 -0.6111  0.1739 -0.1274
17367TIP3    H273593   2.864   3.887  10.698 -2.9433  0.6412 -0.1633
17368TIP3   OH273594   0.051   3.182   1.741 -0.3679  0.0894 -0.1217
17368TIP3    H173595   0.035   3.276   1.745 -0.5087  0.0749 -0.3524
17368TIP3    H273596   0.038   3.159   1.649 -0.4952 -0.1835 -0.0358
17369TIP3   OH273597   6.469   0.551   5.137  0.7946  0.5973  0.4258
17369TIP3    H173598   6.513   0.521   5.217  0.1276 -0.0144  0.5745
17369TIP3    H273599   6.494   0.643   5.130  1.1499  0.5669  1.1474
17370TIP3   OH273600   0.371   0.132   2.950  0.4693 -0.5222 -0.1779
17370TIP3    H173601   0.460   0.096   2.954  0.6498  0.0325  1.1955
17370TIP3    H273602   0.357   0.171   3.036 -0.8153  0.1070 -0.6508
17371TIP3   OH273603   4.395   0.236  15.545  0.4316  0.0821  0.3736
17371TIP3    H173604   4.407   0.278  15.630  0.0473  3.4413 -1.0531
17371TIP3    H273605   4.389   0.309  15.483  0.1390 -2.1794 -2.4917
17372TIP3   OH273606   5.590   2.188  12.255  0.2147  1.1044 -0.0225
17372TIP3    H173607   5.617   2.115  12.310 -1.5552  0.2452 -0.2179
17372TIP3    H273608   5.507   2.216  12.293 -0.7448  0.8771 -1.8672
17373TIP3   OH273609   6.532   0.186  13.097  0.3905  0.0872  0.3512
17373TIP3    H173610   6.498   0.179  13.008  1.9010  0.7083 -0.3119
17373TIP3    H273611   6.566   0.275  13.103 -1.3434  0.6733  2.1989
17374TIP3   OH273612   3.614   6.280   0.975 -0.1178 -0.2436 -0.1829
17374TIP3    H173613   3.687   6.301   1.033 -0.0445  0.4214 -0.5045
17374TIP3    H273614   3.567   6.210   1.020  0.0584  0.1097  0.5689
17375TIP3   OH273615   1.402   3.729   1.300 -0.4550 -0.3343  0.2342
17375TIP3    H173616   1.409   3.724   1.204 -1.6599  0.7327  0.0707
17375TIP3    H273617   1.314   3.695   1.319  0.3338 -2.0325  1.1311
17376TIP3   OH273618   3.275   0.964   0.379  0.2667  0.0137  0.9216
17376TIP3    H173619   3.333   1.026   0.425  1.3736 -1.6295  1.8578
17376TIP3    H273620   3.312   0.958   0.291 -1.1127  2.2186  0.1053
17377TIP3   OH273621   0.684   0.710   0.409  0.4093  0.2039  0.4067
17377TIP3    H173622   0.724   0.790   0.375  0.9963 -0.5958 -0.8451
17377TIP3    H273623   0.693   0.646   0.338 -1.7938 -0.4376  0.6117
17378TIP3   OH273624   4.334   6.464  11.336  0.6960  0.0268 -0.5751
17378TIP3    H173625   4.262   6.457  11.273  0.9540 -2.0314 -0.7186
17378TIP3    H273626   4.411   6.479  11.282  0.5901  0.8416 -0.5210
17379TIP3   OH273627   3.117   0.213  12.555  0.1164  0.1666 -0.6629
17379TIP3    H173628   3.046   0.153  12.532 -1.1075  1.2655  0.1078
17379TIP3    H273629   3.170   0.219  12.475  0.3133 -1.9443 -0.7431
17380TIP3   OH273630   4.395   5.514   4.444 -0.4128  0.0930  0.7194
17380TIP3    H173631   4.481   5.519   4.401 -1.1827 -1.8248 -1.2374
17380TIP3    H273632   4.381   5.602   4.480  2.5794  0.2993  1.6238
17381TIP3   OH273633   3.198   1.064   5.051  0.3716  0.1881  0.0840
17381TIP3    H173634   3.136   0.994   5.030  1.4504 -0.9635  0.5979
17381TIP3    H273635   3.206   1.115   4.971 -1.8676  0.8993  0.2476
17382TIP3   OH273636   2.581   5.378  17.187 -0.2142 -0.2161  0.3998
17382TIP3    H173637   2.670   5.389  17.220 -0.2857  0.0433  0.5058
17382TIP3    H273638   2.592   5.338  17.101 -0.0312 -1.0122  0.7816
17383TIP3   OH273639   0.499   1.163   5.707  0.1332  0.5942  0.0889
17383TIP3    H173640   0.480   1.191   5.797 -0.9555  2.9987 -0.7945
17383TIP3    H273641   0.415   1.134   5.673  0.4160  0.2574 -0.3278
17384TIP3   OH273642   5.984   5.537  14.435 -0.1504  0.3984  0.7341
17384TIP3    H173643   6.070   5.536  14.476 -0.5799 -1.4337  1.6995
17384TIP3    H273644   5.959   5.445  14.430 -1.3307  0.7753 -1.1183
17385TIP3   OH273645   2.109   2.366  12.278 -0.1726 -0.6004 -0.0938
17385TIP3    H173646   2.103   2.450  12.234  0.1592  0.0670  1.0851
17385TIP3    H273647   2.037   2.366  12.341 -1.3557 -2.0183 -1.3484
17386TIP3   OH273648   2.203   0.688   2.002 -0.5293 -0.1412  0.6194
17386TIP3    H173649   2.201   0.769   2.053 -0.3290  1.2286 -1.4527
17386TIP3    H273650   2.283   0.644   2.031 -0.2089  0.7938  1.1943
17387TIP3   OH273651   2.237   1.705   4.301 -0.0757  0.2668  0.3869
17387TIP3    H173652   2.161   1.733   4.251  0.4652  0.9871 -0.0474
17387TIP3    H273653   2.201   1.671   4.383 -1.0268 -1.6483 -0.7561
17388TIP3   OH273654   0.652   6.366   3.572 -0.1251  0.2906 -0.1399
17388TIP3    H173655   0.563   6.376   3.538  0.0362  1.4182 -0.2679
17388TIP3    H273656   0.640   6.344   3.664 -0.5447 -1.0062 -0.4891
17389TIP3   OH273657   2.528   1.535  15.643 -0.5540 -0.1570 -0.0116
17389TIP3    H173658   2.496   1.568  15.559  0.3652  1.5944  0.2800
17389TIP3    H273659   2.619   1.511  15.625 -0.3335  0.2826  0.4788
17390TIP3   OH273660   6.553   5.814  14.218  0.0072  0.2587  0.6450
17390TIP3    H173661   6.589   5.902  14.224  1.8574 -0.4622  0.7432
17390TIP3    H273662   6.619   5.764  14.170 -1.9071 -0.6366 -1.2282
17391TIP3   OH273663   1.096   5.649   1.680  0.0178 -0.3147 -0.3213
17391TIP3    H173664   1.117   5.578   1.620  0.5941 -0.1523 -0.3209
17391TIP3    H273665   1.002   5.663   1.670  0.0769 -0.4311 -1.0284
17392TIP3   OH273666   6.318   2.139  16.023 -0.2348 -0.1676  0.1098
17392TIP3    H173667   6.304   2.233  16.034 -0.7990 -0.0617 -1.2825
17392TIP3    H273668   6.344   2.129  15.931  1.4578 -1.2086  0.6521
17393TIP3   OH273669   0.172   1.617  14.897  0.9390  0.1829  0.0926
17393TIP3    H173670   0.252   1.641  14.944  0.2370  0.4746  1.1575
17393TIP3    H273671   0.124   1.561  14.957 -0.7692  1.9210  0.4528
17394TIP3   OH273672   4.757   3.136   3.888 -0.2417 -0.2944 -0.2094
17394TIP3    H173673   4.714   3.052   3.904 -0.6583 -0.2287 -0.9577
17394TIP3    H273674   4.843   3.127   3.928 -1.7884  0.4852  3.7629
17395TIP3   OH273675   5.978   2.777   2.009  0.2303  0.0474  0.1462
17395TIP3    H173676   6.054   2.733   2.048 -0.3667 -1.0444  0.1167
17395TIP3    H273677   5.918   2.790   2.082 -0.6318 -1.4426 -0.2596
17396TIP3   OH273678   6.591   0.246  14.118  0.6680  0.1064 -0.6316
17396TIP3    H173679   6.628   0.335  14.120 -1.1963  0.9702 -1.9849
17396TIP3    H273680   6.618   0.211  14.033  0.2710 -0.0987 -0.6735
17397TIP3   OH273681   3.199   6.680   1.131  0.2453 -0.0034  0.4509
17397TIP3    H173682   3.209   6.634   1.048  0.8634  0.4937  0.2495
17397TIP3    H273683   3.163   6.614   1.190  1.5125 -0.8726  0.2811
17398TIP3   OH273684   1.282   6.215  11.259  0.1210  0.3336  0.1626
17398TIP3    H173685   1.213   6.174  11.206 -0.8995  0.9487  0.9661
17398TIP3    H273686   1.329   6.142  11.299  0.0438 -0.1005 -0.5214
17399TIP3   OH273687   6.681   6.126  11.428  0.0550 -0.1815 -0.6345
17399TIP3    H173688   6.624   6.122  11.504 -1.1708  0.4386 -1.4949
17399TIP3    H273689   6.748   6.190  11.451 -0.0535 -0.3227  0.0813
17400TIP3   OH273690   2.934   4.814  14.037 -0.1413 -0.0246  0.0399
17400TIP3    H173691   2.915   4.819  13.943  0.5426 -2.0937 -0.2643
17400TIP3    H273692   3.022   4.850  14.045  1.7259 -3.8248 -0.9301
17401TIP3   OH273693   2.439   1.646   0.462 -0.0312 -0.2132 -0.5291
17401TIP3    H173694   2.432   1.655   0.367 -1.7670  0.2035 -0.3942
17401TIP3    H273695   2.395   1.724   0.497 -1.5284 -1.4970  0.5946
17402TIP3   OH273696   5.776   5.865  16.435  0.1904 -0.5994 -0.4021
17402TIP3    H173697   5.824   5.928  16.489 -1.0931  1.2206 -1.2560
17402TIP3    H273698   5.761   5.912  16.352  0.4691 -2.6044 -1.6558
17403TIP3   OH273699   6.306   2.993  11.636  0.0589  0.7721 -0.1298
17403TIP3    H173700   6.281   3.050  11.564  0.3900  0.7349 -0.2737
17403TIP3    H273701   6.395   3.018  11.657 -0.1600  1.0320  0.5112
17404TIP3   OH273702   1.704   1.245   0.940  0.0006 -0.4580  0.1119
17404TIP3    H173703   1.676   1.324   0.894  1.5114  0.8588  1.3350
17404TIP3    H273704   1.789   1.224   0.902 -0.0982 -1.1072  0.2469
17405TIP3   OH273705   1.260   0.881   2.136  0.5543  0.1783  0.2860
17405TIP3    H173706   1.211   0.932   2.071  0.6878  0.6916  0.5811
17405TIP3    H273707   1.238   0.790   2.117  1.4931  0.2480 -1.2173
17406TIP3   OH273708   2.382   2.517   3.262  0.6048  0.0197 -0.2688
17406TIP3    H173709   2.353   2.607   3.278  1.4031 -0.0180  1.5769
17406TIP3    H273710   2.304   2.472   3.230 -0.0146  1.1582 -0.4082
17407TIP3   OH273711   5.531   3.573   4.927  0.3347  0.0412 -0.1797
17407TIP3    H173712   5.538   3.655   4.878 -1.8629 -0.1202 -0.8400
17407TIP3    H273713   5.559   3.596   5.016 -2.0052  2.0215  0.1369
17408TIP3   OH273714   5.232   1.646   3.454 -0.2386  0.4766  0.1719
17408TIP3    H173715   5.200   1.602   3.376 -1.0792  1.8537 -0.2973
17408TIP3    H273716   5.193   1.734   3.450 -0.8623  0.3725  2.4803
17409TIP3   OH273717   3.538   0.572   6.253 -0.4384  0.0675  0.0043
17409TIP3    H173718   3.575   0.583   6.340  1.8317 -0.7041 -0.7911
17409TIP3    H273719   3.448   0.542   6.268  0.6187 -2.3730  2.1251
17410TIP3   OH273720   1.812   0.262  16.558 -0.2467  0.2892 -0.2371
17410TIP3    H173721   1.737   0.322  16.565 -0.3676  0.3461 -1.7110
17410TIP3    H273722   1.784   0.195  16.496  0.1685 -0.9104  0.8250
17411TIP3   OH273723   5.826   2.993   4.456  1.6934 -0.5991 -0.4524
17411TIP3    H173724   5.917   2.966   4.442  2.3232  0.6411  1.0450
17411TIP3    H273725   5.791   2.927   4.516  1.2568 -1.6305 -1.7689
17412TIP3   OH273726   2.807   0.893   0.679 -0.0678 -0.0497  0.3965
17412TIP3    H173727   2.903   0.884   0.679 -0.1286 -0.8763  1.4616
17412TIP3    H273728   2.784   0.905   0.772 -1.1668 -1.9050  0.4035
17413TIP3   OH273729   3.287   3.872  14.787  0.0444  0.0831 -0.2954
17413TIP3    H173730   3.207   3.862  14.839 -0.5332 -1.0024 -1.3452
17413TIP3    H273731   3.288   3.964  14.762 -0.6187  0.2183  0.1530
17414TIP3   OH273732   5.702   0.443  10.882  0.1385  0.2080 -0.1916
17414TIP3    H173733   5.632   0.381  10.899 -0.3256  0.6427 -0.4827
17414TIP3    H273734   5.769   0.392  10.835  0.4807 -0.4559  0.9749
17415TIP3   OH273735   0.501   1.077  14.240  0.1483  0.2581 -0.0911
17415TIP3    H173736   0.518   1.026  14.319 -3.0372  0.3148  0.7934
17415TIP3    H273737   0.560   1.152  14.247  1.7008 -0.9828  0.9161
17416TIP3   OH273738   1.435   2.373  12.594  0.1476 -0.2457 -0.3839
17416TIP3    H173739   1.397   2.376  12.506 -0.4400 -1.8930 -0.2141
17416TIP3    H273740   1.462   2.282  12.605  0.2397 -0.0515  1.1368
17417TIP3   OH273741   0.168   1.601  11.176 -0.0528  0.1100 -0.5582
17417TIP3    H173742   0.191   1.692  11.159  0.2450  0.2620  0.5323
17417TIP3    H273743   0.137   1.568  11.092  1.3736  0.7448 -1.3822
17418TIP3   OH273744   1.718   0.739   0.349 -0.1564  0.5080  0.3105
17418TIP3    H173745   1.655   0.690   0.403  1.6404 -0.7097  1.4097
17418TIP3    H273746   1.802   0.726   0.392  1.1952  0.4638 -2.1352
17419TIP3   OH273747   2.857   2.946  10.255  0.5680  0.1534 -0.4386
17419TIP3    H173748   2.950   2.937  10.274  0.1879  0.3215  1.7616
17419TIP3    H273749   2.841   2.886  10.182  2.6355  1.1859 -1.8527
17420TIP3   OH273750   4.574   4.930  11.432 -0.1287 -0.6100  0.3636
17420TIP3    H173751   4.590   5.001  11.370  0.2089 -0.2406  0.8694
17420TIP3    H273752   4.537   4.859  11.379 -0.7737  0.0577 -0.0941
17421TIP3   OH273753   0.237   6.069   4.952 -0.4297 -0.1628 -0.7532
17421TIP3    H173754   0.252   6.107   4.865  1.3762 -0.9892 -0.8509
17421TIP3    H273755   0.324   6.038   4.980 -1.2446 -1.2512  0.7105
17422TIP3   OH273756   5.358   4.648   0.120 -0.5288 -0.0653 -0.6245
17422TIP3    H173757   5.377   4.676   0.210 -0.7621  0.2511 -0.6713
17422TIP3    H273758   5.315   4.563   0.130  0.2559 -0.4543 -0.4827
17423TIP3   OH273759   4.263   2.058   2.641 -0.3327  0.0158  0.3465
17423TIP3    H173760   4.358   2.064   2.631 -0.2880  0.7952  1.0556
17423TIP3    H273761   4.238   2.142   2.680 -1.4790  0.3021 -0.9438
17424TIP3   OH273762   1.713   0.912   4.386 -0.0705 -0.3871  0.5208
17424TIP3    H173763   1.744   0.849   4.320  1.8933 -0.4225  1.3912
17424TIP3    H273764   1.642   0.867   4.431 -1.5282 -0.3231 -1.5960
17425TIP3   OH273765   4.759   1.961  13.653  0.3723  0.6143 -0.3411
17425TIP3    H173766   4.839   1.954  13.704  0.0806  0.0086  0.0544
17425TIP3    H273767   4.776   1.909  13.574  1.2174  2.4315 -1.4244
17426TIP3   OH273768   4.244   1.289  13.474  0.0378  0.4468  0.4026
17426TIP3    H173769   4.202   1.243  13.402 -0.2487  1.4749 -0.1151
17426TIP3    H273770   4.191   1.269  13.551 -0.3728  0.3372  0.0906
17427TIP3   OH273771   6.740   1.181  15.884  0.1714  0.6800  0.2204
17427TIP3    H173772   6.708   1.249  15.943 -1.0153  1.5088 -1.3169
17427TIP3    H273773   6.678   1.108  15.895  1.1925 -0.0252  1.5442
17428TIP3   OH273774   5.864   5.952   5.661 -0.0096  0.6836  0.7909
17428TIP3    H173775   5.886   5.865   5.628 -0.3901 -0.4699  3.3415
17428TIP3    H273776   5.936   5.974   5.720 -0.3624  1.7024  0.8644
17429TIP3   OH273777   2.385   2.381  12.609  0.0632 -0.5445 -0.5719
17429TIP3    H173778   2.354   2.336  12.530  0.2508 -1.6897 -0.0226
17429TIP3    H273779   2.480   2.383  12.599 -0.0086  1.0751 -1.2670
17430TIP3   OH273780   5.989   1.855  12.440  0.2708  0.0955 -0.1471
17430TIP3    H173781   6.074   1.826  12.409  1.6975  1.2143  2.4403
17430TIP3    H273782   5.953   1.780  12.486  0.3497 -0.0472 -0.3195
17431TIP3   OH273783   2.638   4.387   2.305 -0.0736 -0.7517  0.4736
17431TIP3    H173784   2.571   4.353   2.246  1.4351 -2.2299 -0.4717
17431TIP3    H273785   2.692   4.443   2.250 -1.2808  1.6227  1.5453
17432TIP3   OH273786   1.412   3.567  13.108  0.1861 -0.3732  0.5456
17432TIP3    H173787   1.363   3.640  13.146 -0.1220 -1.4645  2.4281
17432TIP3    H273788   1.494   3.605  13.080 -1.0789  1.2130 -1.2347
17433TIP3   OH273789   6.473   5.468   5.978  0.1339  0.7322 -0.0874
17433TIP3    H173790   6.516   5.410   5.915 -1.4045 -0.8562  0.2470
17433TIP3    H273791   6.470   5.553   5.933  1.4121  0.2918 -1.0705
17434TIP3   OH273792   4.873   0.891  14.779 -0.0641  0.2519 -0.4040
17434TIP3    H173793   4.930   0.967  14.764  0.6097 -0.5082 -1.8902
17434TIP3    H273794   4.884   0.871  14.872 -0.2392  1.9313  0.0261
17435TIP3   OH273795   3.739   3.576  16.409  0.4716 -0.1370 -0.7282
17435TIP3    H173796   3.768   3.522  16.336 -0.7014 -0.5339 -0.9149
17435TIP3    H273797   3.694   3.516  16.468  1.9774  0.0342  0.7048
17436TIP3   OH273798   2.972   4.838   5.715  0.3548  0.5102 -0.2493
17436TIP3    H173799   3.004   4.766   5.661  2.0243  1.4266 -0.5547
17436TIP3    H273800   2.880   4.817   5.732  0.1616 -0.4997 -2.2952
17437TIP3   OH273801   6.500   6.109  11.216 -0.1525  0.2752  0.5266
17437TIP3    H173802   6.583   6.155  11.231 -0.4949  0.2903  2.8706
17437TIP3    H273803   6.512   6.024  11.258 -0.4626 -0.7796 -1.4229
17438TIP3   OH273804   4.652   6.260  16.483 -0.0140 -0.7079  0.0856
17438TIP3    H173805   4.619   6.230  16.568  0.0039  2.0836  1.1636
17438TIP3    H273806   4.577   6.300  16.441  0.4484 -0.2967 -0.3595
17439TIP3   OH273807   0.501   0.155  13.841  0.2796 -0.3423  0.1298
17439TIP3    H173808   0.471   0.115  13.923 -1.0677 -0.5782 -0.4526
17439TIP3    H273809   0.537   0.082  13.790 -1.0368 -0.6229 -0.4261
17440TIP3   OH273810   6.287   1.824  11.620 -0.7577  0.1397  0.1931
17440TIP3    H173811   6.236   1.788  11.693 -1.5002  0.7203 -0.0252
17440TIP3    H273812   6.239   1.904  11.595 -0.5087 -0.0495 -0.9172
17441TIP3   OH273813   3.012   4.356  12.975 -0.0285  0.2524 -0.5088
17441TIP3    H173814   2.960   4.276  12.986  1.5371 -0.8786 -0.9930
17441TIP3    H273815   2.966   4.406  12.908 -1.6412  0.3058  0.5848
17442TIP3   OH273816   4.593   2.862  12.190  0.1127  0.6051 -0.4163
17442TIP3    H173817   4.515   2.911  12.162  0.4461  1.7785  0.5762
17442TIP3    H273818   4.664   2.896  12.136 -0.1158 -0.8251 -1.6737
17443TIP3   OH273819   5.267   2.341  15.988 -0.0540  0.1533  0.8171
17443TIP3    H173820   5.229   2.429  15.989 -0.5265 -0.0188 -0.3571
17443TIP3    H273821   5.358   2.354  16.013  0.2230  1.1741 -0.6268
17444TIP3   OH273822   0.672   3.369   4.435 -0.1328 -0.2073 -0.0794
17444TIP3    H173823   0.647   3.384   4.526  0.4742  1.6154 -0.1726
17444TIP3    H273824   0.696   3.456   4.403 -0.0623 -0.8704 -1.8992
17445TIP3   OH273825   5.372   4.633  12.679 -0.2540  0.5935  0.0371
17445TIP3    H173826   5.382   4.561  12.742 -0.9072  1.4397  1.1341
17445TIP3    H273827   5.331   4.703  12.729 -2.1343  0.8017 -1.7004
17446TIP3   OH273828   3.440   1.678   0.496  0.0423 -0.0000  0.1154
17446TIP3    H173829   3.399   1.758   0.530  0.0496 -0.4112  1.1288
17446TIP3    H273830   3.381   1.608   0.522  0.5990 -0.4376  0.2159
17447TIP3   OH273831   5.264   5.012   0.702  0.0727  0.3900 -0.0506
17447TIP3    H173832   5.280   5.087   0.760  0.3968  1.6928 -1.7570
17447TIP3    H273833   5.299   4.937   0.750  0.2563  1.3933  1.4585
17448TIP3   OH273834   1.817   2.417  14.340  0.0419 -0.2506 -0.5322
17448TIP3    H173835   1.754   2.397  14.271 -0.0836 -2.0508  0.0645
17448TIP3    H273836   1.799   2.353  14.409  0.9873  0.7003  0.6580
17449TIP3   OH273837   0.099   2.418  17.126  0.2328  0.4283 -0.1964
17449TIP3    H173838   0.085   2.512  17.122 -1.2839  0.2105 -0.3414
17449TIP3    H273839   0.130   2.395  17.038  1.2100  0.8541  0.0162
17450TIP3   OH273840   3.111   3.186  14.621  0.1613 -0.1621  0.3444
17450TIP3    H173841   3.187   3.228  14.660  0.7657 -0.8026 -0.1348
17450TIP3    H273842   3.119   3.203  14.527  0.8249 -1.9652  0.0401
17451TIP3   OH273843   1.885   1.606  16.859 -0.6401  0.2201  0.0436
17451TIP3    H173844   1.861   1.661  16.934 -1.4564  0.5887 -0.4749
17451TIP3    H273845   1.908   1.668  16.790 -1.4808 -0.0674 -0.5169
17452TIP3   OH273846   0.935   6.357  13.980 -0.6408  0.2500  0.0935
17452TIP3    H173847   0.857   6.303  13.992 -0.0478 -0.5933  0.1757
17452TIP3    H273848   0.965   6.338  13.891 -0.8926  1.0716 -0.1797
17453TIP3   OH273849   2.377   5.630  16.230 -0.1161 -1.0898  0.1569
17453TIP3    H173850   2.432   5.671  16.297  2.4416 -1.5354 -1.5280
17453TIP3    H273851   2.384   5.536  16.248 -1.2563 -1.1119  0.5624
17454TIP3   OH273852   5.146   1.676   5.641 -0.0597 -0.2162 -0.3098
17454TIP3    H173853   5.084   1.623   5.590 -0.6998  1.1218 -0.9667
17454TIP3    H273854   5.150   1.632   5.726  0.2072 -1.8864 -1.1260
17455TIP3   OH273855   6.305   0.363  15.733 -0.2622  0.4421 -0.3512
17455TIP3    H173856   6.316   0.435  15.671 -1.7123  0.2063 -0.9344
17455TIP3    H273857   6.221   0.381  15.775 -0.3351 -0.5530 -0.0417
17456TIP3   OH273858   1.896   5.594  12.238 -0.1399 -0.0505 -0.0173
17456TIP3    H173859   1.951   5.559  12.168  0.5571  1.3284 -0.1782
17456TIP3    H273860   1.808   5.594  12.201  0.3639  1.6517 -1.3280
17457TIP3   OH273861   1.130   4.124  14.650  0.0366 -0.2065  0.4467
17457TIP3    H173862   1.120   4.214  14.682 -1.6919 -1.2006  2.9926
17457TIP3    H273863   1.223   4.116  14.630  0.3634  1.9249  0.9162
17458TIP3   OH273864   0.270   6.128  13.888 -0.0535 -0.5574 -0.0267
17458TIP3    H173865   0.297   6.125  13.796 -0.1145 -0.6703 -0.0413
17458TIP3    H273866   0.310   6.050  13.927 -0.5678 -0.8696 -0.1061
17459TIP3   OH273867   5.796   5.689   1.856 -0.3209 -0.0207  0.0922
17459TIP3    H173868   5.760   5.767   1.899  0.2406  0.7994 -0.8773
17459TIP3    H273869   5.762   5.694   1.766  1.7421  0.5050 -0.7150
17460TIP3   OH273870   0.181   3.547  12.846 -0.6200  0.4744 -0.1654
17460TIP3    H173871   0.272   3.556  12.875  0.1172 -2.1062 -1.3572
17460TIP3    H273872   0.173   3.605  12.771 -0.0891  1.0243  0.1988
17461TIP3   OH273873   5.712   1.719  15.542 -0.2973  0.3911  0.3424
17461TIP3    H173874   5.685   1.651  15.480 -0.7921  0.0995  0.8628
17461TIP3    H273875   5.750   1.788  15.488  0.2662 -0.3251 -0.1930
17462TIP3   OH273876   5.056   4.989  11.025 -0.3930 -0.7269  0.0161
17462TIP3    H173877   5.126   5.014  10.965  0.9124  0.8654  2.0580
17462TIP3    H273878   4.979   5.037  10.993  0.0920 -0.4522 -0.7630
17463TIP3   OH273879   0.733   6.601  13.396 -0.0142 -0.2333 -0.2454
17463TIP3    H173880   0.664   6.580  13.458 -0.6494 -0.5845 -1.0479
17463TIP3    H273881   0.691   6.592  13.310  1.3376 -1.7425 -0.8053
17464TIP3   OH273882   3.104   1.005   3.914 -0.7589 -0.0714 -0.3924
17464TIP3    H173883   3.084   1.064   3.842 -0.2852  0.1176 -0.3714
17464TIP3    H273884   3.075   1.052   3.992  0.1209  0.3792 -0.3241
17465TIP3   OH273885   5.176   2.622  11.123  0.0522 -0.1883  0.2950
17465TIP3    H173886   5.185   2.697  11.065  1.3257 -1.9154 -1.8889
17465TIP3    H273887   5.220   2.550  11.077 -0.4025 -2.0975  2.6346
17466TIP3   OH273888   1.459   6.209  11.939 -0.4823 -0.1966 -0.0193
17466TIP3    H173889   1.514   6.183  12.013  0.1158 -0.2539 -0.4757
17466TIP3    H273890   1.518   6.256  11.881 -1.2941  1.2507  0.2739
17467TIP3   OH273891   3.493   5.855  14.195  0.0629  0.4336 -0.1589
17467TIP3    H173892   3.485   5.867  14.101  0.9745 -1.2167 -0.4908
17467TIP3    H273893   3.536   5.769  14.205  3.6771  2.2175  1.6598
17468TIP3   OH273894   3.041   0.119   0.097  1.3845 -0.6026  0.2773
17468TIP3    H173895   2.986   0.095   0.023  1.0932 -0.2552  0.3761
17468TIP3    H273896   3.131   0.108   0.066  1.2677  0.0918 -0.3055
17469TIP3   OH273897   6.825   1.310  16.680 -0.0764 -0.1933  0.4551
17469TIP3    H173898   6.875   1.357  16.614 -0.0675 -1.5022 -0.5165
17469TIP3    H273899   6.737   1.346  16.673 -0.0123 -0.1259 -0.0951
17470TIP3   OH273900   6.095   4.661  17.136  0.1840 -0.5682  0.1995
17470TIP3    H173901   6.026   4.656  17.070  0.4743 -1.1499 -0.0665
17470TIP3    H273902   6.172   4.623  17.093  0.4470 -0.6908  0.7723
17471TIP3   OH273903   3.816   3.831   1.305 -0.2751  0.3543 -0.4975
17471TIP3    H173904   3.892   3.841   1.248  0.6196  0.1007  0.6156
17471TIP3    H273905   3.800   3.737   1.308 -0.8380  0.4272 -0.9665
17472TIP3   OH273906   2.060   2.506  10.589  0.3076 -0.0558  0.0638
17472TIP3    H173907   2.003   2.456  10.648 -0.6474  0.9947  0.0558
17472TIP3    H273908   2.015   2.590  10.578  1.8744  0.8061  0.0666
17473TIP3   OH273909   5.805   1.101  15.568  1.0112  0.2296  0.3121
17473TIP3    H173910   5.760   1.020  15.593 -1.6015  1.3977 -0.2373
17473TIP3    H273911   5.764   1.127  15.485  2.4831  1.6017 -0.0390
17474TIP3   OH273912   5.725   3.374   0.071  0.2684 -0.7435 -0.2793
17474TIP3    H173913   5.750   3.282   0.075  2.2142 -0.2507  0.0897
17474TIP3    H273914   5.763   3.406  -0.011 -0.2176 -0.2201 -0.3043
17475TIP3   OH273915   1.491   1.920  17.138 -0.1439  0.4332 -0.4869
17475TIP3    H173916   1.494   1.944  17.230  0.5885  2.3473 -0.9482
17475TIP3    H273917   1.507   1.826  17.136 -1.6504  0.0951  1.4096
17476TIP3   OH273918   3.947   5.968  14.530 -0.5976  0.3916 -0.1169
17476TIP3    H173919   3.899   5.911  14.471 -1.2489 -0.7962  1.4803
17476TIP3    H273920   3.948   6.054  14.486 -1.5393 -0.2946 -1.5452
17477TIP3   OH273921   6.760   0.915   1.906 -0.0208  0.3490 -0.3789
17477TIP3    H173922   6.723   0.838   1.948  0.1059  0.3265 -0.3079
17477TIP3    H273923   6.807   0.880   1.830 -1.3995  0.5100 -1.3438
17478TIP3   OH273924   1.502   6.155   2.926 -0.1631 -0.4777  0.3660
17478TIP3    H173925   1.460   6.217   2.986 -0.4858 -0.7895  0.4639
17478TIP3    H273926   1.582   6.200   2.897 -1.4524  0.9208 -1.2848
17479TIP3   OH273927   6.394   3.115   4.110  0.3641  0.3634  0.0218
17479TIP3    H173928   6.384   3.198   4.157 -1.5440  0.9164 -1.2531
17479TIP3    H273929   6.370   3.135   4.020  0.5226 -1.4322 -0.4570
17480TIP3   OH273930   6.178   3.126   5.307  0.1296  0.2311  0.5374
17480TIP3    H173931   6.212   3.171   5.385 -1.1730  0.0357  1.2355
17480TIP3    H273932   6.092   3.095   5.332  0.4289 -1.4843 -0.3856
17481TIP3   OH273933   6.807   5.824  11.104 -0.5275 -0.5443 -0.0408
17481TIP3    H173934   6.800   5.729  11.102  2.9145 -0.9034 -0.5058
17481TIP3    H273935   6.872   5.842  11.171 -0.5830  1.4625 -0.4675
17482TIP3   OH273936   0.477   3.060   4.344 -0.2222  0.1457  0.1970
17482TIP3    H173937   0.559   3.036   4.389 -0.2410 -0.6157 -0.1472
17482TIP3    H273938   0.413   3.070   4.414  0.2119  0.9527  0.4871
17483TIP3   OH273939   2.928   5.882   2.887  0.6287  0.4521  0.7326
17483TIP3    H173940   2.925   5.788   2.871 -2.0542  0.1697  2.2950
17483TIP3    H273941   2.938   5.890   2.982 -1.9312  1.6122  0.9842
17484TIP3   OH273942   2.095   2.361   4.289  0.5238  0.0256  0.2822
17484TIP3    H173943   2.057   2.319   4.211  0.7092  0.0589  0.1734
17484TIP3    H273944   2.121   2.288   4.345 -1.5493 -0.0184  1.2793
17485TIP3   OH273945   5.477   2.942   3.777  0.7936 -0.1483  0.2127
17485TIP3    H173946   5.490   3.030   3.743 -0.1202  0.3471  1.1278
17485TIP3    H273947   5.475   2.887   3.699 -0.3851  0.8597 -0.4923
17486TIP3   OH273948   3.675   0.591   5.796  0.3477 -0.6772 -0.2835
17486TIP3    H173949   3.756   0.570   5.843  0.5013 -1.5350 -0.9041
17486TIP3    H273950   3.633   0.659   5.849  1.8007  0.2754 -0.2946
17487TIP3   OH273951   4.291   0.158  14.939  0.0179 -0.1338  0.6355
17487TIP3    H173952   4.204   0.185  14.967  0.7697  3.7696 -0.1975
17487TIP3    H273953   4.345   0.170  15.017  0.3942  1.2636  0.2026
17488TIP3   OH273954   4.496   2.957   6.226 -0.0118 -0.2252 -0.0207
17488TIP3    H173955   4.542   3.021   6.171 -2.9342  0.1846 -2.2212
17488TIP3    H273956   4.444   3.010   6.286  1.0462 -0.6751  1.3583
17489TIP3   OH273957   4.181   6.444  15.565 -0.2407  0.1566  0.4816
17489TIP3    H173958   4.206   6.372  15.624  1.1525  1.0039  0.9732
17489TIP3    H273959   4.215   6.418  15.479 -0.3809 -0.1009  0.5043
17490TIP3   OH273960   1.648   2.766  12.645  0.3946 -1.2293  0.2686
17490TIP3    H173961   1.671   2.690  12.592  0.0385 -0.3607 -1.1913
17490TIP3    H273962   1.707   2.762  12.720  1.1163 -2.3476 -0.3365
17491TIP3   OH273963   6.555   3.168   0.229 -0.2702 -0.1168 -0.2040
17491TIP3    H173964   6.611   3.107   0.276 -0.1305  0.5845  0.5563
17491TIP3    H273965   6.611   3.244   0.212 -0.4405 -0.1807 -1.1369
17492TIP3   OH273966   2.086   5.360  12.945 -0.1987  0.1821 -0.3462
17492TIP3    H173967   2.020   5.428  12.958 -0.1372  0.6136 -1.9933
17492TIP3    H273968   2.168   5.399  12.974 -0.5549 -0.1709  1.2194
17493TIP3   OH273969   2.772   1.196   4.724  0.1594 -0.4247  0.0568
17493TIP3    H173970   2.700   1.136   4.704  0.2843 -0.2113 -1.1266
17493TIP3    H273971   2.806   1.165   4.808 -0.0203 -1.7921 -0.3482
17494TIP3   OH273972   2.657   3.571   4.303 -0.2314 -0.0302 -0.3351
17494TIP3    H173973   2.669   3.623   4.383  0.6450 -0.9978  0.1951
17494TIP3    H273974   2.586   3.510   4.324 -2.1283  1.7197 -1.3899
17495TIP3   OH273975   1.813   4.841  14.250 -0.3496  0.2133  0.0041
17495TIP3    H173976   1.900   4.837  14.211 -0.1278  0.1058  0.5063
17495TIP3    H273977   1.828   4.860  14.342 -0.8614  0.2591  0.0820
17496TIP3   OH273978   3.707   5.068  13.949  0.5884  0.2166  0.1185
17496TIP3    H173979   3.668   5.119  13.878  0.7083  0.1228 -0.0142
17496TIP3    H273980   3.660   4.985  13.949  0.6571  0.1775  0.0833
17497TIP3   OH273981   1.794   2.118   3.898  0.5497  0.1962 -0.2059
17497TIP3    H173982   1.847   2.076   3.830  1.5182  0.0854  0.5963
17497TIP3    H273983   1.772   2.048   3.959 -2.4753 -0.2655 -1.6426
17498TIP3   OH273984   5.518   3.834  14.246 -0.0919  0.2463  0.3061
17498TIP3    H173985   5.524   3.752  14.198  0.8431 -0.2982  1.3106
17498TIP3    H273986   5.604   3.874  14.235 -0.1805  0.5642  0.7370
17499TIP3   OH273987   0.988   0.303   0.675 -0.5149 -0.1121 -0.6757
17499TIP3    H173988   0.928   0.364   0.633  0.9747 -0.3916 -3.3969
17499TIP3    H273989   1.039   0.358   0.735 -0.4418  0.9831 -1.7015
17500TIP3   OH273990   5.702   5.658   0.629 -0.2221  0.0358 -0.7604
17500TIP3    H173991   5.732   5.732   0.576  1.1330  0.6032  0.7287
17500TIP3    H273992   5.773   5.593   0.623 -0.5542 -0.3526 -0.5470
17501TIP3   OH273993   3.980   6.228  10.464 -0.3529  0.3075  0.2854
17501TIP3    H173994   3.917   6.299  10.461  0.4190  0.9732 -0.5352
17501TIP3    H273995   3.948   6.171  10.534 -3.0424 -0.5139 -1.4635
17502TIP3   OH273996   5.481   4.155  10.897 -0.3281  0.0803  0.3910
17502TIP3    H173997   5.496   4.070  10.940 -0.4935 -0.4904 -0.6455
17502TIP3    H273998   5.396   4.183  10.930  0.0758  0.2238  1.3376
17503TIP3   OH273999   2.941   6.378   0.190  0.2540  0.6437  0.0846
17503TIP3    H174000   2.945   6.470   0.216 -0.4496  0.4967  0.7705
17503TIP3    H274001   2.965   6.330   0.269 -1.9660  0.1837  0.5414
17504TIP3   OH274002   0.351   6.145  14.485 -0.7966  0.1226 -0.6160
17504TIP3    H174003   0.329   6.132  14.393 -0.2859  2.1848 -1.0797
17504TIP3    H274004   0.440   6.181  14.483 -0.5375 -0.3841  0.7445
17505TIP3   OH274005   5.015   5.819   2.187 -0.3341  0.0718  0.5261
17505TIP3    H174006   5.060   5.832   2.103 -0.0573 -0.2474  0.6206
17505TIP3    H274007   4.931   5.779   2.163 -0.7769  1.1080  0.3127
17506TIP3   OH274008   6.720   4.420   0.305 -0.5176  0.0362  0.3689
17506TIP3    H174009   6.705   4.515   0.308 -1.5258 -0.0115 -1.3888
17506TIP3    H274010   6.639   4.382   0.339  0.1176 -0.2290  1.6557
17507TIP3   OH274011   6.561   1.150   3.581 -0.2817 -0.6670  0.0523
17507TIP3    H174012   6.572   1.055   3.580 -0.4193 -0.9537  4.4383
17507TIP3    H274013   6.597   1.177   3.666 -3.1203  2.7431  0.3974
17508TIP3   OH274014   1.121   0.477  11.084 -0.2446 -0.1973 -0.3175
17508TIP3    H174015   1.215   0.466  11.075 -0.2490 -0.5679  0.0627
17508TIP3    H274016   1.085   0.389  11.075 -0.6814  0.1036 -1.8162
17509TIP3   OH274017   5.493   6.360   3.419 -0.2137  0.2334  0.3970
17509TIP3    H174018   5.500   6.264   3.415 -1.6380  0.0492  1.3326
17509TIP3    H274019   5.582   6.391   3.408  0.2230 -1.1901 -0.3209
17510TIP3   OH274020   0.643   4.456  11.508 -0.1479  0.2098 -0.0894
17510TIP3    H174021   0.619   4.476  11.599  0.1542  0.1140  0.0102
17510TIP3    H274022   0.734   4.428  11.512 -0.2251 -0.0881 -0.3834
17511TIP3   OH274023   1.049   6.507   5.758  0.3518  0.3035  0.4216
17511TIP3    H174024   0.986   6.543   5.820  0.0872 -0.8043  0.8364
17511TIP3    H274025   1.132   6.508   5.805  0.2275 -0.1711  0.6569
17512TIP3   OH274026   2.947   6.599  13.955 -0.3484 -0.4204  0.1516
17512TIP3    H174027   2.920   6.609  14.047 -1.8671 -0.3929 -0.2653
17512TIP3    H274028   2.989   6.682  13.933 -2.9228  0.9264 -0.0856
17513TIP3   OH274029   5.564   0.924   0.176 -0.2327  0.2313 -0.6155
17513TIP3    H174030   5.518   0.903   0.095 -0.3846 -0.9300 -0.2574
17513TIP3    H274031   5.656   0.927   0.152 -0.3422  0.6711 -0.9791
17514TIP3   OH274032   1.609   6.123   6.117 -0.2055  0.7022 -0.2741
17514TIP3    H174033   1.624   6.125   6.023  1.8804 -0.0468 -0.0131
17514TIP3    H274034   1.697   6.127   6.156 -0.9577  0.1017  1.6238
17515TIP3   OH274035   0.553   2.609   0.965  0.1520  0.0652 -0.0408
17515TIP3    H174036   0.506   2.538   1.009 -1.1628 -0.5424 -2.2666
17515TIP3    H274037   0.485   2.655   0.915  1.7628 -0.4743 -2.9195
17516TIP3   OH274038   0.368   1.512   5.718  0.0667 -0.0012  0.3862
17516TIP3    H174039   0.345   1.593   5.764  0.4124 -0.1601  0.8471
17516TIP3    H274040   0.464   1.513   5.715  0.0623 -0.2659  0.1525
17517TIP3   OH274041   4.610   0.250   1.130 -0.1257  0.0787  0.2199
17517TIP3    H174042   4.677   0.292   1.075 -0.1896  0.7628  0.6518
17517TIP3    H274043   4.612   0.158   1.103  1.4382 -0.0504  0.6437
17518TIP3   OH274044   4.525   2.103  13.544 -0.3419  0.3534 -0.0883
17518TIP3    H174045   4.605   2.049  13.543 -0.4789  0.1508 -0.1814
17518TIP3    H274046   4.458   2.046  13.507 -0.2588  0.9596 -1.1903
17519TIP3   OH274047   5.003   6.778   2.915 -0.1119  0.0102  0.1676
17519TIP3    H174048   4.949   6.786   2.837 -2.0251 -0.4572  1.3739
17519TIP3    H274049   4.940   6.779   2.988  1.6971  2.1938  1.8407
17520TIP3   OH274050   3.045   4.886   3.379  0.5387  0.2526  0.3374
17520TIP3    H174051   3.019   4.971   3.342  1.0097  0.6482  0.9023
17520TIP3    H274052   2.976   4.865   3.442 -2.4311 -2.2532 -3.2639
17521TIP3   OH274053   6.207   3.807   2.517 -0.3841  0.7314 -0.3534
17521TIP3    H174054   6.176   3.876   2.458 -0.3811  1.7344  0.7684
17521TIP3    H274055   6.286   3.843   2.556  0.3397 -0.4419 -0.6744
17522TIP3   OH274056   0.901   5.679   3.059 -0.0398  0.1058  0.7517
17522TIP3    H174057   0.935   5.707   2.974  0.2671  0.6835  1.0562
17522TIP3    H274058   0.908   5.584   3.058  0.1291  0.1208  0.2033
17523TIP3   OH274059   1.804   5.147  16.500  0.1534  0.4538 -0.1248
17523TIP3    H174060   1.766   5.104  16.577 -0.1788 -0.0778 -0.5764
17523TIP3    H274061   1.795   5.240  16.518  0.5258  0.3468  0.6956
17524TIP3   OH274062   6.550   2.262  10.740  0.0922 -0.7261 -0.3563
17524TIP3    H174063   6.530   2.201  10.811  0.9003 -0.0267  0.4910
17524TIP3    H274064   6.535   2.348  10.778 -0.7267 -0.3659 -1.4464
17525TIP3   OH274065   5.722   2.492  11.693 -0.0413  0.9037 -0.7175
17525TIP3    H174066   5.814   2.469  11.694 -0.4584 -1.2075  2.1874
17525TIP3    H274067   5.696   2.495  11.785 -3.1395  0.0910 -1.4146
17526TIP3   OH274068   6.202   6.340   1.847 -0.2321 -0.5088 -0.3193
17526TIP3    H174069   6.126   6.293   1.813 -0.0867 -0.4580 -0.7198
17526TIP3    H274070   6.176   6.433   1.843  0.6379 -0.2930 -2.5523
17527TIP3   OH274071   5.280   1.133  13.034  0.2621 -0.1377 -0.0459
17527TIP3    H174072   5.373   1.150  13.050  0.4286 -0.3656 -0.7436
17527TIP3    H274073   5.243   1.120  13.122  0.6539  1.0819  0.3195
17528TIP3   OH274074   6.679   4.437   5.992 -0.3763  0.7123  0.1374
17528TIP3    H174075   6.730   4.418   6.071 -1.1924  0.8175  0.7106
17528TIP3    H274076   6.646   4.352   5.964  0.1034  0.6459 -0.2249
17529TIP3   OH274077   2.650   0.013  12.083  0.0202  0.0754  0.2592
17529TIP3    H174078   2.683  -0.061  12.031 -0.9250 -0.4096  0.3158
17529TIP3    H274079   2.619  -0.028  12.164 -0.3541  0.5623  0.3623
17530TIP3   OH274080   2.455   0.336  10.924 -0.5801 -0.7179 -0.3476
17530TIP3    H174081   2.429   0.428  10.931 -1.2200 -0.8117 -1.2865
17530TIP3    H274082   2.451   0.317  10.831  1.3923 -1.1951 -0.3877
17531TIP3   OH274083   6.807   4.837  15.806  0.9427  0.1308  0.2356
17531TIP3    H174084   6.777   4.782  15.734  0.8459 -0.5362  0.7820
17531TIP3    H274085   6.893   4.870  15.777  0.7059  0.2326 -0.3685
17532TIP3   OH274086   5.392   0.400  12.135 -0.6311 -0.1955  0.3089
17532TIP3    H174087   5.395   0.431  12.044 -2.2225 -1.7097 -0.3218
17532TIP3    H274088   5.306   0.426  12.167  0.2366  1.0647  1.7078
17533TIP3   OH274089   5.571   4.511  14.177 -0.4704  0.3762 -0.0305
17533TIP3    H174090   5.492   4.512  14.122 -1.3854 -4.1481  0.8103
17533TIP3    H274091   5.540   4.484  14.264  1.6605  1.5423  1.1803
17534TIP3   OH274092   3.829   5.954   3.587 -0.2118 -0.1634  0.3028
17534TIP3    H174093   3.799   5.868   3.559  0.0199  0.2494 -1.3075
17534TIP3    H274094   3.769   6.016   3.545  0.2262  0.5000  0.6351
17535TIP3   OH274095   1.965   4.302   3.241  0.3876  0.0984 -0.1672
17535TIP3    H174096   1.920   4.257   3.312 -0.9056  0.1616 -0.9260
17535TIP3    H274097   2.056   4.272   3.247 -0.1433 -1.4772  0.2196
17536TIP3   OH274098   3.339   6.445   5.083 -0.6354 -0.3504 -0.5590
17536TIP3    H174099   3.431   6.436   5.060 -0.8525 -0.4938 -1.4095
17536TIP3    H274100   3.311   6.357   5.109 -1.0006 -0.7284 -2.1449
17537TIP3   OH274101   1.843   6.306  13.564  0.2767 -0.2529 -0.8118
17537TIP3    H174102   1.877   6.248  13.496 -0.4014 -1.7740  0.1074
17537TIP3    H274103   1.765   6.345  13.525 -0.1383 -1.1541 -0.9055
17538TIP3   OH274104   5.729   6.315   0.364  0.5457  0.0330  0.2399
17538TIP3    H174105   5.790   6.257   0.318  1.0882  0.9091 -0.1652
17538TIP3    H274106   5.762   6.403   0.347 -0.4075  0.4810  0.6483
17539TIP3   OH274107   3.625   5.590  14.708  0.2220  0.0304  0.4558
17539TIP3    H174108   3.530   5.590  14.707  0.2229  0.8297 -0.4832
17539TIP3    H274109   3.649   5.631  14.792 -0.2467 -0.4650  0.8357
17540TIP3   OH274110   1.268   5.941  11.345  0.2384 -0.1269 -0.5572
17540TIP3    H174111   1.360   5.923  11.362 -0.5606 -2.4560  2.1738
17540TIP3    H274112   1.241   5.872  11.284 -0.3415 -1.5899  1.2508
17541TIP3   OH274113   2.054   2.751  14.846  0.0308 -0.5770  0.1566
17541TIP3    H174114   2.029   2.690  14.777  0.2637 -1.2120  0.6277
17541TIP3    H274115   2.011   2.833  14.822 -0.5090 -0.9984 -0.3380
17542TIP3   OH274116   1.244   2.359  13.373 -0.1424  0.0568 -0.5666
17542TIP3    H174117   1.207   2.279  13.338  0.2066 -0.8336  0.9908
17542TIP3    H274118   1.174   2.396  13.427  0.3159 -0.2057  0.2227
17543TIP3   OH274119   1.070   0.964  13.508  0.4035 -0.1127 -0.3050
17543TIP3    H174120   1.090   0.960  13.415 -2.9332 -0.4927 -1.1095
17543TIP3    H274121   1.112   0.886  13.545 -0.6447 -1.5766 -2.0552
17544TIP3   OH274122   5.880   5.634  12.812 -0.7537 -0.0860  0.8149
17544TIP3    H174123   5.956   5.624  12.869  0.6885 -1.1044 -1.2035
17544TIP3    H274124   5.859   5.728  12.817  0.9973  0.3325  0.9375
17545TIP3   OH274125   2.692   4.863   2.743 -0.3472 -0.3628  0.0766
17545TIP3    H174126   2.674   4.783   2.694 -0.4408  0.3803 -1.1634
17545TIP3    H274127   2.611   4.913   2.737 -0.5034 -0.4344  1.3891
17546TIP3   OH274128   1.527   2.040  15.276 -0.2308  0.0109  0.2461
17546TIP3    H174129   1.527   2.024  15.182 -1.1328  1.6509 -0.0552
17546TIP3    H274130   1.618   2.025  15.302  0.3468  0.8986 -1.1406
17547TIP3   OH274131   6.006   5.453   4.525  0.0040  0.3124  0.1871
17547TIP3    H174132   6.087   5.504   4.521  0.4779 -0.3479  1.0020
17547TIP3    H274133   5.983   5.452   4.618  0.1952 -1.2329  0.2456
17548TIP3   OH274134   2.015   0.736   4.360 -0.4456  0.0612  0.1445
17548TIP3    H174135   2.008   0.830   4.378 -1.2527  0.0829 -0.2357
17548TIP3    H274136   1.943   0.718   4.300 -0.0542 -0.7292 -0.0987
17549TIP3   OH274137   1.050   5.125   3.233  0.1410 -0.1087  0.0725
17549TIP3    H174138   1.021   5.212   3.260 -0.7653  0.1252 -1.5468
17549TIP3    H274139   1.144   5.134   3.217 -0.0398  0.7156 -0.5777
17550TIP3   OH274140   6.716   0.503  13.511  0.1533  0.1929  0.3819
17550TIP3    H174141   6.667   0.566  13.460 -1.7843  0.0259  1.9331
17550TIP3    H274142   6.652   0.465  13.572  2.4859  1.3223  3.8627
17551TIP3   OH274143   3.957   0.433  16.059  0.1050 -0.0262  0.4506
17551TIP3    H174144   3.896   0.502  16.085  0.4734  0.0317  1.1825
17551TIP3    H274145   3.906   0.352  16.065  0.5002 -0.1670  2.5862
17552TIP3   OH274146   6.592   1.012   0.994  0.3183 -0.1256  0.1124
17552TIP3    H174147   6.629   0.943   1.049  1.1777  1.1965  1.2510
17552TIP3    H274148   6.500   1.016   1.018 -0.0873 -1.8112 -0.9981
17553TIP3   OH274149   1.892   4.643   1.998 -0.0100  0.0912 -0.0969
17553TIP3    H174150   1.863   4.593   1.921 -0.1657  1.8659 -1.2463
17553TIP3    H274151   1.828   4.621   2.066 -1.8139  0.9311 -1.4386
17554TIP3   OH274152   6.458   4.885  11.734 -0.1649 -0.5118 -0.4387
17554TIP3    H174153   6.512   4.925  11.666 -0.7969  1.8220  0.3581
17554TIP3    H274154   6.371   4.924  11.724 -0.2996 -0.1309  1.6240
17555TIP3   OH274155   6.658   3.553   2.578  0.3899  0.2562 -0.6414
17555TIP3    H174156   6.696   3.467   2.560  1.8933  0.4525  1.3141
17555TIP3    H274157   6.719   3.615   2.537  0.1417  0.4636 -0.7044
17556TIP3   OH274158   4.398   3.259   6.284 -0.3066  0.3166  0.2693
17556TIP3    H174159   4.417   3.246   6.376 -3.7603  0.4214  1.1452
17556TIP3    H274160   4.391   3.354   6.274 -0.5002  0.2799  0.0427
17557TIP3   OH274161   0.111   6.275  15.162  0.1625  0.7196  0.3294
17557TIP3    H174162   0.107   6.365  15.196  0.2673  1.2473 -1.0036
17557TIP3    H274163   0.105   6.285  15.067  1.2364 -0.6227  0.0967
17558TIP3   OH274164   0.432   4.700  11.896 -0.1861  0.1807  0.3081
17558TIP3    H174165   0.482   4.707  11.977 -0.1759  2.3388  0.1832
17558TIP3    H274166   0.356   4.757  11.910  0.4409  1.5967 -1.5946
17559TIP3   OH274167   0.602   3.637   2.166 -0.0380  0.0702 -0.2580
17559TIP3    H174168   0.691   3.655   2.136 -0.8865  1.7052 -2.0100
17559TIP3    H274169   0.556   3.604   2.089 -0.6583 -2.0687  0.9513
17560TIP3   OH274170   5.845   2.176   3.567  0.0065 -0.1089  0.0603
17560TIP3    H174171   5.901   2.246   3.598 -2.0063  1.2458  0.8649
17560TIP3    H274172   5.820   2.202   3.478 -0.0379 -0.2420  0.0335
17561TIP3   OH274173   0.732   4.670  11.783  0.2772 -0.0333 -0.4703
17561TIP3    H174174   0.642   4.647  11.762 -0.7961  1.8632  1.6269
17561TIP3    H274175   0.748   4.752  11.736  1.0713 -0.5566 -1.1393
17562TIP3   OH274176   1.427   1.735   3.829 -0.1262 -0.4122 -0.2699
17562TIP3    H174177   1.495   1.799   3.808 -0.4292  0.7263  1.9375
17562TIP3    H274178   1.423   1.679   3.751 -0.0634  2.3792 -2.4652
17563TIP3   OH274179   5.447   4.887   3.807 -0.6895  0.0665  0.2084
17563TIP3    H174180   5.381   4.849   3.866 -1.3177 -0.9914 -1.1254
17563TIP3    H274181   5.494   4.950   3.862 -1.2686 -0.8392  1.8338
17564TIP3   OH274182   6.790   5.670   2.948  0.0371  0.1074  0.2272
17564TIP3    H174183   6.723   5.676   2.880 -1.1193 -0.0757  1.3132
17564TIP3    H274184   6.768   5.739   3.010  1.2399  0.4540  0.2929
17565TIP3   OH274185   5.731   2.520   0.487 -0.0376 -0.4533 -0.2799
17565TIP3    H174186   5.714   2.594   0.429  0.4214 -0.4875 -0.4615
17565TIP3    H274187   5.822   2.497   0.470 -0.5944 -2.0386 -1.3883
17566TIP3   OH274188   4.707   3.087   4.745  0.0192 -0.0119 -0.3105
17566TIP3    H174189   4.656   3.047   4.675  0.2982  2.1207 -1.8169
17566TIP3    H274190   4.709   3.180   4.724  1.9574  0.4037  1.3523
17567TIP3   OH274191   5.007   5.827   0.063 -0.2088 -0.0323  0.5732
17567TIP3    H174192   5.067   5.779   0.120  0.5582  0.3588  0.1096
17567TIP3    H274193   4.930   5.843   0.117  1.5389  2.7665  2.5100
17568TIP3   OH274194   5.123   3.520  11.485  0.2647  0.0298 -0.4546
17568TIP3    H174195   5.097   3.470  11.408 -0.0504  0.9619 -0.9655
17568TIP3    H274196   5.177   3.459  11.536 -2.6874 -1.9217  0.5607
17569TIP3   OH274197   6.032   3.912  12.925 -0.6053 -0.3711 -0.1222
17569TIP3    H174198   5.988   3.828  12.938  0.1239 -0.9397 -1.1475
17569TIP3    H274199   6.044   3.918  12.830 -0.6137  0.8807 -0.0580
17570TIP3   OH274200   6.077   5.238   0.080 -0.0878 -0.8740  0.2172
17570TIP3    H174201   6.125   5.315   0.050 -2.1802  0.9967  1.3605
17570TIP3    H274202   6.051   5.193  -0.000  1.2257 -0.4909 -0.4659
17571TIP3   OH274203   1.575   5.543   5.282 -0.3725  0.3939 -0.5004
17571TIP3    H174204   1.539   5.478   5.342  0.9100  0.0928 -0.0269
17571TIP3    H274205   1.607   5.613   5.338  1.4409 -0.1884 -0.7453
17572TIP3   OH274206   2.371   3.709  13.674 -0.8861 -0.1926 -0.0462
17572TIP3    H174207   2.331   3.794  13.685 -0.1955  0.0364  0.7897
17572TIP3    H274208   2.405   3.710  13.584  0.0371  0.8281  0.2887
17573TIP3   OH274209   6.396   4.438   2.420  0.3767  0.3712 -0.6383
17573TIP3    H174210   6.318   4.430   2.366 -0.1834  0.3169  0.1590
17573TIP3    H274211   6.382   4.378   2.493  2.6628 -2.2593 -2.1639
17574TIP3   OH274212   0.812   5.290  15.977 -0.0544  0.5116  0.1155
17574TIP3    H174213   0.878   5.267  16.042 -1.0716  0.2137  1.0803
17574TIP3    H274214   0.795   5.383  15.992  0.1678  0.5973 -0.1574
17575TIP3   OH274215   2.952   0.666  10.897 -0.2065 -0.5326  0.3749
17575TIP3    H174216   2.867   0.621  10.892 -0.8928  0.7694 -0.0214
17575TIP3    H274217   3.006   0.608  10.951 -0.9828 -1.9382 -0.2967
17576TIP3   OH274218   5.951   4.575   4.872 -0.3725 -0.3895 -0.4387
17576TIP3    H174219   5.974   4.525   4.794 -0.1315 -2.0666  0.6540
17576TIP3    H274220   6.011   4.649   4.871 -0.9185  0.0883 -2.2494
17577TIP3   OH274221   0.701   6.431  14.811 -0.3784 -0.4867  0.1703
17577TIP3    H174222   0.694   6.521  14.842 -0.1598 -0.6696  0.7776
17577TIP3    H274223   0.728   6.381  14.888  2.3918 -0.6297 -0.7792
17578TIP3   OH274224   1.250   5.309   4.134  0.0465  0.3054  0.0757
17578TIP3    H174225   1.288   5.392   4.163  1.1331 -0.3012  0.4616
17578TIP3    H274226   1.201   5.331   4.056 -0.7856  1.5394  0.9085
17579TIP3   OH274227   2.266   2.222  12.431  0.5115  0.8298 -0.5088
17579TIP3    H174228   2.207   2.275  12.378 -2.6220 -0.2347  1.6612
17579TIP3    H274229   2.228   2.134  12.429  1.5937  0.2502  1.5745
17580TIP3   OH274230   5.207   4.638   3.429 -0.4241  0.1239 -0.1215
17580TIP3    H174231   5.240   4.718   3.387 -0.1845  0.6529  1.0288
17580TIP3    H274232   5.146   4.602   3.366  0.2544  0.6497 -1.1109
17581TIP3   OH274233   1.634   4.557   0.306  0.6569 -0.3224  0.7609
17581TIP3    H174234   1.673   4.585   0.389 -1.1621  0.0270  1.5439
17581TIP3    H274235   1.550   4.518   0.331  0.1193 -0.2978 -0.9166
17582TIP3   OH274236   0.461   0.489  11.677  0.4278  0.8824  0.4427
17582TIP3    H174237   0.373   0.488  11.717 -0.0495  2.1079 -0.5181
17582TIP3    H274238   0.514   0.541  11.738  0.4683  0.2367  0.9685
17583TIP3   OH274239   2.905   3.227  10.288 -0.0918 -0.4456  0.3868
17583TIP3    H174240   2.893   3.135  10.265 -0.1227 -0.2690 -0.3309
17583TIP3    H274241   2.859   3.237  10.372  0.9090 -1.3477  1.0634
17584TIP3   OH274242   0.951   2.294  14.076 -0.3041 -0.3436  0.5540
17584TIP3    H174243   0.855   2.290  14.082 -0.4024  1.6534  0.8174
17584TIP3    H274244   0.980   2.312  14.166  0.0029  2.9704 -0.0996
17585TIP3   OH274245   0.441   5.745   5.361  0.1613 -0.1939  0.7848
17585TIP3    H174246   0.493   5.665   5.366  1.2753  0.4565  0.1686
17585TIP3    H274247   0.371   5.734   5.426  0.3597 -1.6048  0.7735
17586TIP3   OH274248   4.186   4.434  13.924  0.0835  0.3580  0.0018
17586TIP3    H174249   4.118   4.371  13.900  0.9920 -0.3132 -0.8576
17586TIP3    H274250   4.182   4.502  13.856 -1.0754  1.4064  1.0714
17587TIP3   OH274251   3.001   5.759  15.704  0.3981  0.7636 -0.4740
17587TIP3    H174252   2.963   5.817  15.770  0.9979  0.7631 -0.1228
17587TIP3    H274253   3.066   5.813  15.658 -1.4449  1.4110 -2.4912
17588TIP3   OH274254   5.957   2.218   1.666  0.0183 -0.2429  0.1802
17588TIP3    H174255   5.961   2.140   1.721  1.3672  0.6406  1.4196
17588TIP3    H274256   5.967   2.291   1.727 -1.5297  0.9465 -0.9023
17589TIP3   OH274257   1.809   3.296   3.033  0.0641 -0.1390 -0.1486
17589TIP3    H174258   1.720   3.261   3.041 -0.6284  1.4691 -0.3818
17589TIP3    H274259   1.839   3.307   3.123 -1.6241  3.1353  0.1905
17590TIP3   OH274260   2.534   1.342   3.023 -0.3930  0.5569 -0.3877
17590TIP3    H174261   2.609   1.385   2.981  1.6576 -0.6257  1.8572
17590TIP3    H274262   2.521   1.391   3.104  0.5516 -1.5705  1.1389
17591TIP3   OH274263   5.419   0.717  16.085 -0.1388 -0.0958  0.2502
17591TIP3    H174264   5.332   0.685  16.109 -0.5702  0.8303 -0.0121
17591TIP3    H274265   5.447   0.768  16.160  1.4150 -2.6216  1.5246
17592TIP3   OH274266   0.930   4.449   1.572 -0.1973  0.6393  0.0372
17592TIP3    H174267   0.950   4.473   1.481 -0.8928  0.6961 -0.1123
17592TIP3    H274268   0.972   4.517   1.625  1.4507 -0.1928 -0.1540
17593TIP3   OH274269   2.168   5.020   5.111  0.7620  0.1733 -0.2266
17593TIP3    H174270   2.225   5.031   5.034  3.3071 -0.7478  1.3741
17593TIP3    H274271   2.145   5.109   5.137  4.0311  0.8556  0.7592
17594TIP3   OH274272   5.635   6.003   5.287  0.2562  0.5223  0.0949
17594TIP3    H174273   5.572   6.074   5.272 -0.8172 -0.5416 -0.6295
17594TIP3    H274274   5.634   5.952   5.206 -0.3958 -1.3712  1.2133
17595TIP3   OH274275   5.961   0.682   4.842  0.4665 -0.0514  0.5262
17595TIP3    H174276   5.965   0.675   4.938 -1.8330  1.5399  0.8473
17595TIP3    H274277   5.873   0.651   4.820  0.7992  0.0487 -1.0135
17596TIP3   OH274278   2.706   6.047   5.938  0.2522  0.1015 -0.5307
17596TIP3    H174279   2.774   5.985   5.909 -0.1182 -1.7621  2.1890
17596TIP3    H274280   2.694   6.026   6.030 -3.0247  1.3586 -0.5734
17597TIP3   OH274281   2.580   4.375  14.231 -0.7368 -0.1550  0.1133
17597TIP3    H174282   2.601   4.332  14.148 -1.9144  2.2304 -1.5536
17597TIP3    H274283   2.663   4.381  14.277  0.2709 -0.1587 -1.6260
17598TIP3   OH274284   3.534   1.289   0.581 -0.1992 -0.2597  0.3323
17598TIP3    H174285   3.582   1.211   0.610 -1.5331 -1.5234 -0.6456
17598TIP3    H274286   3.510   1.334   0.661  0.0508 -1.2176  0.9655
17599TIP3   OH274287   3.327   3.254  11.547 -0.1322 -0.3644 -0.5800
17599TIP3    H174288   3.398   3.275  11.608 -2.3565 -0.2309  2.1799
17599TIP3    H274289   3.315   3.334  11.496 -0.8767  1.1465  1.7692
17600TIP3   OH274290   0.255   0.643  13.764 -0.1743  0.2948 -0.2436
17600TIP3    H174291   0.174   0.676  13.724 -0.7866 -0.7856  0.0398
17600TIP3    H274292   0.323   0.703  13.735 -1.1520  1.4891 -0.1173
17601TIP3   OH274293   0.170   5.398   3.210 -0.7131  0.3894  0.2502
17601TIP3    H174294   0.207   5.483   3.187  0.4117 -0.3583 -0.7863
17601TIP3    H274295   0.119   5.372   3.133  0.3412 -0.6166 -0.1482
17602TIP3   OH274296   3.586   1.672   0.233  0.2155  0.1734 -0.3955
17602TIP3    H174297   3.543   1.700   0.314 -0.4833 -0.1694 -0.6361
17602TIP3    H274298   3.588   1.577   0.238  0.6944  0.1774 -0.5172
17603TIP3   OH274299   5.900   2.703   1.414 -0.8096  0.1613 -0.0295
17603TIP3    H174300   5.899   2.798   1.404 -0.2450 -0.0312 -2.9750
17603TIP3    H274301   5.993   2.682   1.427 -1.1733  0.0956  3.2032
17604TIP3   OH274302   0.155   6.805   5.856  0.2986 -0.2732  0.4552
17604TIP3    H174303   0.163   6.709   5.858  1.6565 -0.1946 -0.1265
17604TIP3    H274304   0.193   6.830   5.772  0.9930  0.8563  1.0946
17605TIP3   OH274305   2.669   0.173  12.562  0.3523  0.2676  0.4129
17605TIP3    H174306   2.744   0.125  12.595  0.7868 -0.2349 -1.2303
17605TIP3    H274307   2.628   0.114  12.499 -2.0441  0.1175  1.9809
17606TIP3   OH274308   1.155   5.211   0.273 -0.3171 -0.2337  0.5259
17606TIP3    H174309   1.075   5.162   0.256  0.4755 -1.1268 -0.8782
17606TIP3    H274310   1.204   5.155   0.334  0.5782 -1.2581 -1.0602
17607TIP3   OH274311   0.017   4.270  10.263  0.1158  0.3770  0.7215
17607TIP3    H174312   0.090   4.331  10.270  0.9398 -0.4334 -0.5149
17607TIP3    H274313  -0.060   4.322  10.288  0.2577  2.9950 -3.3333
17608TIP3   OH274314   1.549   0.876  13.829  0.2690  0.5250 -0.2396
17608TIP3    H174315   1.487   0.939  13.864  1.1173 -0.6862  4.0947
17608TIP3    H274316   1.513   0.791  13.853  0.2065 -0.7291 -4.0474
17609TIP3   OH274317   3.724   5.260  15.343  0.2141  0.0796 -0.6038
17609TIP3    H174318   3.693   5.243  15.432  1.0790 -1.6915 -0.5911
17609TIP3    H274319   3.782   5.335  15.351  2.1886 -1.4945  0.8133
17610TIP3   OH274320   0.542   1.506   3.657 -0.3541 -0.8092  0.1389
17610TIP3    H174321   0.519   1.594   3.687  0.9379 -1.3695  3.1447
17610TIP3    H274322   0.637   1.509   3.644 -0.4297 -1.5276 -0.6786
17611TIP3   OH274323   1.186   1.606   3.142 -0.1727 -0.8933  0.7349
17611TIP3    H174324   1.106   1.620   3.092  1.0659  0.1568 -1.0823
17611TIP3    H274325   1.189   1.512   3.157 -0.5336 -1.2963 -1.3941
17612TIP3   OH274326   3.099   4.573   3.739  0.5640  0.4452 -0.5573
17612TIP3    H174327   3.114   4.502   3.801 -1.4207  0.5510  0.0894
17612TIP3    H274328   3.113   4.532   3.653 -0.0538 -0.5963 -0.1802
17613TIP3   OH274329   6.224   4.745  15.679 -0.4451  0.1258  0.6678
17613TIP3    H174330   6.227   4.650  15.666  1.0352 -0.0360  1.8922
17613TIP3    H274331   6.130   4.767  15.675 -0.6364 -0.8571 -2.8087
17614TIP3   OH274332   2.908   2.320  11.737 -0.3087 -0.0051 -0.1795
17614TIP3    H174333   2.883   2.386  11.802  0.7197  0.6249 -0.3968
17614TIP3    H274334   3.002   2.333  11.725  0.1041 -2.0866  0.4002
17615TIP3   OH274335   1.031   0.491  16.287 -0.2439 -0.6385  0.4494
17615TIP3    H174336   0.960   0.529  16.339 -0.7520 -1.0728  0.0742
17615TIP3    H274337   0.987   0.441  16.218  0.4108 -1.5264  0.6548
17616TIP3   OH274338   0.187   5.808   3.461  0.3687  0.2573 -0.4339
17616TIP3    H174339   0.221   5.747   3.526  1.3292  4.3082  3.3754
17616TIP3    H274340   0.264   5.845   3.419 -0.1399 -0.3364 -1.9568
17617TIP3   OH274341   0.999   1.882  12.295  0.2884  0.3774 -0.2226
17617TIP3    H174342   1.061   1.819  12.259  0.9144  0.7230  0.2226
17617TIP3    H274343   0.936   1.829  12.344  2.3124  0.1743  2.4409
17618TIP3   OH274344   4.206   5.219   2.841  0.0748  0.2884  0.3208
17618TIP3    H174345   4.221   5.197   2.749  1.9390 -0.2715  0.6943
17618TIP3    H274346   4.121   5.181   2.861 -0.1869  0.0733 -1.0724
17619TIP3   OH274347   5.631   4.827   2.156 -0.3426 -1.2654  0.5484
17619TIP3    H174348   5.590   4.816   2.070  0.6399 -1.0041  0.0363
17619TIP3    H274349   5.559   4.853   2.213 -0.8326 -0.4265 -0.4108
17620TIP3   OH274350   0.712   1.943   1.851  0.4100 -0.0901  0.6072
17620TIP3    H174351   0.679   2.001   1.783  0.1339  0.5662  1.2873
17620TIP3    H274352   0.693   1.855   1.818  0.8629  0.1903 -0.4463
17621TIP3   OH274353   1.894   6.175  11.975 -0.0385 -0.7033  0.2023
17621TIP3    H174354   1.977   6.175  11.927  1.1546  4.6540  1.5892
17621TIP3    H274355   1.830   6.212  11.913 -0.2231 -0.3858  0.5790
17622TIP3   OH274356   4.724   3.263  11.028 -0.3615  0.1703 -0.3696
17622TIP3    H174357   4.815   3.270  10.999  0.0087 -0.5088  0.5590
17622TIP3    H274358   4.675   3.246  10.948  0.4080 -0.0025 -0.8220
17623TIP3   OH274359   2.672   4.207   3.959  0.0121  0.1825  0.0857
17623TIP3    H174360   2.690   4.129   4.010 -0.0163  0.8480  1.1401
17623TIP3    H274361   2.752   4.221   3.907 -0.2841 -0.9764 -0.7185
17624TIP3   OH274362   0.363   2.466  12.351  0.0046 -0.3559 -0.1224
17624TIP3    H174363   0.440   2.453  12.295 -0.0084 -0.1151 -0.1947
17624TIP3    H274364   0.332   2.553  12.329  0.2559 -0.0867  0.5798
17625TIP3   OH274365   2.263   4.966   6.746 -0.6313  0.2478  1.0051
17625TIP3    H174366   2.304   4.879   6.750 -0.0790  0.4305 -0.3096
17625TIP3    H274367   2.295   5.004   6.665 -2.3433  0.9602  0.6194
17626TIP3   OH274368   5.075   1.991  11.632 -0.5634 -0.0209 -0.8995
17626TIP3    H174369   5.094   1.905  11.595  0.2665 -0.0239 -0.4918
17626TIP3    H274370   4.980   2.002  11.622 -0.4811 -0.3662 -2.2738
17627TIP3   OH274371   2.863   4.633   2.858  0.2355 -0.2944 -0.9067
17627TIP3    H174372   2.852   4.611   2.950 -0.0878 -2.3952 -1.4070
17627TIP3    H274373   2.805   4.709   2.845 -0.8496 -0.8735  0.3032
17628TIP3   OH274374   3.311   5.870   1.921  0.3440  0.0092  0.9560
17628TIP3    H174375   3.220   5.891   1.900  0.6991 -0.8374 -1.8668
17628TIP3    H274376   3.357   5.954   1.914  0.5294 -0.2474 -2.7734
17629TIP3   OH274377   1.553   1.538  16.397  0.1340 -0.1602  0.4304
17629TIP3    H174378   1.503   1.539  16.479  1.0496  2.6280  1.0586
17629TIP3    H274379   1.507   1.600  16.340  1.3026  0.3523  0.0093
17630TIP3   OH274380   2.642   3.588   2.165 -0.5071  0.3606  0.1188
17630TIP3    H174381   2.610   3.678   2.158 -2.0574 -0.1669  0.1858
17630TIP3    H274382   2.720   3.586   2.110 -2.1256  1.0004 -2.3216
17631TIP3   OH274383   6.449   3.102  16.673  0.4786 -0.5835  0.1814
17631TIP3    H174384   6.425   3.079  16.763 -1.5342 -1.1991 -0.4780
17631TIP3    H274385   6.411   3.188  16.659  0.8953 -0.4349 -0.0681
17632TIP3   OH274386   3.217   0.374   3.927  0.4823 -0.9502 -0.6228
17632TIP3    H174387   3.216   0.440   3.996 -1.1407 -0.7135 -0.8337
17632TIP3    H274388   3.158   0.305   3.959 -0.5559 -0.6859 -1.8923
17633TIP3   OH274389   0.530   6.512  11.302 -0.1328  0.1914  0.0095
17633TIP3    H174390   0.473   6.454  11.251  1.6903  0.3821 -2.4043
17633TIP3    H274391   0.517   6.484  11.393 -1.5471 -1.9754 -0.7799
17634TIP3   OH274392   4.691   5.148   4.867 -0.1242 -0.4111  0.0755
17634TIP3    H174393   4.680   5.165   4.960 -1.6698  2.4089 -0.4879
17634TIP3    H274394   4.604   5.121   4.837  0.1473 -0.4780 -0.6827
17635TIP3   OH274395   4.967   4.822   2.265 -0.1952 -0.2462 -0.5216
17635TIP3    H174396   5.023   4.754   2.229  0.0751  0.2353 -1.0355
17635TIP3    H274397   4.878   4.790   2.251 -0.0644 -0.7379 -0.2578
17636TIP3   OH274398   1.597   4.142   0.865  0.1816  0.0736 -0.2405
17636TIP3    H174399   1.512   4.099   0.867  0.9574 -1.5231  1.0225
17636TIP3    H274400   1.607   4.179   0.953 -0.4447  2.9305 -1.2822
17637TIP3   OH274401   0.819   2.609  15.181 -0.5038 -0.7293 -0.8249
17637TIP3    H174402   0.840   2.685  15.126 -1.0960 -0.6363 -0.9281
17637TIP3    H274403   0.831   2.640  15.271  0.4007 -0.8617 -0.8928
17638TIP3   OH274404   1.419   6.455   1.334 -0.3572 -0.5410  0.1051
17638TIP3    H174405   1.444   6.398   1.406 -0.5422 -0.2062  0.4383
17638TIP3    H274406   1.381   6.532   1.376  0.0778 -0.0789 -0.3342
17639TIP3   OH274407   3.585   0.270  14.331  0.5018  0.3349 -0.1979
17639TIP3    H174408   3.540   0.323  14.397  0.2338  1.8675 -1.5439
17639TIP3    H274409   3.674   0.302  14.330  1.0491 -1.0439  0.7529
17640TIP3   OH274410   4.166   5.170   2.000 -0.2426  0.3571  0.0545
17640TIP3    H174411   4.241   5.215   1.961 -0.1284 -1.1249 -1.5942
17640TIP3    H274412   4.204   5.111   2.064 -0.2519  1.3763  1.0256
17641TIP3   OH274413   5.743   3.711  16.494  0.7460 -0.3997  0.0788
17641TIP3    H174414   5.722   3.796  16.532  0.7174 -0.1510 -0.4834
17641TIP3    H274415   5.660   3.663  16.493 -0.2287  1.0555 -3.3625
17642TIP3   OH274416   4.817   1.470   0.520  0.5618  0.1567 -0.0162
17642TIP3    H174417   4.844   1.481   0.611 -1.2340 -0.1115  0.5903
17642TIP3    H274418   4.865   1.393   0.490  2.4776  1.2252  0.1220
17643TIP3   OH274419   6.746   3.607   4.267  0.0402  0.3520  0.6894
17643TIP3    H174420   6.761   3.642   4.354 -2.4306  0.8055  0.9986
17643TIP3    H274421   6.698   3.526   4.281  0.5531 -0.1340 -0.2301
17644TIP3   OH274422   4.550   1.456  15.534 -0.2479  0.4982  0.4398
17644TIP3    H174423   4.567   1.477  15.625 -0.9559  0.9685  0.4667
17644TIP3    H274424   4.584   1.532  15.485  0.7549 -0.0533  0.2549
17645TIP3   OH274425   3.875   6.264   3.549  0.0450  0.4568 -0.2102
17645TIP3    H174426   3.833   6.240   3.467 -0.0350  0.9421 -0.3165
17645TIP3    H274427   3.968   6.270   3.527  0.4534 -2.3702  0.4271
17646TIP3   OH274428   1.958   1.885   4.501  0.1587  0.1394  0.0818
17646TIP3    H174429   2.025   1.817   4.508 -0.7306 -0.8533 -0.6980
17646TIP3    H274430   1.971   1.939   4.579  0.9657 -0.8396  0.6583
17647TIP3   OH274431   6.271   5.419   3.137  0.6973 -0.3991 -0.4233
17647TIP3    H174432   6.358   5.456   3.127  0.9137 -0.8690 -0.2853
17647TIP3    H274433   6.247   5.390   3.049  0.1010  0.9870 -0.7456
17648TIP3   OH274434   5.660   5.392   1.852 -0.5693  0.3404  0.1048
17648TIP3    H174435   5.692   5.467   1.903 -1.4206  0.3268  0.6872
17648TIP3    H274436   5.698   5.316   1.896 -2.1607  0.2567  1.4393
17649TIP3   OH274437   3.576   3.684   3.946  0.1947  0.3929  0.1314
17649TIP3    H174438   3.568   3.777   3.926  0.5891  0.2904 -0.5501
17649TIP3    H274439   3.666   3.662   3.920  0.1672 -0.1351  0.4676
17650TIP3   OH274440   2.239   5.339  14.007 -0.4839  0.2201 -0.0594
17650TIP3    H174441   2.191   5.415  14.040 -0.4367  0.5786 -0.7827
17650TIP3    H274442   2.229   5.345  13.912 -0.2994 -0.5667 -0.1327
17651TIP3   OH274443   1.671   5.908  16.370 -0.1146 -0.0118 -0.0008
17651TIP3    H174444   1.702   5.877  16.455  1.2546 -2.0166 -1.1734
17651TIP3    H274445   1.584   5.868  16.361  0.5028 -1.3530 -0.2986
17652TIP3   OH274446   6.822   6.485  15.897  0.1129 -0.4554 -0.1400
17652TIP3    H174447   6.869   6.406  15.872 -0.4185 -2.0731  3.3904
17652TIP3    H274448   6.729   6.461  15.892 -0.2223  0.9264 -1.6807
17653TIP3   OH274449   3.922   5.233   5.743 -0.5104  0.0456  0.5991
17653TIP3    H174450   3.946   5.190   5.826  0.5526  1.1703  0.9123
17653TIP3    H274451   3.885   5.317   5.770 -0.5633  0.2350 -0.0624
17654TIP3   OH274452   4.168   2.043  13.989  0.2292  0.1183 -0.0579
17654TIP3    H174453   4.227   2.098  13.937  0.0806  1.4115  1.0787
17654TIP3    H274454   4.223   2.010  14.060  0.2970 -1.1768 -0.6920
17655TIP3   OH274455   4.824   5.612  15.017  0.5381 -1.1449 -0.2890
17655TIP3    H174456   4.805   5.539  14.958 -0.1495 -1.2455  0.0454
17655TIP3    H274457   4.812   5.690  14.962  0.2802 -1.2507 -0.3858
17656TIP3   OH274458   2.748   0.662   4.732  0.3319  0.3041  0.2660
17656TIP3    H174459   2.700   0.735   4.771 -1.5372 -1.4513  1.4435
17656TIP3    H274460   2.782   0.613   4.806  0.7388 -0.5458 -0.4628
17657TIP3   OH274461   5.829   1.044   3.325  0.1122  0.0642  0.2447
17657TIP3    H174462   5.893   1.040   3.255 -1.1860  0.8582 -1.0350
17657TIP3    H274463   5.749   1.008   3.287 -1.0508  1.9643  0.7751
17658TIP3   OH274464   5.814   3.101  16.945 -0.3289 -0.0423 -0.0413
17658TIP3    H174465   5.796   3.009  16.962 -0.9085 -0.0195 -0.5109
17658TIP3    H274466   5.786   3.116  16.855  0.3001  0.4601 -0.1687
17659TIP3   OH274467   0.764   5.060  11.380  0.7966 -0.3704  0.2429
17659TIP3    H174468   0.787   5.151  11.361 -2.6086  1.2536  2.6464
17659TIP3    H274469   0.692   5.040  11.320  1.5344 -1.5318 -0.2834
17660TIP3   OH274470   1.126   2.847  15.983 -0.5460  0.7898 -0.4931
17660TIP3    H174471   1.199   2.829  15.924 -1.1382 -0.3082 -0.9284
17660TIP3    H274472   1.055   2.876  15.925 -1.2669 -0.7046 -0.4153
17661TIP3   OH274473   4.345   2.433   5.958  0.6775 -0.1335  0.8783
17661TIP3    H174474   4.408   2.437   5.886 -1.5510  0.2390 -1.2174
17661TIP3    H274475   4.308   2.345   5.953 -0.6251  0.4007  0.4464
17662TIP3   OH274476   2.570   4.164  13.135 -0.1262 -1.0044 -0.2054
17662TIP3    H174477   2.613   4.158  13.050  2.3197 -2.3417  1.0420
17662TIP3    H274478   2.605   4.244  13.174 -0.5212 -0.9059 -0.0432
17663TIP3   OH274479   0.489   5.359  16.648 -0.2848  0.2228  0.5877
17663TIP3    H174480   0.448   5.423  16.706 -1.4261 -0.9730  1.1364
17663TIP3    H274481   0.416   5.317  16.603  0.5427  0.6141 -1.2190
17664TIP3   OH274482   0.035   3.122   1.469  0.4995  0.7783 -0.4184
17664TIP3    H174483  -0.034   3.070   1.427  0.4209  0.9674 -0.5221
17664TIP3    H274484   0.108   3.060   1.480  0.3144  0.5776 -0.3049
17665TIP3   OH274485   0.038   6.750  16.470 -0.3277 -0.6452 -0.5602
17665TIP3    H174486  -0.028   6.816  16.448  0.5153 -0.1503 -1.7082
17665TIP3    H274487   0.121   6.796  16.465  0.3275 -1.8910 -1.9259
17666TIP3   OH274488   5.279   4.013   5.430 -0.4268  0.1348 -0.1728
17666TIP3    H174489   5.219   4.088   5.422  0.8566  1.0720 -1.6180
17666TIP3    H274490   5.222   3.937   5.432 -1.8000  1.1260  1.5963
17667TIP3   OH274491   1.340   5.080  16.690  0.2295  0.1329 -0.4521
17667TIP3    H174492   1.317   5.169  16.714 -0.4925  0.0240 -0.7256
17667TIP3    H274493   1.378   5.043  16.769 -0.0879  0.4725 -0.1375
17668TIP3   OH274494   2.624   2.065   5.736 -0.6318  0.2134 -0.2715
17668TIP3    H174495   2.539   2.103   5.715 -0.6478  2.0199  2.5004
17668TIP3    H274496   2.685   2.138   5.729  0.1794 -0.3623  0.6212
17669TIP3   OH274497   2.694   4.272  16.838 -0.4716 -0.1253 -0.0231
17669TIP3    H174498   2.690   4.241  16.929  0.8581 -1.6323 -0.4250
17669TIP3    H274499   2.786   4.260  16.813 -1.0122 -0.7655 -1.8806
17670TIP3   OH274500   1.019   1.360  15.639 -0.1183 -0.1018 -0.5562
17670TIP3    H174501   1.103   1.333  15.603  0.1759 -0.8767  0.6658
17670TIP3    H274502   1.020   1.456  15.634  1.4500 -0.0082  0.7121
17671TIP3   OH274503   5.233   0.852  16.617 -0.2600 -0.4691 -0.2020
17671TIP3    H174504   5.167   0.823  16.554  0.3077 -0.9483 -0.5864
17671TIP3    H274505   5.183   0.875  16.696 -0.6704 -4.3967  0.8860
17672TIP3   OH274506   1.416   6.739  11.376  0.0730  0.3407 -0.5721
17672TIP3    H174507   1.373   6.679  11.437  1.1390  0.6778  0.5455
17672TIP3    H274508   1.375   6.824  11.394 -1.9116 -0.0538 -2.6033
17673TIP3   OH274509   2.830   1.143  15.444  0.0050 -0.4094 -0.0747
17673TIP3    H174510   2.835   1.233  15.475 -2.2185  0.2069 -1.2662
17673TIP3    H274511   2.756   1.105  15.491 -0.0217 -1.1300 -0.6662
17674TIP3   OH274512   2.354   1.470  12.291 -0.1331 -0.0678  0.3014
17674TIP3    H174513   2.264   1.449  12.267 -0.0762 -2.1374  1.6738
17674TIP3    H274514   2.358   1.566  12.287 -2.9742  0.2264  2.0983
17675TIP3   OH274515   0.183   4.678  16.177 -0.1855  0.4278  0.0509
17675TIP3    H174516   0.114   4.741  16.156  0.5172  1.1413 -0.1680
17675TIP3    H274517   0.137   4.605  16.220 -1.6580 -0.8688 -3.3676
17676TIP3   OH274518   2.798   0.898  16.792 -1.2819 -0.0810  0.3775
17676TIP3    H174519   2.793   0.960  16.718  1.6737 -0.6839 -0.4605
17676TIP3    H274520   2.853   0.942  16.856 -1.0295 -0.9206  0.7467
17677TIP3   OH274521   1.054   2.606  11.891 -0.1461 -0.4794 -0.3574
17677TIP3    H174522   0.973   2.655  11.902 -0.7714 -1.4884 -0.3088
17677TIP3    H274523   1.122   2.673  11.884 -0.7744  0.3770  1.1449
17678TIP3   OH274524   6.592   0.703   1.770 -0.1451 -0.2520  0.1001
17678TIP3    H174525   6.586   0.618   1.813  0.1708 -0.0705  0.5056
17678TIP3    H274526   6.558   0.766   1.834  1.4588  0.1744  0.5808
17679TIP3   OH274527   5.840   2.702   6.022 -0.3110 -0.1907  0.3027
17679TIP3    H174528   5.776   2.748   6.077 -0.6674 -1.5411  1.0640
17679TIP3    H274529   5.924   2.715   6.066 -0.5905 -1.2426  1.1978
17680TIP3   OH274530   1.469   6.397   4.744  0.2815 -0.2924 -0.5452
17680TIP3    H174531   1.424   6.460   4.800  0.1939 -0.4129 -0.4790
17680TIP3    H274532   1.547   6.371   4.794  1.2895  1.1200 -1.3303
17681TIP3   OH274533   3.822   0.887  14.326  0.3830  0.4239 -0.2374
17681TIP3    H174534   3.777   0.971  14.316  0.6770  0.7790  1.1866
17681TIP3    H274535   3.890   0.904  14.391 -1.3173 -1.5606  2.2381
17682TIP3   OH274536   4.402   4.165  14.715 -0.8151 -0.5537  0.1634
17682TIP3    H174537   4.401   4.152  14.620  0.6391 -1.4154  0.2422
17682TIP3    H274538   4.385   4.259  14.725  0.5483 -0.1253 -1.0506
17683TIP3   OH274539   4.343   3.151  16.586 -0.0552  0.4047  0.2187
17683TIP3    H174540   4.340   3.225  16.647 -1.8363  0.9668 -0.5017
17683TIP3    H274541   4.348   3.192  16.500 -0.0336 -0.3456 -0.1418
17684TIP3   OH274542   6.076   6.552  13.512  0.7977  1.1001  0.6607
17684TIP3    H174543   5.990   6.511  13.507  1.3839 -0.0326 -0.9600
17684TIP3    H274544   6.085   6.577  13.604 -0.5445 -0.3255  1.2239
17685TIP3   OH274545   5.260   3.950   3.323  0.5227  0.3627 -0.6685
17685TIP3    H174546   5.245   3.916   3.235  0.1784  2.0069 -1.2780
17685TIP3    H274547   5.194   4.018   3.334 -0.2927 -0.6691  1.3800
17686TIP3   OH274548   2.026   2.305   3.686  0.2880  0.3318  0.2008
17686TIP3    H174549   2.016   2.285   3.593  1.3489 -1.0715  0.3620
17686TIP3    H274550   1.944   2.275   3.726  1.1296 -2.1917  0.1661
17687TIP3   OH274551   2.565   6.633  15.825 -0.0034 -0.4873 -0.2221
17687TIP3    H174552   2.579   6.628  15.730  0.7321  1.0074 -0.2036
17687TIP3    H274553   2.630   6.573  15.862 -0.0443 -0.7930 -0.6384
17688TIP3   OH274554   2.133   0.558  14.982  0.0930 -0.1100 -0.0104
17688TIP3    H174555   2.203   0.624  14.973  1.3646 -1.6222 -2.4518
17688TIP3    H274556   2.170   0.491  15.039 -0.1573  0.0325  0.3204
17689TIP3   OH274557   0.455   0.854   3.778  0.1275 -0.3325 -0.0477
17689TIP3    H174558   0.526   0.917   3.766 -0.6665  0.5178 -0.3786
17689TIP3    H274559   0.454   0.838   3.872  1.6032 -1.3788 -0.1785
17690TIP3   OH274560   5.680   0.276  14.079 -0.6697  0.2726  0.0531
17690TIP3    H174561   5.660   0.362  14.117  0.4270 -0.1255  1.6433
17690TIP3    H274562   5.775   0.272  14.079 -0.6583 -0.2411 -1.7324
17691TIP3   OH274563   4.938   2.409  17.104  0.2356  0.3372 -0.0728
17691TIP3    H174564   4.906   2.320  17.086  0.0132  0.6520 -1.2973
17691TIP3    H274565   5.031   2.397  17.121  0.1494 -0.1738  0.0691
17692TIP3   OH274566   2.327   4.932   1.050 -0.2515  0.0109  0.2207
17692TIP3    H174567   2.253   4.983   1.017 -0.2854  0.4704  0.9836
17692TIP3    H274568   2.325   4.945   1.145 -0.7495 -2.0433  0.5616
17693TIP3   OH274569   1.823   3.400  12.166 -0.2349 -0.8969 -0.0898
17693TIP3    H174570   1.735   3.363  12.169 -1.7460  2.4190  0.0664
17693TIP3    H274571   1.835   3.426  12.075 -0.5469  1.0269  0.3782
17694TIP3   OH274572   6.389   4.614  12.706  0.2063  0.3619  0.2042
17694TIP3    H174573   6.392   4.519  12.717 -1.6116  0.3647  1.0220
17694TIP3    H274574   6.403   4.628  12.612 -1.7536 -0.8956 -0.3197
17695TIP3   OH274575   0.263   4.163  17.194  0.4350  0.4483 -0.2648
17695TIP3    H174576   0.330   4.101  17.165  0.2704 -0.2498  0.7638
17695TIP3    H274577   0.266   4.157  17.290 -0.3128  1.2596 -0.1806
17696TIP3   OH274578   2.556   0.641   4.487 -0.2239 -0.3211 -0.2418
17696TIP3    H174579   2.636   0.625   4.438 -0.0852  0.4380 -0.2871
17696TIP3    H274580   2.582   0.633   4.579 -0.5235 -1.9161 -0.2706
17697TIP3   OH274581   6.518   3.245  17.096 -0.7559  0.0357  1.2364
17697TIP3    H174582   6.605   3.254  17.136  0.5020  1.7445 -1.6243
17697TIP3    H274583   6.497   3.332  17.063 -1.3254 -1.2830 -2.3446
17698TIP3   OH274584   2.976   5.565  12.074  0.4920 -0.2142 -0.1188
17698TIP3    H174585   3.062   5.551  12.034  0.2345  0.7718 -1.0569
17698TIP3    H274586   2.984   5.649  12.119 -0.1224  0.1269 -0.6344
17699TIP3   OH274587   5.847   6.135   5.898 -0.2660  0.0221 -0.2464
17699TIP3    H174588   5.772   6.075   5.904  0.3522 -0.7231  0.2719
17699TIP3    H274589   5.923   6.078   5.906  0.3479  0.8334 -0.2455
17700TIP3   OH274590   6.728   1.575   0.170  0.0515 -0.0759 -0.5605
17700TIP3    H174591   6.802   1.574   0.109  1.2209 -0.3556  0.7906
17700TIP3    H274592   6.712   1.668   0.186 -1.5512  0.0940 -2.7005
17701TIP3   OH274593   3.346   2.717   1.533 -0.3006 -0.3543 -0.3668
17701TIP3    H174594   3.385   2.803   1.517  1.1825 -1.2953 -2.2320
17701TIP3    H274595   3.258   2.736   1.565 -0.0127  1.8348 -0.7068
17702TIP3   OH274596   2.294   4.848  14.081 -0.5987  0.0799 -0.2323
17702TIP3    H174597   2.349   4.780  14.119 -0.2479  0.2929 -0.3592
17702TIP3    H274598   2.327   4.929  14.118 -2.1529  0.0588  1.3188
17703TIP3   OH274599   3.729   3.774  10.890  0.0189  0.4975 -0.1690
17703TIP3    H174600   3.661   3.814  10.944 -0.7856  0.1241 -0.8843
17703TIP3    H274601   3.811   3.806  10.927 -0.5270  0.6074  0.9860
17704TIP3   OH274602   6.727   3.209   5.533  0.1498 -0.5280 -0.2131
17704TIP3    H174603   6.641   3.167   5.543  0.0842 -1.2912 -2.9319
17704TIP3    H274604   6.707   3.301   5.516 -0.1551 -0.6654 -0.6386
17705TIP3   OH274605   3.465   2.149  16.072  0.4603  0.1408 -0.2350
17705TIP3    H174606   3.451   2.165  15.978  2.2028  1.2780 -0.3399
17705TIP3    H274607   3.378   2.154  16.110 -0.1192  1.0160 -1.6020
17706TIP3   OH274608   2.595   0.448   5.191  0.1874 -0.1627  0.6689
17706TIP3    H174609   2.606   0.416   5.101 -2.8732 -1.0647  0.5242
17706TIP3    H274610   2.674   0.418   5.237  0.7833 -1.6010 -1.1827
17707TIP3   OH274611   5.114   0.190  13.473  0.6156 -0.7437  0.2902
17707TIP3    H174612   5.048   0.221  13.411 -0.8402 -0.6861  1.7944
17707TIP3    H274613   5.169   0.267  13.489  0.2491 -0.4165  0.0018
17708TIP3   OH274614   1.853   4.600   6.009  0.2657 -0.4181  0.5202
17708TIP3    H174615   1.948   4.591   6.011  0.3343  0.3969  1.3888
17708TIP3    H274616   1.828   4.615   6.100 -0.7107 -0.7050  0.3132
17709TIP3   OH274617   6.789   5.608   5.542  0.6083  0.1858  0.0667
17709TIP3    H174618   6.834   5.528   5.569  0.9348  0.8446  1.6099
17709TIP3    H274619   6.814   5.620   5.451  1.7929 -0.6558  0.2564
17710TIP3   OH274620   5.009   6.062   6.320  0.2578 -0.3986 -0.1111
17710TIP3    H174621   5.028   6.144   6.275  0.9096 -0.8904 -0.7691
17710TIP3    H274622   5.086   6.045   6.374 -0.1247 -0.2867  0.4799
17711TIP3   OH274623   1.183   5.145   5.692  0.3840  0.0592  0.1494
17711TIP3    H174624   1.206   5.099   5.611  0.9666 -0.3753  0.5498
17711TIP3    H274625   1.108   5.097   5.726  0.2536  0.1289 -0.0427
17712TIP3   OH274626   1.768   2.613  16.474 -0.0252  0.1296  0.4470
17712TIP3    H174627   1.702   2.563  16.425 -1.3557  0.5964  1.6756
17712TIP3    H274628   1.851   2.590  16.433 -0.9355 -0.5388 -1.1288
17713TIP3   OH274629   5.931   2.745   2.297 -0.2487 -0.2317  0.4042
17713TIP3    H174630   5.975   2.828   2.318 -0.1310  0.0078 -0.7428
17713TIP3    H274631   5.838   2.766   2.298 -0.1704  0.5276 -2.1951
17714TIP3   OH274632   2.843   3.969   0.667  0.1764  0.3066  0.2452
17714TIP3    H174633   2.768   3.974   0.608 -0.9971 -1.2161  1.5349
17714TIP3    H274634   2.832   4.043   0.726 -0.0616  0.3397  0.1590
17715TIP3   OH274635   2.702   4.136  10.934 -0.0257 -0.2722  0.0379
17715TIP3    H174636   2.785   4.109  10.893 -0.1451 -0.8210  0.1582
17715TIP3    H274637   2.713   4.230  10.948  1.8220 -0.7970  2.8634
17716TIP3   OH274638   0.727   6.456   0.859  0.4515  0.0355  0.4695
17716TIP3    H174639   0.660   6.387   0.856  0.9297 -0.4306  0.0582
17716TIP3    H274640   0.806   6.412   0.827  1.5972 -0.1398  3.2527
17717TIP3   OH274641   2.876   0.748  13.429  0.7440  0.0888 -0.2221
17717TIP3    H174642   2.842   0.806  13.498 -0.1962 -1.5900  0.8090
17717TIP3    H274643   2.971   0.748  13.442  0.7410  1.2006 -0.1077
17718TIP3   OH274644   3.908   2.984  14.511 -0.1576  0.2033  0.0055
17718TIP3    H174645   3.862   3.068  14.510 -0.1290  0.2206  0.0817
17718TIP3    H274646   4.001   3.007  14.500 -0.2585  0.0947 -1.2106
17719TIP3   OH274647   4.766   2.636  12.013 -0.7457 -0.4813  0.3645
17719TIP3    H174648   4.844   2.680  12.048 -0.7368 -0.6622  0.5752
17719TIP3    H274649   4.727   2.700  11.955 -0.5331 -0.3245  0.3912
17720TIP3   OH274650   4.339   4.791  15.459  0.2201  0.4357 -0.0343
17720TIP3    H174651   4.297   4.805  15.544 -1.8219 -2.2980 -0.4768
17720TIP3    H274652   4.411   4.731  15.478 -0.3936 -0.3778 -0.2468
17721TIP3   OH274653   5.311   5.902  14.682  0.5154 -0.3603 -0.0812
17721TIP3    H174654   5.309   5.954  14.762 -0.4098 -0.1630 -0.2222
17721TIP3    H274655   5.220   5.879  14.666  0.5442  0.4201 -1.5894
17722TIP3   OH274656   1.058   1.006  17.252 -0.3933  0.6220  0.2875
17722TIP3    H174657   1.061   1.061  17.174 -0.5333  0.5281  0.2156
17722TIP3    H274658   1.057   0.917  17.219  1.6965  0.5038  0.4403
17723TIP3   OH274659   2.126   2.394  11.020 -0.5075  0.1289 -0.0444
17723TIP3    H174660   2.216   2.408  10.988  0.5220 -1.6793  1.7980
17723TIP3    H274661   2.091   2.327  10.961  0.0107 -0.4142  0.2432
17724TIP3   OH274662   2.166   2.305   3.913 -0.1431  1.2866  0.0756
17724TIP3    H174663   2.106   2.294   3.840  1.9407 -1.0496 -1.4084
17724TIP3    H274664   2.129   2.250   3.983  0.8255 -1.2010 -1.2641
17725TIP3   OH274665   2.204   0.299  12.606 -0.3325  0.0640  0.1480
17725TIP3    H174666   2.158   0.333  12.682 -0.7914  0.0370 -0.1160
17725TIP3    H274667   2.249   0.221  12.637  1.2453  1.2278  0.9279
17726TIP3   OH274668   3.806   4.895  14.873 -0.1442 -0.0425 -0.4088
17726TIP3    H174669   3.791   4.814  14.922  0.2219 -0.6927 -1.3655
17726TIP3    H274670   3.843   4.867  14.790 -1.8343  0.9490 -1.5614
17727TIP3   OH274671   2.445   1.144   0.082 -0.3127 -0.1830  0.3590
17727TIP3    H174672   2.458   1.072   0.143 -3.5237 -1.2423 -0.0179
17727TIP3    H274673   2.425   1.219   0.137  0.1762 -0.2876  0.6812
17728TIP3   OH274674   1.712   1.628   0.102 -0.0122 -0.0674 -0.2008
17728TIP3    H174675   1.738   1.549   0.055  0.1456 -0.6100  0.7643
17728TIP3    H274676   1.781   1.692   0.083  0.5058 -0.5589  0.0029
17729TIP3   OH274677   2.937   6.120   2.770  0.3838 -0.0565 -1.0120
17729TIP3    H174678   2.920   6.028   2.792  1.2924 -0.0607 -0.2542
17729TIP3    H274679   3.032   6.129   2.780  0.1634  1.2829  0.2209
17730TIP3   OH274680   1.095   2.467   0.370  0.3632  0.5057  0.6814
17730TIP3    H174681   1.060   2.408   0.305  0.7478  0.4380  0.5333
17730TIP3    H274682   1.040   2.453   0.448 -0.6072  1.1683  0.1328
17731TIP3   OH274683   1.392   5.158   2.353  0.4317  0.3348 -0.3868
17731TIP3    H174684   1.356   5.082   2.399 -1.7039  0.7596 -1.2314
17731TIP3    H274685   1.440   5.206   2.421 -0.6319 -0.2827  0.8501
17732TIP3   OH274686   2.055   2.553  17.017 -0.2109 -0.4130  0.3193
17732TIP3    H174687   2.106   2.626  17.053 -0.3584 -0.6288  0.9938
17732TIP3    H274688   2.121   2.489  16.988 -0.0585 -1.0994  2.0402
17733TIP3   OH274689   3.616   4.263   5.864  0.1996  0.5043 -0.2667
17733TIP3    H174690   3.562   4.322   5.916  0.4005  0.6581 -0.2311
17733TIP3    H274691   3.559   4.234   5.792 -0.3389 -0.3517  0.4826
17734TIP3   OH274692   4.494   2.930  10.439 -0.2607  0.2027  0.4006
17734TIP3    H174693   4.449   2.972  10.513  0.5932 -0.1618  1.1555
17734TIP3    H274694   4.470   2.983  10.363 -2.2065 -0.1897  0.7105
17735TIP3   OH274695   5.777   3.357  13.274  0.1685 -0.2918 -0.8826
17735TIP3    H174696   5.806   3.329  13.361  0.1290  0.9658 -0.4455
17735TIP3    H274697   5.701   3.302  13.254 -0.1886 -0.1713  0.1392
17736TIP3   OH274698   4.995   3.363   2.464  0.5322 -0.2621  0.2556
17736TIP3    H174699   4.953   3.289   2.421 -0.3003  0.5187 -0.3339
17736TIP3    H274700   5.067   3.325   2.514  1.8480 -1.1955 -2.1678
17737TIP3   OH274701   4.951   4.411  12.793 -0.4617  0.1447  0.1485
17737TIP3    H174702   4.891   4.482  12.773 -0.9479 -0.7895 -1.9874
17737TIP3    H274703   4.898   4.331  12.784 -0.1728 -0.5577  3.3400
17738TIP3   OH274704   1.456   2.656   1.270 -0.1184 -0.4335 -0.9413
17738TIP3    H174705   1.510   2.730   1.300 -1.0782  0.1859 -0.6854
17738TIP3    H274706   1.398   2.694   1.204 -0.4335 -1.0274 -1.0137
17739TIP3   OH274707   0.199   4.079   1.492  0.2471  0.4439 -0.4515
17739TIP3    H174708   0.180   4.173   1.490  1.9951  0.8270 -0.7970
17739TIP3    H274709   0.179   4.048   1.404  1.1249  0.8205 -0.7895
17740TIP3   OH274710   5.058   1.393   4.786  0.3144 -0.5466 -0.2823
17740TIP3    H174711   4.969   1.428   4.793 -0.0836 -1.4587 -0.6130
17740TIP3    H274712   5.104   1.456   4.731 -0.3823 -0.5311 -0.8685
17741TIP3   OH274713   4.631   2.604   4.040 -0.1933 -0.0102  0.4565
17741TIP3    H174714   4.649   2.525   4.090  0.1362 -0.9181 -1.0164
17741TIP3    H274715   4.718   2.638   4.017 -0.2563  2.1162  2.9828
17742TIP3   OH274716   4.996   5.706  16.351 -0.5711  0.3492  0.3160
17742TIP3    H174717   5.025   5.740  16.435 -1.2259  2.7808 -0.3769
17742TIP3    H274718   4.966   5.782  16.302 -2.0235 -1.2125 -1.4203
17743TIP3   OH274719   1.845   2.667   2.246  0.1389  0.2190 -0.1919
17743TIP3    H174720   1.826   2.648   2.338  0.2359 -1.9488 -0.5518
17743TIP3    H274721   1.768   2.715   2.215 -1.3658 -1.7476  0.2873
17744TIP3   OH274722   0.936   0.351  10.677  0.0397  0.0115 -0.3529
17744TIP3    H174723   1.029   0.365  10.661  0.6970 -4.3085 -1.4914
17744TIP3    H274724   0.900   0.329  10.591 -1.3088 -1.5469  0.5481
17745TIP3   OH274725   0.336   4.955   0.486 -0.3270 -0.3038 -0.3793
17745TIP3    H174726   0.296   4.898   0.553  0.2471 -0.8874 -0.5280
17745TIP3    H274727   0.384   4.896   0.429 -0.5318  0.2309 -1.1240
17746TIP3   OH274728   5.059   2.008  12.324  0.1919 -0.5992  0.4284
17746TIP3    H174729   5.139   1.968  12.290 -0.1676 -1.4642  0.5698
17746TIP3    H274730   5.007   2.025  12.246  1.0836  1.3215  0.1920
17747TIP3   OH274731   5.450   6.257  14.872  0.3922  0.3226 -0.1473
17747TIP3    H174732   5.508   6.207  14.814 -0.9863 -2.6164  0.7768
17747TIP3    H274733   5.510   6.300  14.933  1.7080 -0.6881 -0.6575
17748TIP3   OH274734   0.312   1.096   1.285  0.0433  0.0824  0.1439
17748TIP3    H174735   0.253   1.036   1.239 -0.8493  1.4805 -0.5713
17748TIP3    H274736   0.313   1.175   1.232  1.5834  0.5572  0.8284
17749TIP3   OH274737   1.671   3.207  12.364 -0.3372 -0.0031  0.3062
17749TIP3    H174738   1.645   3.138  12.426  0.6959  0.3735  1.1919
17749TIP3    H274739   1.626   3.285  12.395 -0.6341 -0.0340 -0.0417
17750TIP3   OH274740   3.548   0.016  10.214  0.0501 -0.0722 -0.1077
17750TIP3    H174741   3.457   0.037  10.235  0.2603 -0.6556  1.4976
17750TIP3    H274742   3.590   0.102  10.202 -0.4689  0.2343  0.2251
17751TIP3   OH274743   1.144   2.531   6.287  0.1733  0.1679  0.1182
17751TIP3    H174744   1.049   2.519   6.279  0.2123  0.7437 -1.5631
17751TIP3    H274745   1.155   2.623   6.309  0.3771  0.3827 -0.8601
17752TIP3   OH274746   6.627   4.468  16.344  0.1321 -0.2354  0.3210
17752TIP3    H174747   6.678   4.481  16.424  1.3939 -0.9930 -0.3363
17752TIP3    H274748   6.554   4.530  16.352  1.4428  1.2856  1.0352
17753TIP3   OH274749   1.582   5.745   0.140  0.0948 -0.0195  0.1079
17753TIP3    H174750   1.543   5.813   0.196 -2.0563 -0.2490 -0.9987
17753TIP3    H274751   1.653   5.790   0.094 -0.3137  1.0825  0.5061
17754TIP3   OH274752   5.317   3.939  14.098  0.4666  0.1700  0.0936
17754TIP3    H174753   5.251   3.875  14.124  0.1543  0.7989  0.8944
17754TIP3    H274754   5.389   3.926  14.160  1.0901 -0.4927 -0.7563
17755TIP3   OH274755   4.662   5.509   1.465  0.9210 -0.4337  0.6608
17755TIP3    H174756   4.650   5.420   1.498  0.7640 -0.1915  1.2660
17755TIP3    H274757   4.647   5.501   1.370 -1.6845 -0.6137  1.0064
17756TIP3   OH274758   4.094   3.216  14.201 -0.0656 -0.4876 -0.5343
17756TIP3    H174759   4.091   3.244  14.109  2.4803 -1.9035 -1.1367
17756TIP3    H274760   4.065   3.125  14.199 -0.8280 -0.2717  0.2236
17757TIP3   OH274761   0.115   0.394  14.949 -0.1321 -0.4671  0.0793
17757TIP3    H174762   0.099   0.327  14.882  2.1653  0.8987 -2.0000
17757TIP3    H274763   0.190   0.360  14.998  0.4950  0.1585 -0.4309
17758TIP3   OH274764   2.078   1.512  14.079 -0.2072 -0.5300 -0.4163
17758TIP3    H174765   2.083   1.597  14.036  1.0024 -0.3980 -0.0562
17758TIP3    H274766   2.034   1.456  14.015  0.4632 -0.0362 -1.3411
17759TIP3   OH274767   3.563   1.637  17.104 -0.8396 -0.1356 -0.6974
17759TIP3    H174768   3.588   1.720  17.063 -1.1708 -0.4119 -1.4940
17759TIP3    H274769   3.644   1.604  17.142 -0.9575  1.1457  0.7360
17760TIP3   OH274770   5.207   0.310   0.602  0.5236 -0.5254 -0.6051
17760TIP3    H174771   5.242   0.351   0.522 -1.0382 -0.7012 -1.4169
17760TIP3    H274772   5.223   0.217   0.590  1.3061 -0.4555 -0.1725
17761TIP3   OH274773   6.584   1.974   3.518  0.3881 -0.2180  0.1100
17761TIP3    H174774   6.621   2.030   3.586 -0.1748 -0.8620  0.9733
17761TIP3    H274775   6.490   1.971   3.538 -0.5535  2.7670 -3.0142
17762TIP3   OH274776   4.843   2.971  12.914  0.5876  0.4503 -0.3551
17762TIP3    H174777   4.933   2.941  12.907  0.9686  1.1946  0.9105
17762TIP3    H274778   4.790   2.892  12.912  1.0440  0.1002 -3.3986
17763TIP3   OH274779   3.946   1.672  17.097 -0.4709 -0.0743 -0.2149
17763TIP3    H174780   3.893   1.724  17.158 -0.6829  0.9418 -1.2328
17763TIP3    H274781   4.007   1.625  17.154 -1.1465  0.2601  0.8386
17764TIP3   OH274782   0.043   6.578  14.239 -0.3723 -0.5381 -0.4689
17764TIP3    H174783   0.126   6.548  14.202  0.2388  1.1611 -0.5367
17764TIP3    H274784   0.062   6.596  14.331 -0.4568  0.5269 -0.6436
17765TIP3   OH274785   4.189   1.093   4.665 -0.1823  0.1151 -0.0114
17765TIP3    H174786   4.221   1.149   4.594  0.4737  1.2720  1.1685
17765TIP3    H274787   4.195   1.147   4.743 -0.9508 -1.1234  0.9394
17766TIP3   OH274788   3.250   6.330   0.118  0.0984 -0.2333  0.0927
17766TIP3    H174789   3.226   6.260   0.179  2.3240 -1.2980 -0.1720
17766TIP3    H274790   3.260   6.287   0.033 -0.1931  0.7265 -0.4465
17767TIP3   OH274791   2.294   5.597  16.633 -0.2154 -0.3454 -0.5156
17767TIP3    H174792   2.384   5.626  16.618 -0.6506  2.0789  1.0259
17767TIP3    H274793   2.245   5.633  16.559 -0.0181 -1.2045 -1.0709
17768TIP3   OH274794   2.675   4.172  15.057  0.0236 -0.2142 -0.3428
17768TIP3    H174795   2.692   4.256  15.015  1.2413  0.6496  1.7516
17768TIP3    H274796   2.580   4.169  15.066 -0.1701  0.1341 -1.9393
17769TIP3   OH274797   5.923   2.981  15.927 -0.2408 -0.6465 -0.2829
17769TIP3    H174798   5.961   3.005  16.011 -1.9828 -1.2463  0.7218
17769TIP3    H274799   5.830   2.966  15.945 -0.8623  0.0820 -2.4870
17770TIP3   OH274800   3.799   4.675  15.034  0.2635  0.2910 -0.5115
17770TIP3    H174801   3.871   4.620  15.065  0.5249 -0.1926 -1.9001
17770TIP3    H274802   3.723   4.644  15.083  0.6610 -0.4516 -0.3476
17771TIP3   OH274803   2.233   3.028   3.302 -0.0978  0.1981  0.1778
17771TIP3    H174804   2.321   3.032   3.265 -0.6988 -0.9688 -1.4909
17771TIP3    H274805   2.219   2.935   3.321 -1.8895 -0.0932 -2.1111
17772TIP3   OH274806   0.223   3.556  11.038  0.6210  0.5446  0.3084
17772TIP3    H174807   0.246   3.648  11.022 -0.7115  0.6314 -1.3662
17772TIP3    H274808   0.151   3.560  11.101  0.7701  0.6234  0.4750
17773TIP3   OH274809   3.693   1.432  11.775 -1.2161  0.0595  0.7527
17773TIP3    H174810   3.642   1.353  11.762 -0.3231 -0.2451 -1.2242
17773TIP3    H274811   3.779   1.401  11.803 -0.8932  0.3078  0.0688
17774TIP3   OH274812   1.606   0.815   1.783 -0.2985  0.7779 -0.3018
17774TIP3    H174813   1.577   0.820   1.874  4.2210  2.2834  1.3439
17774TIP3    H274814   1.616   0.722   1.765 -1.3081  0.4670  0.6723
17775TIP3   OH274815   4.970   2.759   0.941 -0.3369 -0.1322 -0.3115
17775TIP3    H174816   4.923   2.725   1.017  1.2760 -1.7552  0.0358
17775TIP3    H274817   5.001   2.845   0.967 -1.0411 -0.0651  0.3226
17776TIP3   OH274818   6.135   2.418   3.544  0.3228 -0.1271  0.0613
17776TIP3    H174819   6.215   2.400   3.594 -0.6745 -3.8204  0.6251
17776TIP3    H274820   6.124   2.512   3.550  2.6237  0.1171  3.1693
17777TIP3   OH274821   2.658   4.209   4.240 -0.7588  0.0274  0.5222
17777TIP3    H174822   2.653   4.114   4.243  0.7500 -0.0616  1.6383
17777TIP3    H274823   2.629   4.233   4.152 -1.9443 -1.3849  0.5001
17778TIP3   OH274824   1.556   3.784  13.815  0.1118  0.5625 -0.0248
17778TIP3    H174825   1.537   3.706  13.867  1.8219 -0.4443 -0.8157
17778TIP3    H274826   1.567   3.751  13.726 -0.4829  1.9227 -0.6236
17779TIP3   OH274827   2.545   1.704   1.397 -0.5198 -0.4533 -0.6848
17779TIP3    H174828   2.557   1.795   1.372  0.1836 -0.9700 -2.3531
17779TIP3    H274829   2.612   1.656   1.348  1.2036 -1.5606  2.4705
17780TIP3   OH274830   6.381   0.265   5.379 -0.5178 -0.0934  0.0725
17780TIP3    H174831   6.332   0.220   5.310 -1.7446  0.1770  0.7384
17780TIP3    H274832   6.320   0.329   5.415  1.6392  3.4509 -1.9554
17781TIP3   OH274833   1.118   5.959   0.578 -0.7203 -0.6902  0.1457
17781TIP3    H174834   1.135   6.048   0.609 -0.0126 -0.8344  0.1673
17781TIP3    H274835   1.149   5.959   0.487  0.3022 -1.2347  0.4910
17782TIP3   OH274836   6.513   5.301  16.573 -0.3194 -0.1441  0.6202
17782TIP3    H174837   6.438   5.240  16.575  0.5419 -1.2251  1.8817
17782TIP3    H274838   6.514   5.334  16.483  0.1667 -3.3023 -0.6703
17783TIP3   OH274839   2.737   6.041  14.604  0.2131  0.4358  0.4519
17783TIP3    H174840   2.763   6.132  14.617  1.4382  0.0911  0.5786
17783TIP3    H274841   2.756   6.023  14.512 -0.4322  0.4289  0.3183
17784TIP3   OH274842   3.170   2.167  10.764 -0.1422 -0.4936  0.1565
17784TIP3    H174843   3.253   2.214  10.779 -1.6218  1.9031  1.5801
17784TIP3    H274844   3.187   2.078  10.794  2.0343 -0.1908 -0.0310
17785TIP3   OH274845   1.151   3.851   5.745 -0.1437 -0.3258 -0.4497
17785TIP3    H174846   1.212   3.888   5.809 -0.1360 -1.9219  0.5187
17785TIP3    H274847   1.074   3.909   5.748  1.0942  1.4945 -1.4114
17786TIP3   OH274848   4.389   3.811  15.528  0.5440  0.0479 -0.0803
17786TIP3    H174849   4.373   3.892  15.575 -0.2809  0.1963 -0.5795
17786TIP3    H274850   4.331   3.747  15.570  0.2256  0.0449 -0.5105
17787TIP3   OH274851   6.565   5.369   1.975  0.0512 -0.5715 -0.0812
17787TIP3    H174852   6.474   5.398   1.982  1.0966  3.0808  0.5634
17787TIP3    H274853   6.583   5.370   1.881 -0.7046 -2.1422 -0.2891
17788TIP3   OH274854   2.840   6.528   4.427 -0.2141  0.3238 -0.4025
17788TIP3    H174855   2.866   6.437   4.414  0.6082  0.7234 -1.8435
17788TIP3    H274856   2.902   6.563   4.491 -2.3970 -0.8663  2.5786
17789TIP3   OH274857   6.424   2.658  16.893  0.3416  0.0471 -0.1236
17789TIP3    H174858   6.442   2.564  16.902 -0.8381 -0.1844 -0.0782
17789TIP3    H274859   6.487   2.700  16.953  1.6283 -0.6219 -0.9547
17790TIP3   OH274860   6.548   5.089  11.114  0.1260  0.3157  0.2016
17790TIP3    H174861   6.546   5.049  11.201  1.7483 -1.7031 -0.6056
17790TIP3    H274862   6.494   5.168  11.122  0.0490  0.0626  2.9509
17791TIP3   OH274863   6.782   3.193  13.687 -0.2519 -0.2081  0.1129
17791TIP3    H174864   6.726   3.246  13.630  1.3356  0.1854 -1.1711
17791TIP3    H274865   6.737   3.192  13.771 -2.3770 -0.2943 -0.9697
17792TIP3   OH274866   4.178   1.616   2.120  0.3368 -0.0721  0.0379
17792TIP3    H174867   4.260   1.622   2.070  0.6666 -0.7295  0.4789
17792TIP3    H274868   4.158   1.706   2.146  0.1306  0.2935 -1.3094
17793TIP3   OH274869   3.218   5.559  16.101  0.2616 -0.0717 -0.3880
17793TIP3    H174870   3.309   5.586  16.091  0.2458 -0.1272 -0.6713
17793TIP3    H274871   3.187   5.607  16.178  0.6536 -0.3772 -0.0395
17794TIP3   OH274872   2.516   6.345  11.954  0.7649  0.4863  0.0337
17794TIP3    H174873   2.524   6.440  11.941  1.4819  0.3116 -0.8461
17794TIP3    H274874   2.483   6.312  11.871 -1.9364  0.2194  1.0878
17795TIP3   OH274875   3.129   3.091   2.081  0.1025 -0.3267 -0.0968
17795TIP3    H174876   3.102   3.170   2.033  0.3858 -1.2088 -1.7763
17795TIP3    H274877   3.200   3.121   2.138 -1.8403  1.2633  1.6650
17796TIP3   OH274878   1.983   0.557   2.081 -0.2402  0.9576  0.4960
17796TIP3    H174879   2.069   0.572   2.041  0.7932 -0.3882  2.0950
17796TIP3    H274880   1.921   0.569   2.009  1.2938  1.7064 -0.7555
17797TIP3   OH274881   0.689   0.117  11.916 -0.1697  0.0667 -0.0651
17797TIP3    H174882   0.784   0.105  11.915  0.0243  1.5075 -1.0638
17797TIP3    H274883   0.658   0.071  11.839 -0.0478  1.1797 -0.7979
17798TIP3   OH274884   5.993   2.279   3.799 -0.2969 -0.2317  0.8964
17798TIP3    H174885   5.942   2.279   3.881  1.9445 -0.9571  2.3803
17798TIP3    H274886   6.010   2.372   3.782 -0.0896 -0.1030  1.7409
17799TIP3   OH274887   1.447   6.264   0.835  0.0404  0.0251  0.0563
17799TIP3    H174888   1.450   6.351   0.795 -1.5477  0.2279  0.3139
17799TIP3    H274889   1.424   6.280   0.926 -1.3224 -0.6904 -0.1314
17800TIP3   OH274890   3.476   4.143   1.647  0.3202  0.2783  0.1639
17800TIP3    H174891   3.569   4.164   1.647  0.4572 -0.2188  1.2972
17800TIP3    H274892   3.469   4.066   1.704 -0.9525  1.1435  1.2474
17801TIP3   OH274893   6.567   3.449   6.646 -0.0234  0.0358 -0.5385
17801TIP3    H174894   6.596   3.380   6.707  2.1986  0.1254 -1.4219
17801TIP3    H274895   6.536   3.401   6.569 -0.8277 -0.0078 -0.2039
17802TIP3   OH274896   0.847   4.696   1.306 -0.3004  0.2868  0.2309
17802TIP3    H174897   0.922   4.638   1.322 -0.6456 -0.4185 -0.6086
17802TIP3    H274898   0.783   4.670   1.371  0.8966  2.2808  2.3175
17803TIP3   OH274899   6.346   0.402  14.139 -0.3081  0.2005  0.0401
17803TIP3    H174900   6.278   0.342  14.110  0.5369 -0.6215 -0.3051
17803TIP3    H274901   6.412   0.398  14.070  0.3191  0.5888  0.6070
17804TIP3   OH274902   2.946   3.215  11.626  0.5711  0.6723 -0.2626
17804TIP3    H174903   2.994   3.195  11.706 -1.4938  1.9552  1.4048
17804TIP3    H274904   2.902   3.133  11.604 -1.6413  1.1035  2.0487
17805TIP3   OH274905   2.008   3.455   4.911  0.4836 -0.3689  0.2437
17805TIP3    H174906   2.074   3.495   4.968  0.9865 -0.2106 -0.4324
17805TIP3    H274907   2.012   3.507   4.831  0.7286 -1.4080 -0.4283
17806TIP3   OH274908   0.495   4.892  13.808  0.3568 -0.5701  0.1008
17806TIP3    H174909   0.545   4.836  13.749  1.7876  0.0110  0.7135
17806TIP3    H274910   0.469   4.966  13.754  1.1677 -0.3178  0.0464
17807TIP3   OH274911   6.200   2.206  10.326 -0.1422  0.2770  0.7182
17807TIP3    H174912   6.290   2.223  10.354  0.7285 -1.1396 -0.9799
17807TIP3    H274913   6.146   2.238  10.398  1.7014  1.2543  1.7547
17808TIP3   OH274914   3.519   2.644   1.994  0.6564 -0.1044  0.0026
17808TIP3    H174915   3.565   2.565   1.963  1.0103  0.8550 -2.0573
17808TIP3    H274916   3.432   2.637   1.956  0.7628  0.5878 -0.3842
17809TIP3   OH274917   5.455   2.727   6.668 -0.2441  0.4348 -0.2802
17809TIP3    H174918   5.531   2.712   6.723 -1.1849  1.1681  1.2975
17809TIP3    H274919   5.397   2.653   6.686 -0.6121  0.7407 -0.1820
17810TIP3   OH274920   5.745   0.703   5.581 -0.0701  0.0679  0.0647
17810TIP3    H174921   5.817   0.640   5.586  1.0510  1.1920 -1.1039
17810TIP3    H274922   5.755   0.757   5.659 -0.8869 -0.9986  0.9425
17811TIP3   OH274923   3.322   4.019  15.561  0.1500  0.3016 -0.2980
17811TIP3    H174924   3.292   3.960  15.491  0.0054  0.4085 -0.3252
17811TIP3    H274925   3.359   3.960  15.627 -0.9733  0.0863  0.1708
17812TIP3   OH274926   4.904   4.823   5.489  0.4523 -0.8286 -0.5553
17812TIP3    H174927   4.965   4.750   5.503 -0.1414 -1.3431 -0.6547
17812TIP3    H274928   4.960   4.895   5.459  1.0167 -1.2853 -0.6160
17813TIP3   OH274929   4.856   0.302  16.614 -0.4165  0.1432 -0.1106
17813TIP3    H174930   4.890   0.390  16.596 -1.1648  0.3502 -0.5486
17813TIP3    H274931   4.761   0.314  16.623 -0.5557 -0.6587 -0.4451
17814TIP3   OH274932   4.891   3.242  11.706  0.2845  0.0054 -0.0420
17814TIP3    H174933   4.924   3.330  11.722  0.7496  0.1602 -1.6302
17814TIP3    H274934   4.955   3.184  11.748  0.6807  0.3966 -0.0996
17815TIP3   OH274935   3.457   0.309  14.936  0.1405  0.2463  0.2626
17815TIP3    H174936   3.549   0.303  14.958  0.4707 -0.1846 -1.1069
17815TIP3    H274937   3.419   0.366  15.003  1.2602 -0.0890  1.2043
17816TIP3   OH274938   2.589   3.361  16.548  0.1790 -0.6612 -0.3512
17816TIP3    H174939   2.590   3.454  16.572 -0.7002 -0.9445  0.8997
17816TIP3    H274940   2.673   3.327  16.578 -0.3243 -0.6916  1.1216
17817TIP3   OH274941   5.560   4.390   4.453 -0.5202  0.3115 -0.3515
17817TIP3    H174942   5.540   4.466   4.508 -1.6324  1.2285 -1.9203
17817TIP3    H274943   5.588   4.428   4.369 -0.7609 -1.0143 -1.0637
17818TIP3   OH274944   3.120   3.903   5.594 -0.0411  0.6680 -0.4675
17818TIP3    H174945   3.175   3.856   5.657 -1.7763 -0.2857  0.4311
17818TIP3    H274946   3.175   3.913   5.516  1.9287  1.2502  0.9284
17819TIP3   OH274947   2.534   3.413  15.506  0.4322 -0.3313 -0.0087
17819TIP3    H174948   2.608   3.372  15.459  1.4916  1.2698  0.1667
17819TIP3    H274949   2.572   3.492  15.544 -1.4712  0.6717 -0.1313
17820TIP3   OH274950   3.751   5.010  15.695  0.3892  0.6925  0.3123
17820TIP3    H174951   3.694   5.056  15.757  0.1983 -2.3844  2.6736
17820TIP3    H274952   3.694   4.992  15.620 -1.8860 -1.8369  2.3786
17821TIP3   OH274953   2.268   5.063   5.658  0.5759 -0.1128  0.2589
17821TIP3    H174954   2.209   5.003   5.612  2.4465 -0.9841 -1.1224
17821TIP3    H274955   2.214   5.141   5.674 -0.8579 -0.7162 -1.2605
17822TIP3   OH274956   2.683   4.425  13.292 -0.4833 -0.7368 -0.6346
17822TIP3    H174957   2.617   4.450  13.357 -1.1732  0.8180 -1.8668
17822TIP3    H274958   2.662   4.478  13.215  3.4841  1.5678 -0.4150
17823TIP3   OH274959   5.176   2.922  13.194 -0.2517 -0.0504  0.1068
17823TIP3    H174960   5.186   2.913  13.099 -2.7780  0.4608 -0.2896
17823TIP3    H274961   5.127   3.004  13.204  1.1783  0.6397  1.9726
17824TIP3   OH274962   3.950   5.497   6.426  0.7020 -0.2801  0.4892
17824TIP3    H174963   4.000   5.417   6.411  2.1206  0.0851  2.7273
17824TIP3    H274964   3.882   5.471   6.488 -0.0051 -0.1259 -0.2129
17825TIP3   OH274965   0.741   2.755  16.098  0.5494  0.1293  0.0856
17825TIP3    H174966   0.756   2.845  16.067  1.9277  0.2275  0.9566
17825TIP3    H274967   0.680   2.765  16.171  0.9923  0.4047  0.4221
17826TIP3   OH274968   1.762   2.389   3.766 -0.2089  0.2189 -0.0282
17826TIP3    H174969   1.725   2.334   3.697  1.5974 -1.1334  0.0036
17826TIP3    H274970   1.735   2.347   3.848  2.8992 -2.0615  0.0142
17827TIP3   OH274971   3.278   1.437   0.514 -0.4626 -0.6145  0.0490
17827TIP3    H174972   3.288   1.418   0.608 -1.4960  2.9418  1.0307
17827TIP3    H274973   3.186   1.416   0.496 -0.1476 -1.7252 -0.3221
17828TIP3   OH274974   2.925   0.980   3.235  0.1060 -0.0203  0.0938
17828TIP3    H174975   2.928   1.023   3.150 -1.1647  2.4088  1.1795
17828TIP3    H274976   2.833   0.985   3.261  0.1090 -2.4579  0.8360
17829TIP3   OH274977   6.739   0.081   2.737 -0.4257 -0.3004  0.0598
17829TIP3    H174978   6.801   0.154   2.744 -0.2636 -0.4105 -0.2162
17829TIP3    H274979   6.689   0.099   2.657 -0.5456 -0.3716  0.1180
17830TIP3   OH274980   6.745   5.668   5.020  0.0117  0.2648 -0.1791
17830TIP3    H174981   6.652   5.668   5.042 -0.2224  1.0680 -1.0438
17830TIP3    H274982   6.783   5.737   5.075 -0.0281  0.3359 -0.2388
17831TIP3   OH274983   1.486   1.291  11.840 -0.0536  0.2664  0.2285
17831TIP3    H174984   1.409   1.349  11.845  0.1989  0.7392 -0.9505
17831TIP3    H274985   1.532   1.306  11.922 -1.4044 -0.2996  1.1193
17832TIP3   OH274986   0.913   0.510  12.395 -0.1507 -0.3052  0.1021
17832TIP3    H174987   0.993   0.503  12.446  0.5461  0.3842 -0.8627
17832TIP3    H274988   0.936   0.567  12.322 -2.0780  1.6601  0.9062
17833TIP3   OH274989   6.631   6.044   5.088  0.2374 -0.2338 -0.3464
17833TIP3    H174990   6.691   6.002   5.150  0.2294 -1.3008 -1.0272
17833TIP3    H274991   6.686   6.066   5.013 -0.0917 -0.5991 -0.6965
17834TIP3   OH274992   2.316   4.148   1.565 -0.0428  0.4675  0.0200
17834TIP3    H174993   2.403   4.178   1.539 -0.1829  1.1034  0.2726
17834TIP3    H274994   2.256   4.192   1.505 -0.0344 -2.6502 -2.5749
17835TIP3   OH274995   3.712   0.602   3.218 -0.1236  0.0541  0.1997
17835TIP3    H174996   3.624   0.623   3.187  0.1935  0.0504 -0.7339
17835TIP3    H274997   3.770   0.661   3.170  0.3453  0.4499  1.2247
17836TIP3   OH274998   2.380   0.342  11.616 -0.3027  0.2808 -0.4764
17836TIP3    H174999   2.372   0.261  11.667 -0.1200 -0.0412 -0.9417
17836TIP3    H275000   2.407   0.408  11.679  2.1230 -0.5800 -0.5167
17837TIP3   OH275001   0.521   0.594   2.125 -0.4538  0.2771  0.0686
17837TIP3    H175002   0.570   0.600   2.207 -1.0169  0.5012  0.3927
17837TIP3    H275003   0.587   0.571   2.059  0.1305  0.8623  0.4441
17838TIP3   OH275004   5.507   0.070  16.746  0.6097  0.2434  1.1212
17838TIP3    H175005   5.477   0.023  16.824  1.4955 -1.0265  0.7285
17838TIP3    H275006   5.599   0.088  16.763  0.7441  0.1868  0.4904
17839TIP3   OH275007   2.254   2.961  14.983 -0.1359  0.0411 -0.3449
17839TIP3    H175008   2.283   2.927  15.068  2.4372  1.5474 -0.5150
17839TIP3    H275009   2.257   2.885  14.925  1.2918 -0.3869  0.2235
17840TIP3   OH275010   6.811   1.891  15.080 -0.1263 -0.2684 -0.6737
17840TIP3    H175011   6.902   1.869  15.103  0.1656  0.2029 -1.3505
17840TIP3    H275012   6.763   1.810  15.092  0.8079 -1.1555 -2.5071
17841TIP3   OH275013   6.301   2.038   1.015  0.2393 -0.4621 -0.0360
17841TIP3    H175014   6.352   1.957   1.021 -1.8835 -1.8733  0.3195
17841TIP3    H275015   6.247   2.026   0.937 -0.6049  0.2833  0.4202
17842TIP3   OH275016   1.006   4.783   2.401  0.8104  0.2663  0.5000
17842TIP3    H175017   0.914   4.778   2.425  0.4090  0.7092 -0.8498
17842TIP3    H275018   1.033   4.871   2.427  0.5780  0.4859  0.0092
17843TIP3   OH275019   1.122   5.995  12.869 -0.0255  0.1734 -0.2308
17843TIP3    H175020   1.048   5.953  12.826 -1.4617  1.4478  0.8741
17843TIP3    H275021   1.152   5.931  12.933 -1.5956  0.3981  0.7944
17844TIP3   OH275022   4.333   0.874   3.408 -0.7484 -0.4458 -0.1981
17844TIP3    H175023   4.313   0.911   3.322 -0.9290  1.0934  0.4880
17844TIP3    H275024   4.268   0.804   3.419 -1.7773  0.4157 -0.6358
17845TIP3   OH275025   5.402   1.937   4.414 -0.5996  0.0484  0.2833
17845TIP3    H175026   5.379   1.899   4.329 -0.8307 -2.4548  1.3578
17845TIP3    H275027   5.447   2.018   4.393 -0.6717 -0.4813 -2.2246
17846TIP3   OH275028   3.162   5.864   4.521  0.1774  0.6075 -0.1808
17846TIP3    H175029   3.135   5.787   4.572 -1.5179 -0.2589 -2.2292
17846TIP3    H275030   3.254   5.849   4.500 -0.0191 -0.6569 -0.1790
17847TIP3   OH275031   2.117   5.970   3.493  0.5304  0.1172 -0.5910
17847TIP3    H175032   2.092   6.048   3.543  0.4633  1.4582 -2.6136
17847TIP3    H275033   2.039   5.914   3.496  0.7380 -0.1570  1.2754
17848TIP3   OH275034   1.689   2.056   6.455 -0.0962  0.2864  1.0019
17848TIP3    H175035   1.778   2.053   6.489  0.2749 -0.2460  0.0281
17848TIP3    H275036   1.686   1.986   6.389 -0.3294  2.2056 -1.1304
17849TIP3   OH275037   2.255   1.259  16.201 -0.0606  0.4084 -0.6084
17849TIP3    H175038   2.164   1.287  16.196 -1.0910 -2.5226 -0.3601
17849TIP3    H275039   2.279   1.269  16.293 -0.3589  0.5459 -0.5474
17850TIP3   OH275040   1.515   4.841   6.067  0.5639  0.0121  0.7281
17850TIP3    H175041   1.424   4.860   6.090  0.3111 -0.5501  0.2080
17850TIP3    H275042   1.512   4.755   6.025  1.1913  0.4365 -0.2180
17851TIP3   OH275043   4.674   2.489  11.572 -0.2185 -0.8340 -0.2837
17851TIP3    H175044   4.601   2.511  11.629 -0.8120 -0.8554 -1.0208
17851TIP3    H275045   4.750   2.529  11.613 -0.3836 -2.0573  1.2853
17852TIP3   OH275046   1.985   6.180  11.303 -0.4457  0.7126  0.3636
17852TIP3    H175047   1.909   6.228  11.268 -1.9402 -0.9388  1.2096
17852TIP3    H275048   2.056   6.202  11.243 -1.1327  3.6417  0.4794
17853TIP3   OH275049   5.767   5.024   4.971 -0.1352 -0.0384  0.4599
17853TIP3    H175050   5.757   4.950   4.911  0.7031 -1.2848  1.7751
17853TIP3    H275051   5.860   5.045   4.967 -0.1529  0.1494  0.9986
17854TIP3   OH275052   5.865   0.610  13.415  0.0021  0.1914  0.0143
17854TIP3    H175053   5.890   0.628  13.506  2.5196  1.0697 -0.7729
17854TIP3    H275054   5.870   0.515  13.407 -1.6105 -0.0411  1.0881
17855TIP3   OH275055   0.352   6.510   1.862  0.6345 -0.0476  1.0127
17855TIP3    H175056   0.310   6.559   1.932 -0.2338 -0.5651  0.8626
17855TIP3    H275057   0.422   6.461   1.906  0.5482  0.1773  1.4031
17856TIP3   OH275058   6.035   6.747  15.549 -0.2685  0.6919 -0.2084
17856TIP3    H175059   6.057   6.793  15.630 -0.2073  3.0680 -1.4867
17856TIP3    H275060   6.117   6.745  15.500 -0.5550  0.2451 -0.6727
17857TIP3   OH275061   5.458   2.526  10.961  0.1476  0.2126 -0.4547
17857TIP3    H175062   5.481   2.499  10.872  1.6969 -0.6134  0.1558
17857TIP3    H275063   5.457   2.622  10.957 -1.5565  0.1754 -1.7446
17858TIP3   OH275064   4.588   3.615   0.548 -0.0228  0.7349  0.1161
17858TIP3    H175065   4.511   3.569   0.515  0.2442  0.7290 -0.5099
17858TIP3    H275066   4.566   3.708   0.542 -1.1048  0.7235  2.6747
17859TIP3   OH275067   2.603   5.398  13.713  0.4451 -0.9024  0.4703
17859TIP3    H175068   2.601   5.329  13.780 -1.6244 -0.5386  0.8709
17859TIP3    H275069   2.684   5.445  13.729  0.9578 -2.0546  1.4351
17860TIP3   OH275070   0.809   1.226   3.265  0.2223 -0.3547  0.3777
17860TIP3    H175071   0.830   1.307   3.219 -0.7178  0.7164  1.7447
17860TIP3    H275072   0.877   1.219   3.332  0.0350 -0.4403  0.5587
17861TIP3   OH275073   6.508   3.547   0.637  0.3744  0.7401 -0.5820
17861TIP3    H175074   6.459   3.482   0.587  0.4774  0.6256 -0.5341
17861TIP3    H275075   6.441   3.599   0.681  0.3134 -0.5997  0.9974
17862TIP3   OH275076   1.153   5.745   2.009 -0.1012 -0.2619 -0.2482
17862TIP3    H175077   1.108   5.672   1.966 -0.6353  0.0815 -0.2896
17862TIP3    H275078   1.194   5.794   1.937  0.8150 -0.8799 -0.1618
17863TIP3   OH275079   0.569   0.152  15.719 -0.0015  0.0319  0.3915
17863TIP3    H175080   0.477   0.145  15.694  0.2317 -1.0021 -0.2275
17863TIP3    H275081   0.599   0.232  15.676 -0.9658  1.2401  1.8305
17864TIP3   OH275082   4.580   3.761  17.207  0.3670  0.0988  0.2889
17864TIP3    H175083   4.648   3.696  17.193  2.3936  1.5998  2.3720
17864TIP3    H275084   4.507   3.712  17.244  0.5115 -1.4464 -1.3326
17865TIP3   OH275085   2.033   4.018  11.126  0.4969  0.0020  0.1265
17865TIP3    H175086   2.025   3.930  11.091 -0.0544 -0.7769  2.0577
17865TIP3    H275087   2.078   4.068  11.058 -2.0914 -0.8899 -2.3981
17866TIP3   OH275088   6.101   3.208  11.360  0.2329  0.2423  0.0102
17866TIP3    H175089   6.169   3.252  11.308 -0.6785  0.5546 -0.9514
17866TIP3    H275090   6.132   3.118  11.369  1.8853  0.9081  1.5848
17867TIP3   OH275091   3.313   2.995   0.841 -1.1169 -0.6055 -0.2699
17867TIP3    H175092   3.265   2.924   0.798 -1.4511 -0.1795 -0.6216
17867TIP3    H275093   3.324   2.967   0.931 -1.5746 -0.9432 -0.3163
17868TIP3   OH275094   5.484   4.219  17.239 -0.2444 -0.1937  0.0626
17868TIP3    H175095   5.426   4.272  17.295  1.9304  0.6033  1.7229
17868TIP3    H275096   5.478   4.131  17.275  0.2836  0.0917  0.8924
17869TIP3   OH275097   4.127   5.262   6.271 -0.2342  0.2415  0.1186
17869TIP3    H175098   4.154   5.299   6.187  0.0482 -0.3997 -0.0743
17869TIP3    H275099   4.122   5.168   6.256  0.8400  0.0092  1.0856
17870TIP3   OH275100   5.824   4.641  14.145  0.4313 -0.0653  0.3052
17870TIP3    H175101   5.762   4.699  14.102  0.3992 -1.2312 -1.3253
17870TIP3    H275102   5.771   4.572  14.183  0.6652 -0.8668 -0.7749
17871TIP3   OH275103   3.547   6.813  12.525  0.5458 -0.1313  0.0437
17871TIP3    H175104   3.610   6.826  12.595  0.4889  1.4025 -0.1651
17871TIP3    H275105   3.514   6.724  12.539 -0.1463  0.4426  2.5236
17872TIP3   OH275106   5.398   5.300   5.180  0.4073 -0.2199  0.0617
17872TIP3    H175107   5.471   5.276   5.123 -0.9166 -0.9728 -1.3805
17872TIP3    H275108   5.325   5.248   5.148 -0.8680  0.8058  1.2162
17873TIP3   OH275109   1.672   1.342  14.934  0.7329 -0.1326  0.2644
17873TIP3    H175110   1.589   1.381  14.904  1.2005  0.9607  0.3446
17873TIP3    H275111   1.709   1.303  14.856  0.4469 -0.0556  0.0862
17874TIP3   OH275112   2.730   1.724  16.106  0.3510  0.9150 -0.2358
17874TIP3    H175113   2.736   1.671  16.185  0.0151  2.2929  0.7399
17874TIP3    H275114   2.820   1.729  16.074  0.5646  0.7433  0.3264
17875TIP3   OH275115   5.178   1.514  17.173 -0.1085  0.4197  0.1264
17875TIP3    H175116   5.113   1.494  17.106  1.1934 -0.2158 -0.9879
17875TIP3    H275117   5.241   1.442  17.168  0.6632  0.9830  1.2087
17876TIP3   OH275118   4.771   4.432   2.453  0.4004  0.1026 -0.3039
17876TIP3    H175119   4.683   4.403   2.479 -0.4335  0.3445 -2.6101
17876TIP3    H275120   4.802   4.483   2.528 -1.1074 -0.6183  0.8734
17877TIP3   OH275121   3.308   1.208   3.721 -0.2133  0.0707 -0.6100
17877TIP3    H175122   3.326   1.205   3.815 -1.1665 -0.8639 -0.4489
17877TIP3    H275123   3.241   1.142   3.707  0.4191 -0.3036 -2.0707
17878TIP3   OH275124   0.849   2.157   3.212  0.2226 -0.6058 -0.3295
17878TIP3    H175125   0.918   2.096   3.238  1.2475  1.1910  1.4131
17878TIP3    H275126   0.865   2.175   3.120  0.6066 -2.0137 -0.5659
17879TIP3   OH275127   5.468   0.303  14.989  0.0660  0.3545  0.0036
17879TIP3    H175128   5.429   0.349  15.064 -3.1204 -2.1270  0.1231
17879TIP3    H275129   5.453   0.360  14.914 -1.2831  0.7453  0.5509
17880TIP3   OH275130   2.782   5.922  10.774 -0.0693  0.5831 -0.4545
17880TIP3    H175131   2.789   5.922  10.678  0.3900  2.6550 -0.4723
17880TIP3    H275132   2.690   5.903  10.791 -0.1689  0.2634 -1.3091
17881TIP3   OH275133   2.597   2.900   2.883 -0.3216 -0.1042  0.2099
17881TIP3    H175134   2.553   2.818   2.904  0.6418 -0.1419  2.3378
17881TIP3    H275135   2.655   2.916   2.957 -0.4710  2.5066 -0.1361
17882TIP3   OH275136   2.398   0.483  14.813 -0.8109  0.2150 -0.5467
17882TIP3    H175137   2.392   0.572  14.849 -1.0811  0.6156 -1.5371
17882TIP3    H275138   2.428   0.496  14.723  0.1272 -0.7770 -0.3899
17883TIP3   OH275139   2.404   5.356   5.603 -0.2636  0.1520 -0.2253
17883TIP3    H175140   2.341   5.375   5.534 -0.4059  0.4190 -0.0250
17883TIP3    H275141   2.462   5.290   5.565  0.6752  1.4754 -1.2120
17884TIP3   OH275142   0.161   0.836  11.227  0.1497 -0.3664 -0.2032
17884TIP3    H175143   0.183   0.909  11.284 -1.6205  1.8864 -2.2238
17884TIP3    H275144   0.102   0.781  11.278  1.2335 -0.2418  1.2242
17885TIP3   OH275145   5.762   6.204  12.890 -0.0764  0.3712 -0.0580
17885TIP3    H175146   5.835   6.257  12.923 -0.3076  1.1066 -0.7015
17885TIP3    H275147   5.787   6.182  12.801  0.9321 -2.3147  0.7903
17886TIP3   OH275148   2.941   3.180   4.686  0.6324  0.0621 -0.1060
17886TIP3    H175149   2.922   3.223   4.603  0.1039  0.5387  0.2496
17886TIP3    H275150   2.975   3.250   4.742  0.2448 -0.0746  0.3175
17887TIP3   OH275151   1.752   4.984   5.009 -0.0570  0.7019  0.3237
17887TIP3    H175152   1.821   5.045   4.981  0.3320 -0.4376 -1.3080
17887TIP3    H275153   1.693   4.979   4.934  0.3660 -1.5363  0.0883
17888TIP3   OH275154   4.040   1.893  11.338 -0.3714 -0.1910  0.2072
17888TIP3    H175155   4.045   1.825  11.406 -0.5684  1.0544  1.5033
17888TIP3    H275156   4.099   1.962  11.369 -0.5400  0.4381 -0.8483
17889TIP3   OH275157   2.560   5.499  16.700  0.8132  0.7684  0.5199
17889TIP3    H175158   2.539   5.473  16.790  0.3345 -0.0303  0.1888
17889TIP3    H275159   2.592   5.589  16.708  2.1805  0.2051  1.6527
17890TIP3   OH275160   5.406   6.150  13.390  0.2961 -0.1640 -0.0097
17890TIP3    H175161   5.335   6.202  13.427  0.5663  0.6065 -0.5349
17890TIP3    H275162   5.435   6.200  13.314 -0.3062 -1.7455 -1.3311
17891TIP3   OH275163   3.618   5.325   2.680 -0.4132 -0.2886  0.1257
17891TIP3    H175164   3.583   5.288   2.761  1.7527 -0.4720  1.0235
17891TIP3    H275165   3.580   5.270   2.611 -0.2526 -1.8101  1.1900
17892TIP3   OH275166   4.853   6.115   4.892 -0.3052 -0.3582  0.0385
17892TIP3    H175167   4.847   6.208   4.869 -1.6305 -0.6365 -0.8400
17892TIP3    H275168   4.939   6.088   4.860  0.1966  0.6072  0.5222
17893TIP3   OH275169   0.355   2.733  14.688 -0.4725 -0.8359 -0.0830
17893TIP3    H175170   0.277   2.701  14.733 -1.6878 -0.8106 -2.0339
17893TIP3    H275171   0.405   2.654  14.667  0.0042 -0.8604  1.0770
17894TIP3   OH275172   1.893   4.908   0.279  0.4525 -0.6681  0.1663
17894TIP3    H175173   1.916   4.965   0.206  0.1703 -0.3503  0.3246
17894TIP3    H275174   1.798   4.901   0.275  0.2200  0.9664  1.6818
17895TIP3   OH275175   5.436   6.349   2.443  0.1245 -0.0713 -0.1881
17895TIP3    H175176   5.482   6.265   2.450 -0.9304 -0.6858 -0.5369
17895TIP3    H275177   5.445   6.374   2.351  0.3403  0.1495 -0.1089
17896TIP3   OH275178   3.937   3.707  15.526  0.3958  0.1708  0.0475
17896TIP3    H175179   3.911   3.726  15.616 -0.8318 -0.0565 -0.2321
17896TIP3    H275180   3.870   3.752  15.473  1.4267  0.7823 -0.7635
17897TIP3   OH275181   6.221   2.581   3.290 -0.3260  0.1294  0.1417
17897TIP3    H175182   6.296   2.549   3.340 -1.7181 -1.6008  1.2885
17897TIP3    H275183   6.242   2.559   3.199  0.5434 -0.3744  0.4466
17898TIP3   OH275184   6.095   1.260  12.433  0.0731 -0.3584  0.3793
17898TIP3    H175185   6.160   1.317  12.474 -0.5025 -0.4818  1.4897
17898TIP3    H275186   6.040   1.320  12.382 -0.2321  0.0321  1.1497
17899TIP3   OH275187   2.518   5.700  16.434  0.4214 -0.0611 -0.4404
17899TIP3    H175188   2.586   5.633  16.435  0.5901 -0.1499 -3.9389
17899TIP3    H275189   2.564   5.783  16.440  0.3979 -0.1663  1.6597
17900TIP3   OH275190   3.385   1.672   3.427 -0.2831 -0.0981  0.1840
17900TIP3    H175191   3.321   1.642   3.363 -0.4068 -0.4025  0.4446
17900TIP3    H275192   3.400   1.596   3.484  0.1072  0.0495  0.2882
17901TIP3   OH275193   4.764   6.126  15.986  0.1840 -0.2227 -0.1704
17901TIP3    H175194   4.768   6.082  16.071  2.1082 -1.0758 -0.6518
17901TIP3    H275195   4.710   6.069  15.932 -1.4379  0.5560  0.5631
17902TIP3   OH275196   2.864   6.470   2.726  0.3233  0.1054  0.0083
17902TIP3    H175197   2.800   6.399   2.732  0.5356 -0.2413 -1.4965
17902TIP3    H275198   2.949   6.426   2.725  0.6253  0.5509  1.7771
17903TIP3   OH275199   2.312   6.056  13.232  0.1070  0.2951 -0.5514
17903TIP3    H175200   2.318   6.137  13.283 -0.0765 -0.1633  0.2224
17903TIP3    H275201   2.228   6.063  13.187  0.3192  0.7542 -0.8912
17904TIP3   OH275202   0.933   6.227  12.900 -0.2388  0.5823  0.7073
17904TIP3    H175203   1.007   6.167  12.911 -0.2100 -0.1385 -2.4363
17904TIP3    H275204   0.859   6.180  12.940  0.2689 -0.4137  0.5172
17905TIP3   OH275205   4.058   0.518  14.799 -0.1232 -0.0169  0.1069
17905TIP3    H175206   4.110   0.458  14.852 -0.5727 -1.6897 -1.2218
17905TIP3    H275207   3.967   0.496  14.819 -0.3294  1.3229  0.7464
17906TIP3   OH275208   5.418   1.733  16.028 -0.6337  0.0695 -0.2767
17906TIP3    H175209   5.451   1.823  16.035 -0.4851 -0.1051  1.6554
17906TIP3    H275210   5.444   1.691  16.109 -1.1852 -1.5877 -0.9129
17907TIP3   OH275211   6.125   2.790  16.499 -0.0730  0.4655 -0.1907
17907TIP3    H175212   6.168   2.725  16.555 -0.5160 -1.5133 -2.0503
17907TIP3    H275213   6.036   2.797  16.535  0.4285  1.2896  0.9731
17908TIP3   OH275214   1.701   2.979   2.350  0.0995 -0.0567  0.1824
17908TIP3    H175215   1.688   2.994   2.256  2.5459 -1.8213 -0.5257
17908TIP3    H275216   1.792   3.002   2.365  0.2652 -1.5443  1.7187
17909TIP3   OH275217   0.265   2.367  10.887 -0.2163  0.1489 -0.0540
17909TIP3    H175218   0.356   2.392  10.872 -0.5230  1.3456  0.0012
17909TIP3    H275219   0.238   2.325  10.806  0.4809 -0.5291  0.0510
17910TIP3   OH275220   1.456   4.979  13.174 -0.2524  0.1660 -0.1454
17910TIP3    H175221   1.435   4.968  13.267 -1.1948  0.9012 -0.2536
17910TIP3    H275222   1.386   5.036  13.141  0.2400  0.1463 -1.2392
17911TIP3   OH275223   1.687   5.065  14.172  0.7102 -0.5338  0.1732
17911TIP3    H175224   1.754   4.996  14.175  0.4876 -0.7845 -0.5952
17911TIP3    H275225   1.651   5.067  14.261  1.1543 -0.9764  0.3653
17912TIP3   OH275226   0.047   3.898  10.780 -0.0097 -0.3521 -0.2422
17912TIP3    H175227   0.072   3.865  10.694  0.6543 -1.0708  0.2142
17912TIP3    H275228   0.125   3.945  10.811 -1.0641  2.1433 -1.0761
17913TIP3   OH275229   3.276   5.918  15.188 -0.8194 -0.1443 -0.2177
17913TIP3    H175230   3.265   5.835  15.234  0.0059 -0.5680 -0.7716
17913TIP3    H275231   3.359   5.909  15.142 -0.9125  0.8456 -0.5931
17914TIP3   OH275232   0.559   2.016  11.636 -0.4417 -0.0971  0.0955
17914TIP3    H175233   0.475   2.052  11.664  0.2073  2.5537 -1.0972
17914TIP3    H275234   0.623   2.052  11.698 -0.0497 -1.5235  0.5680
17915TIP3   OH275235   0.421   3.897   1.916 -0.3616  0.5110 -0.5791
17915TIP3    H175236   0.410   3.962   1.986 -0.0066 -0.2216  0.1739
17915TIP3    H275237   0.495   3.929   1.865  0.2426  0.3679  0.1862
17916TIP3   OH275238   4.648   5.484  14.349 -0.5580 -0.2071  0.1759
17916TIP3    H175239   4.736   5.474  14.314  0.1277 -1.3474  2.1103
17916TIP3    H275240   4.609   5.397  14.343 -0.7263 -0.2340  1.3874
17917TIP3   OH275241   4.175   3.918   2.166  0.3473  0.8624 -0.2262
17917TIP3    H175242   4.194   3.931   2.073 -0.6453 -2.1905 -0.9868
17917TIP3    H275243   4.089   3.959   2.179 -0.3067 -0.1493 -1.1558
17918TIP3   OH275244   0.804   4.831   0.595 -0.1503 -0.1771  0.4835
17918TIP3    H175245   0.865   4.782   0.650  0.3063 -1.8693 -1.4243
17918TIP3    H275246   0.860   4.884   0.538 -0.4154 -1.4883 -1.0577
17919TIP3   OH275247   6.376   1.678   3.743 -0.2085  0.0639  0.2895
17919TIP3    H175248   6.288   1.671   3.781 -1.2761 -2.3007 -2.2668
17919TIP3    H275249   6.430   1.618   3.794 -0.7519 -0.4370  0.2822
17920TIP3   OH275250   5.026   0.699  11.369 -0.0518 -0.0860 -0.3439
17920TIP3    H175251   4.983   0.638  11.309  1.2593 -1.3526 -0.0486
17920TIP3    H275252   5.118   0.698  11.342  0.3256  0.2959  0.8804
17921TIP3   OH275253   3.413   3.304  12.162  0.4097 -0.2851 -0.0779
17921TIP3    H175254   3.340   3.256  12.200  1.3967 -0.4181  1.7464
17921TIP3    H275255   3.481   3.237  12.148  0.5330 -0.0068 -0.8761
17922TIP3   OH275256   1.971   6.681   4.634  0.5250 -0.6391 -0.1398
17922TIP3    H175257   1.987   6.693   4.541  0.0077 -0.5124 -0.2098
17922TIP3    H275258   1.896   6.622   4.639  1.0615 -1.3080  0.2006
17923TIP3   OH275259   4.134   0.926  17.102 -0.6664  0.2295  0.0060
17923TIP3    H175260   4.213   0.937  17.154 -1.1423  1.5492  0.4954
17923TIP3    H275261   4.089   0.852  17.142 -1.3858  1.6734  2.0049
17924TIP3   OH275262   4.123   1.292  15.017 -0.1346 -0.1878  0.1638
17924TIP3    H175263   4.176   1.371  15.029 -2.2746  1.3851 -0.0297
17924TIP3    H275264   4.119   1.252  15.104  2.5298 -1.2487 -0.0967
17925TIP3   OH275265   2.925   2.225  16.982  0.0310 -0.5288 -0.3676
17925TIP3    H175266   2.874   2.301  17.011  0.2531  0.0410 -1.4058
17925TIP3    H275267   2.890   2.205  16.895  1.4419 -0.2051 -1.0529
17926TIP3   OH275268   1.903   0.303  12.622 -0.0538  0.2820  0.1005
17926TIP3    H175269   1.921   0.312  12.528 -2.4889  0.5660 -0.3887
17926TIP3    H275270   1.909   0.392  12.657 -0.7187  0.4056 -0.0992
17927TIP3   OH275271   6.259   2.448  15.250  0.0480 -0.2269  0.3839
17927TIP3    H175272   6.214   2.486  15.325  1.0853 -1.0224  1.4424
17927TIP3    H275273   6.306   2.372  15.286 -1.7921 -2.4787 -1.5636
17928TIP3   OH275274   2.526   4.597  13.737 -0.0930  0.0244 -0.3351
17928TIP3    H175275   2.497   4.679  13.698  1.4123  1.1351  0.7433
17928TIP3    H275276   2.462   4.579  13.806  0.3004  1.0673  0.3343
17929TIP3   OH275277   4.246   4.647   5.450 -0.5913  0.4849  0.2010
17929TIP3    H175278   4.193   4.574   5.419 -1.6478  1.7316 -1.0982
17929TIP3    H275279   4.302   4.610   5.518 -0.3998 -1.7185 -1.0802
17930TIP3   OH275280   3.385   2.457   6.002  0.1302  0.2071 -0.0107
17930TIP3    H175281   3.296   2.447   6.035  0.5926 -0.8589  0.9851
17930TIP3    H275282   3.374   2.492   5.914 -1.2234  1.1075  0.4836
17931TIP3   OH275283   4.712   2.352   3.321  0.1204 -0.3876  0.1173
17931TIP3    H175284   4.786   2.304   3.359 -0.1987  0.0867  1.3566
17931TIP3    H275285   4.754   2.416   3.263  0.6164 -0.9280 -0.1442
17932TIP3   OH275286   0.094   0.380  13.400  0.6058 -0.1607 -0.0478
17932TIP3    H175287   0.031   0.405  13.468  1.2219  0.2434  0.3874
17932TIP3    H275288   0.044   0.324  13.341  0.4655 -1.8858  1.6296
17933TIP3   OH275289   6.196   2.382   2.894 -0.3580  0.8480 -0.0545
17933TIP3    H175290   6.277   2.338   2.870 -1.4138  0.0473 -2.4906
17933TIP3    H275291   6.224   2.459   2.944  1.7576 -0.2769  0.6107
17934TIP3   OH275292   1.815   5.196   5.847 -0.0679  0.1927 -0.1168
17934TIP3    H175293   1.837   5.237   5.931 -2.4037  1.9865 -0.2700
17934TIP3    H275294   1.760   5.121   5.870  0.7023 -0.3587 -0.0176
17935TIP3   OH275295   2.169   3.393   4.616  0.0716 -0.7807  0.6727
17935TIP3    H175296   2.101   3.444   4.571 -1.3541 -3.7863 -0.9349
17935TIP3    H275297   2.248   3.408   4.566  0.0953  0.9919  1.1838
17936TIP3   OH275298   3.979   4.868   5.556 -0.3576  0.6540  0.4708
17936TIP3    H175299   3.967   4.795   5.617 -0.2126 -0.5745 -0.9361
17936TIP3    H275300   3.895   4.874   5.510 -0.9360  2.4349  1.6388
17937TIP3   OH275301   0.009   1.303   0.188 -0.2318  0.1615  0.0292
17937TIP3    H175302  -0.045   1.382   0.194  0.9142  0.8881  0.9858
17937TIP3    H275303   0.095   1.334   0.163  0.0624 -0.8677 -0.2811
17938TIP3   OH275304   6.400   2.406   3.622  1.0559  0.1137 -0.3486
17938TIP3    H175305   6.393   2.327   3.675 -0.7495 -0.6187 -1.5506
17938TIP3    H275306   6.406   2.374   3.532  0.9923  1.3315 -0.8104
17939TIP3   OH275307   4.642   3.554   6.221  0.8415  0.4242  0.1530
17939TIP3    H175308   4.667   3.528   6.310  2.0809  0.8741 -0.0407
17939TIP3    H275309   4.550   3.529   6.214  1.0824 -0.8708  1.0933
17940TIP3   OH275310   1.295   4.551   4.837  0.0904  0.5627 -0.0196
17940TIP3    H175311   1.356   4.595   4.777  0.2504  1.4569  0.7883
17940TIP3    H275312   1.348   4.485   4.881  0.0091  0.0074 -0.7280
17941TIP3   OH275313   3.194   0.812   2.954 -0.3453  0.4088  0.2100
17941TIP3    H175314   3.185   0.843   2.864 -2.0360  1.0670  0.5791
17941TIP3    H275315   3.115   0.762   2.971 -0.3208  0.7761  1.5100
17942TIP3   OH275316   4.604   0.418   4.052 -0.2741  0.5459  0.0707
17942TIP3    H175317   4.692   0.429   4.088 -0.6933  2.4051  0.6014
17942TIP3    H275318   4.588   0.324   4.058  0.9899  0.3852  1.5953
17943TIP3   OH275319   2.874   2.785   6.172  0.2370 -0.3662  1.0594
17943TIP3    H175320   2.793   2.805   6.218 -1.2227 -0.7677 -1.2090
17943TIP3    H275321   2.909   2.709   6.218 -2.7031 -2.6209 -0.0804
17944TIP3   OH275322   3.632   2.387  12.066  0.4297  0.1534  0.2605
17944TIP3    H175323   3.590   2.456  12.015  0.2395 -0.9148 -1.0838
17944TIP3    H275324   3.693   2.346  12.004 -1.2308 -2.4864  0.2022
17945TIP3   OH275325   6.618   0.673  16.742  0.1204  0.0595 -0.2862
17945TIP3    H175326   6.673   0.748  16.719  0.7858 -0.5667 -0.7912
17945TIP3    H275327   6.618   0.618  16.664 -1.2859  0.0623 -0.3218
17946TIP3   OH275328   5.967   5.233  12.144  0.1174  0.4515  0.6444
17946TIP3    H175329   5.961   5.145  12.182 -0.2162  0.5863  0.9095
17946TIP3    H275330   5.956   5.292  12.218 -2.0943  0.7291  0.1463
17947TIP3   OH275331   1.996   2.003  12.500  0.3068  0.1666  0.0577
17947TIP3    H175332   1.988   2.080  12.556 -1.0341  0.6239 -0.7260
17947TIP3    H275333   1.909   1.991  12.462  0.3877 -1.9368  0.4097
17948TIP3   OH275334   3.180   3.562   4.175 -0.2948  0.6672 -0.1490
17948TIP3    H175335   3.172   3.469   4.154  0.5360  0.7333 -0.8353
17948TIP3    H275336   3.269   3.571   4.209  0.3663  1.5342 -1.9769
17949TIP3   OH275337   5.688   3.542  15.021  0.0633 -0.1781 -0.2294
17949TIP3    H175338   5.647   3.609  14.967  0.1830 -0.4503 -0.6658
17949TIP3    H275339   5.688   3.464  14.966  2.1373  0.0678 -0.6530
17950TIP3   OH275340   2.588   2.561  13.321 -0.1753  0.5309  0.4151
17950TIP3    H175341   2.540   2.514  13.253 -0.3715  0.3282  0.6901
17950TIP3    H275342   2.577   2.653  13.300  0.6634  0.4528 -0.4480
17951TIP3   OH275343   6.271   5.899  14.900  0.0310  0.0954  0.6573
17951TIP3    H175344   6.333   5.948  14.845 -2.1047  2.3487  0.0806
17951TIP3    H275345   6.317   5.887  14.983  1.5430  0.9396 -0.0109
17952TIP3   OH275346   2.506   0.953  16.861 -0.0559  0.2862  0.6243
17952TIP3    H175347   2.473   0.879  16.811 -2.5253  0.8242  1.3107
17952TIP3    H275348   2.517   0.920  16.949  1.4025  0.0964  0.3879
17953TIP3   OH275349   4.672   2.255   2.037 -0.3752  0.5561  0.1370
17953TIP3    H175350   4.756   2.301   2.034  0.7970 -1.5319 -0.2201
17953TIP3    H275351   4.686   2.174   1.989 -2.5150 -0.0081  0.3541
17954TIP3   OH275352   3.053   2.929  11.687  0.2522  0.3845  0.3352
17954TIP3    H175353   3.106   2.950  11.611 -2.5796  1.1617 -1.6013
17954TIP3    H275354   2.998   2.855  11.659  0.0278 -0.1820  2.1018
17955TIP3   OH275355   4.392   6.374   3.455  0.2590  0.3696 -0.6399
17955TIP3    H175356   4.415   6.282   3.466 -0.0048  0.2869 -0.7635
17955TIP3    H275357   4.433   6.418   3.529  0.0987  0.0984 -0.3875
17956TIP3   OH275358   2.178   3.123   5.319 -0.1609 -0.3818  0.0287
17956TIP3    H175359   2.221   3.190   5.266  0.3331  0.1269  1.0594
17956TIP3    H275360   2.097   3.164   5.348 -1.1078 -1.1291 -1.4026
17957TIP3   OH275361   2.600   3.971  13.961  0.0041 -0.1114  0.0821
17957TIP3    H175362   2.684   3.977  14.006  0.4502 -1.8466 -0.4363
17957TIP3    H275363   2.584   4.059  13.926  1.3570  0.3578  0.6207
17958TIP3   OH275364   1.551   0.439  15.965  0.1732  0.3574  0.1253
17958TIP3    H175365   1.495   0.425  15.889  0.8865 -0.1932 -0.3165
17958TIP3    H275366   1.506   0.506  16.017 -0.8821 -0.0729 -0.2114
17959TIP3   OH275367   3.151   2.374   3.420  0.6903  0.6321  0.7053
17959TIP3    H175368   3.063   2.410   3.423  0.6588  0.5270  1.1010
17959TIP3    H275369   3.162   2.344   3.330 -0.0623 -0.3139  0.9109
17960TIP3   OH275370   1.870   1.386  10.758  0.0929  0.2404  0.2015
17960TIP3    H175371   1.938   1.377  10.825 -2.4824 -2.3260  2.7952
17960TIP3    H275372   1.892   1.319  10.693 -0.9559 -2.1687  2.1670
17961TIP3   OH275373   0.832   3.275   2.406 -0.0123  0.1429 -0.0650
17961TIP3    H175374   0.859   3.367   2.413  1.0719 -0.3062  2.8792
17961TIP3    H275375   0.766   3.264   2.475 -2.1601 -0.7205 -2.1117
17962TIP3   OH275376   3.440   5.728   2.417 -0.0166 -0.1512 -0.6442
17962TIP3    H175377   3.461   5.660   2.353  0.7800 -0.1242 -0.4288
17962TIP3    H275378   3.347   5.744   2.406 -0.0853 -0.8350 -1.1304
17963TIP3   OH275379   2.735   4.418   5.597 -0.2693 -0.0158 -0.2377
17963TIP3    H175380   2.680   4.493   5.620 -0.7469 -0.0753 -1.1588
17963TIP3    H275381   2.698   4.345   5.648 -0.7541  0.0452 -0.5005
17964TIP3   OH275382   5.485   2.325   3.135  0.4072 -0.4080 -0.4519
17964TIP3    H175383   5.459   2.245   3.089  0.3155  0.3020 -1.6947
17964TIP3    H275384   5.436   2.395   3.091  2.5174  0.6714 -1.2575
17965TIP3   OH275385   1.968   5.724  10.984 -0.4078  0.5756  0.1752
17965TIP3    H175386   2.000   5.762  10.902 -0.8164  0.6684  0.0559
17965TIP3    H275387   1.874   5.713  10.970 -0.4363  0.3389  0.5337
17966TIP3   OH275388   5.742   5.588  11.823 -1.0381  0.0328  0.4877
17966TIP3    H175389   5.761   5.544  11.905  1.3227 -0.9052 -0.4562
17966TIP3    H275390   5.719   5.518  11.762 -1.0194  0.5064 -0.0856
17967TIP3   OH275391   2.809   4.509  14.317 -0.1740 -0.0603  0.2052
17967TIP3    H175392   2.903   4.507  14.297 -0.5215  1.4107 -1.8978
17967TIP3    H275393   2.781   4.596  14.291 -1.9844 -0.1834  1.6037
17968TIP3   OH275394   4.013   5.607   1.563  0.2500 -0.7633 -0.0806
17968TIP3    H175395   4.015   5.686   1.617  1.6582 -1.2510  0.6466
17968TIP3    H275396   3.977   5.540   1.621  1.2899 -1.1732  0.1207
17969TIP3   OH275397   5.172   3.790  15.391 -0.1215  0.3487  0.2141
17969TIP3    H175398   5.170   3.701  15.355 -0.4533  0.4673 -0.0667
17969TIP3    H275399   5.258   3.797  15.432  0.8581  0.6785 -1.7889
17970TIP3   OH275400   4.908   3.127  13.924 -0.2646  0.1727 -0.1261
17970TIP3    H175401   4.828   3.082  13.952  0.2697 -0.1225  0.9916
17970TIP3    H275402   4.931   3.084  13.842 -0.5087 -0.6887  0.2356
17971TIP3   OH275403   1.999   2.056   0.362  0.3006  0.2944  0.0663
17971TIP3    H175404   1.923   2.066   0.306  0.3153 -1.6713 -0.3872
17971TIP3    H275405   2.043   2.141   0.359 -0.7140  0.7999 -1.3741
17972TIP3   OH275406   2.193   4.525  16.019 -0.5651 -0.3124 -0.0947
17972TIP3    H175407   2.241   4.608  16.020 -0.5129 -0.3416  0.5248
17972TIP3    H275408   2.106   4.549  15.989 -0.1197 -0.2946 -1.4498
17973TIP3   OH275409   5.125   0.996  11.504 -0.2192 -0.0422 -0.1506
17973TIP3    H175410   5.159   1.085  11.514 -0.2894 -0.1881  1.8770
17973TIP3    H275411   5.152   0.969  11.416 -0.7175  2.1783 -1.0324
17974TIP3   OH275412   4.877   2.976  14.229 -0.0145  0.2283  0.4178
17974TIP3    H175413   4.793   2.961  14.185  0.1927  0.2514  0.0029
17974TIP3    H275414   4.942   2.939  14.168  0.2456 -0.1442  0.9163
17975TIP3   OH275415   3.634   0.693   1.695 -0.0745 -0.2994  0.6770
17975TIP3    H175416   3.696   0.763   1.716 -1.3474  0.8302  0.8377
17975TIP3    H275417   3.589   0.724   1.617 -2.4684  0.3711  2.1845
17976TIP3   OH275418   4.215   0.614  16.600 -0.0275 -0.5645 -0.0424
17976TIP3    H175419   4.151   0.634  16.669 -1.4382  0.0704 -1.4470
17976TIP3    H275420   4.221   0.519  16.599 -3.9227 -0.9986 -2.2710
17977TIP3   OH275421   4.172   0.414   5.838 -0.0580 -0.2430 -0.1750
17977TIP3    H175422   4.096   0.356   5.829  0.5408 -0.8994 -1.2213
17977TIP3    H275423   4.233   0.365   5.894 -0.5748  0.4843  1.0577
17978TIP3   OH275424   0.325   5.642   5.625 -0.2081 -0.1249  0.1955
17978TIP3    H175425   0.307   5.682   5.710  1.9538 -1.4092  1.3462
17978TIP3    H275426   0.274   5.562   5.624  1.3931 -1.2208  1.2955
17979TIP3   OH275427   1.774   2.275  13.486  0.0154  0.2341  0.0101
17979TIP3    H175428   1.729   2.251  13.567 -0.8923  0.1782 -0.4999
17979TIP3    H275429   1.751   2.367  13.473  1.4749  0.7261  0.6485
17980TIP3   OH275430   2.061   5.058  16.412 -0.5551  0.0560  0.0629
17980TIP3    H175431   1.982   5.100  16.446 -0.1239  1.4957 -0.6213
17980TIP3    H275432   2.132   5.115  16.441  0.2185 -1.0493  0.4029
17981TIP3   OH275433   5.342   5.785   4.499 -0.0344 -0.4081  0.0064
17981TIP3    H175434   5.387   5.730   4.563  0.2113  0.5493  0.6804
17981TIP3    H275435   5.337   5.731   4.420  2.7750 -0.3847 -0.2927
17982TIP3   OH275436   0.825   3.746  16.241 -0.2183 -0.2055 -0.3618
17982TIP3    H175437   0.819   3.706  16.154  0.3019  0.7388 -0.8478
17982TIP3    H275438   0.799   3.837  16.227 -1.5920 -0.3926  0.7645
17983TIP3   OH275439   3.079   6.804  14.831 -0.1749 -0.5218 -0.2734
17983TIP3    H175440   3.125   6.869  14.777  0.4802  0.1271  1.0271
17983TIP3    H275441   3.109   6.821  14.920 -1.9444 -0.9609  0.4398
17984TIP3   OH275442   0.917   6.193   2.515  0.2905 -0.0201 -0.0538
17984TIP3    H175443   0.892   6.152   2.432  0.3524  1.3131 -0.7620
17984TIP3    H275444   0.929   6.120   2.576 -1.9848 -0.9382 -0.5853
17985TIP3   OH275445   1.707   1.582   4.995  0.0441 -0.1039 -0.2912
17985TIP3    H175446   1.691   1.559   4.903  2.5093  0.4871 -0.9374
17985TIP3    H275447   1.727   1.675   4.993 -0.0322 -0.0505  0.8854
17986TIP3   OH275448   6.304   0.898   0.605 -0.3342 -0.1906  0.0918
17986TIP3    H175449   6.271   0.983   0.635 -1.4370 -0.1296 -1.1618
17986TIP3    H275450   6.297   0.903   0.509 -2.2829 -2.3472  0.0249
17987TIP3   OH275451   2.678   6.493  16.881 -0.3300 -0.6709 -0.3236
17987TIP3    H175452   2.588   6.500  16.851 -0.5325 -0.1029  0.3681
17987TIP3    H275453   2.671   6.452  16.968 -0.0488  0.5175  0.2812
17988TIP3   OH275454   5.559   6.421  14.377 -0.0346 -0.3393  0.3391
17988TIP3    H175455   5.630   6.365  14.347  0.8322  0.1041  1.4681
17988TIP3    H275456   5.533   6.472  14.300  1.3697  0.0109  0.0824
17989TIP3   OH275457   4.649   1.732  15.786 -0.3102  0.2327 -0.2602
17989TIP3    H175458   4.597   1.747  15.707 -1.0428 -2.8805 -0.5231
17989TIP3    H275459   4.736   1.708  15.754  0.1573  1.5152  0.0146
17990TIP3   OH275460   4.516   0.810  13.347  0.4691  0.0969 -0.5118
17990TIP3    H175461   4.559   0.799  13.431 -0.0958  0.0295 -0.2276
17990TIP3    H275462   4.578   0.774  13.283 -0.2493 -2.4784  0.1320
17991TIP3   OH275463   0.821   3.205  14.873  0.9901  0.0038 -0.1820
17991TIP3    H175464   0.814   3.297  14.849 -2.8748 -0.1015 -0.0544
17991TIP3    H275465   0.802   3.157  14.793 -1.7467 -0.4882  0.6430
17992TIP3   OH275466   0.992   2.028  14.149  0.0504 -0.4109  0.3552
17992TIP3    H175467   0.968   2.109  14.104 -1.4827 -0.7083  0.5484
17992TIP3    H275468   1.042   2.056  14.225  0.1607  0.3012  0.0275
17993TIP3   OH275469   6.462   5.663  16.162  0.1121  0.2714  0.3890
17993TIP3    H175470   6.472   5.717  16.241  0.0271  1.1845 -0.2118
17993TIP3    H275471   6.369   5.642  16.159 -0.1002  1.1985 -0.0638
17994TIP3   OH275472   4.139   3.711  16.658 -0.1955  0.2757 -0.2102
17994TIP3    H175473   4.147   3.665  16.741  0.3107  1.5621  0.4844
17994TIP3    H275474   4.227   3.742  16.639  0.0057 -1.1968 -1.9799
17995TIP3   OH275475   2.210   4.948  12.301 -0.2580  0.5215  0.7537
17995TIP3    H175476   2.203   4.980  12.211 -1.0909  0.0959  0.6514
17995TIP3    H275477   2.279   4.883  12.298 -0.7740 -0.0195  0.2506
17996TIP3   OH275478   3.458   5.408   5.522  0.1007 -0.6336 -0.5336
17996TIP3    H175479   3.539   5.442   5.559 -0.2239 -0.9860  0.5398
17996TIP3    H275480   3.441   5.463   5.446 -0.3528  1.5825  1.0601
17997TIP3   OH275481   0.716   1.206   4.435  0.0711  0.0201 -0.0353
17997TIP3    H175482   0.758   1.128   4.472 -0.3103  0.1466  0.6824
17997TIP3    H275483   0.651   1.231   4.500 -0.9714 -0.0428 -1.0373
17998TIP3   OH275484   5.103   2.450   3.397  0.2310 -0.1400  0.0947
17998TIP3    H175485   5.071   2.441   3.307  1.2646 -1.3089 -0.1823
17998TIP3    H275486   5.102   2.544   3.413 -1.7192 -0.0168 -0.4698
17999TIP3   OH275487   6.487   3.168  11.389 -0.4379 -0.0454 -0.4483
17999TIP3    H175488   6.558   3.132  11.337 -0.4218  2.1110 -2.0564
17999TIP3    H275489   6.513   3.259  11.405 -0.1166 -0.6593  4.0032
18000TIP3   OH275490   1.643   2.396   4.213  0.1490  0.3586 -0.0805
18000TIP3    H175491   1.687   2.446   4.281 -0.8381  0.7186  0.3157
18000TIP3    H275492   1.669   2.305   4.228  0.5153  0.5291  0.3223
18001TIP3   OH275493   5.882   2.602   2.865 -0.2168 -0.1393 -0.6160
18001TIP3    H175494   5.926   2.662   2.925 -0.1217  0.5895 -1.3987
18001TIP3    H275495   5.854   2.657   2.792 -3.1477 -0.3852  0.1920
18002TIP3   OH275496   3.313   0.408  11.440 -0.1681 -0.1459  0.1308
18002TIP3    H175497   3.298   0.494  11.400  0.9929  0.3818  0.7735
18002TIP3    H275498   3.285   0.418  11.531  2.5078  0.4488  0.9784
18003TIP3   OH275499   5.689   5.004  13.118  0.1542  0.2889  0.0415
18003TIP3    H175500   5.676   4.921  13.071 -1.4105  0.7399 -0.3895
18003TIP3    H275501   5.727   4.978  13.202 -2.5902 -1.1861  0.9664
18004TIP3   OH275502   5.929   4.974   3.370  0.3810 -0.3210 -0.0405
18004TIP3    H175503   5.905   5.066   3.360  0.5892 -0.2877 -0.2610
18004TIP3    H275504   5.853   4.926   3.336  0.8516 -0.2097 -1.3203
18005TIP3   OH275505   3.840   2.619   0.469 -0.1436  0.0543 -0.2209
18005TIP3    H175506   3.852   2.543   0.412  0.2592 -1.4213  1.7388
18005TIP3    H275507   3.772   2.671   0.425 -0.5367 -1.4990 -1.5507
18006TIP3   OH275508   3.337   3.586   0.045 -0.2402  0.5729  0.3000
18006TIP3    H175509   3.358   3.540   0.126 -1.3236  0.1624  0.3716
18006TIP3    H275510   3.279   3.657   0.072 -1.9210 -0.5278 -0.2642
18007TIP3   OH275511   5.212   2.319  13.728 -0.0829  0.0717 -0.8065
18007TIP3    H175512   5.223   2.399  13.779 -0.0536 -1.9726  2.7197
18007TIP3    H275513   5.296   2.273  13.738 -1.0007 -1.5774 -0.4538
18008TIP3   OH275514   1.563   3.465  13.712  0.1965 -0.0853  0.4615
18008TIP3    H175515   1.607   3.528  13.655 -1.7096  0.8430 -0.0569
18008TIP3    H275516   1.470   3.475  13.692 -0.3959 -0.9431  2.5227
18009TIP3   OH275517   5.835   4.320  13.990 -0.2967 -0.2402  0.5530
18009TIP3    H175518   5.798   4.379  13.925 -0.8552 -2.5980 -1.4185
18009TIP3    H275519   5.760   4.289  14.040 -0.2971 -0.8531  0.1836
18010TIP3   OH275520   4.549   4.755  11.813  0.1133  0.0069  0.1103
18010TIP3    H175521   4.612   4.780  11.880  0.7457 -0.1929 -0.3972
18010TIP3    H275522   4.467   4.795  11.841  0.5915  0.7393  0.4912
18011TIP3   OH275523   6.800   5.472  12.048 -0.2404  0.5809 -0.3854
18011TIP3    H175524   6.771   5.385  12.023  1.4295  0.1532 -0.9531
18011TIP3    H275525   6.866   5.496  11.983  1.1887  1.1809  1.1931
18012TIP3   OH275526   3.161   4.525  16.649 -0.0880  0.3382  0.0850
18012TIP3    H175527   3.068   4.544  16.643 -0.5677 -0.7154  2.7944
18012TIP3    H275528   3.203   4.611  16.657 -1.0073  0.7617  0.4512
18013TIP3   OH275529   6.036   3.921  15.226 -0.0661  0.5215  0.5924
18013TIP3    H175530   6.004   4.009  15.243  0.6283  1.5033 -2.4762
18013TIP3    H275531   6.131   3.928  15.234 -0.1051 -0.5199  2.3780
18014TIP3   OH275532   5.725   1.764  14.181 -0.3635  0.8486 -0.2674
18014TIP3    H175533   5.739   1.799  14.270 -0.2696 -1.0875  0.5299
18014TIP3    H275534   5.729   1.669  14.192  2.1524  0.5199 -2.7360
18015TIP3   OH275535   4.411   3.810  13.158  0.1427  0.0652  0.0745
18015TIP3    H175536   4.387   3.901  13.139 -1.0811 -0.1259  0.6195
18015TIP3    H275537   4.472   3.786  13.088 -0.1464  1.0539 -0.5301
18016TIP3   OH275538   1.331   0.326  14.568  0.0401  0.1958  0.2981
18016TIP3    H175539   1.340   0.330  14.663 -3.9267  0.1512  0.8545
18016TIP3    H275540   1.302   0.236  14.551  0.7936  0.1798 -0.9705
18017TIP3   OH275541   6.521   1.301  13.210 -0.4041  0.0797 -0.0711
18017TIP3    H175542   6.437   1.300  13.162  0.1726  0.5977 -1.1431
18017TIP3    H275543   6.586   1.316  13.142  0.5287  0.0987  0.8112
18018TIP3   OH275544   3.358   6.466  11.756  0.4600  0.0426  0.0444
18018TIP3    H175545   3.356   6.457  11.661 -0.2175 -1.2922  0.1467
18018TIP3    H275546   3.302   6.394  11.787  1.2775 -0.0096  1.4700
18019TIP3   OH275547   6.533   5.580  12.323 -0.4214 -0.4880  0.1178
18019TIP3    H175548   6.463   5.640  12.349 -0.6672 -1.5395  2.0842
18019TIP3    H275549   6.588   5.631  12.263 -1.1598  1.3713  0.9523
18020TIP3   OH275550   4.190   0.435  15.140 -0.5962 -0.1809 -0.3110
18020TIP3    H175551   4.154   0.352  15.108 -2.7423  0.7523 -0.4735
18020TIP3    H275552   4.148   0.447  15.226 -1.2205  1.2720 -0.7929
18021TIP3   OH275553   1.963   0.627   1.036 -0.0873  0.0046  0.7034
18021TIP3    H175554   1.872   0.636   1.061 -0.6680  0.6223 -1.3860
18021TIP3    H275555   1.998   0.716   1.038 -0.3351  0.1828 -1.1101
18022TIP3   OH275556   0.173   1.494   5.531 -0.0077 -0.3436  0.1708
18022TIP3    H175557   0.251   1.465   5.578 -0.3111 -0.1082  0.8387
18022TIP3    H275558   0.126   1.548   5.595  0.2331  1.1082 -0.8148
18023TIP3   OH275559   4.785   2.907  16.399 -0.2171  0.0862  0.8896
18023TIP3    H175560   4.757   2.977  16.459 -2.7466  0.3105 -0.4032
18023TIP3    H275561   4.760   2.826  16.443 -0.8497  0.2000  0.7619
18024TIP3   OH275562   3.673   5.627  10.820 -0.3284  0.8390  0.0020
18024TIP3    H175563   3.609   5.681  10.773  0.6061  1.8532 -0.1504
18024TIP3    H275564   3.743   5.613  10.756  0.9742  2.2478  1.0526
18025TIP3   OH275565   0.200   5.778   4.833  0.0252  0.5807 -0.1840
18025TIP3    H175566   0.294   5.758   4.836  0.2229  1.6034  2.3636
18025TIP3    H275567   0.181   5.817   4.918 -2.4357  1.7465 -1.1896
18026TIP3   OH275568   2.135   4.800   1.357 -0.0428 -0.3551 -0.0806
18026TIP3    H175569   2.076   4.789   1.282 -2.1102  1.2623  1.1959
18026TIP3    H275570   2.192   4.873   1.333 -0.7608  0.2193 -0.0484
18027TIP3   OH275571   5.735   6.359   1.392  0.4013  0.1779  0.0302
18027TIP3    H175572   5.725   6.339   1.299 -1.4377 -0.0563  0.2429
18027TIP3    H275573   5.806   6.302   1.421 -0.4303 -1.3281 -0.7827
18028TIP3   OH275574   3.981   2.888   5.624  0.6249 -0.2033  0.5960
18028TIP3    H175575   4.076   2.878   5.614  0.6668  0.6122 -0.0048
18028TIP3    H275576   3.962   2.972   5.581 -0.2369  0.0976  1.5412
18029TIP3   OH275577   5.066   5.485   0.251  0.1415  0.4718 -0.1538
18029TIP3    H175578   5.061   5.409   0.308  1.0154  1.9148  1.9866
18029TIP3    H275579   4.993   5.541   0.277 -0.5112  0.3984 -1.7080
18030TIP3   OH275580   1.424   5.351   4.469 -0.2523  0.7962  0.2115
18030TIP3    H175581   1.343   5.300   4.478 -1.3971  2.2542 -1.2233
18030TIP3    H275582   1.463   5.348   4.557 -1.2677 -0.8642  0.6606
18031TIP3   OH275583   5.015   5.016   0.565 -0.5166 -0.2103  0.0067
18031TIP3    H175584   4.988   5.007   0.657  0.5021 -2.8190  0.1424
18031TIP3    H275585   5.110   5.016   0.568 -0.2545 -4.6519 -1.1400
18032TIP3   OH275586   6.485   6.351  12.185 -0.1610 -0.3555  0.4867
18032TIP3    H175587   6.510   6.442  12.202 -1.6891  0.1567  0.1487
18032TIP3    H275588   6.397   6.343  12.221 -0.5848 -1.3111 -0.6846
18033TIP3   OH275589   4.251   5.977  11.315 -0.0814  0.0544 -0.1795
18033TIP3    H175590   4.320   5.995  11.252  1.0586  0.6995  1.2041
18033TIP3    H275591   4.297   5.957  11.396 -1.5102  1.2242  0.9720
18034TIP3   OH275592   1.486   4.526  17.180  0.2096  0.7610 -0.1667
18034TIP3    H175593   1.401   4.487  17.198 -0.5123  0.5512 -3.4020
18034TIP3    H275594   1.503   4.584  17.254 -1.1867 -1.6076  2.1415
18035TIP3   OH275595   6.413   1.747  12.077  0.1486 -0.2886 -0.2674
18035TIP3    H175596   6.454   1.817  12.129 -3.0846 -0.1868  2.4956
18035TIP3    H275597   6.477   1.676  12.079  1.7712  1.0831  0.5049
18036TIP3   OH275598   0.347   0.275   3.198 -0.2563 -0.0832 -0.0371
18036TIP3    H175599   0.410   0.269   3.270  0.5406  0.6737 -0.6488
18036TIP3    H275600   0.311   0.363   3.205 -1.6015 -0.6607  0.5730
18037TIP3   OH275601   1.049   3.287  13.656 -0.4259  0.2843  0.2215
18037TIP3    H175602   1.142   3.306  13.669  0.5291 -3.7387  0.7063
18037TIP3    H275603   1.030   3.322  13.569  1.2840  1.8791  0.4133
18038TIP3   OH275604   2.302   1.062  16.480  0.2587 -0.0606 -0.1480
18038TIP3    H175605   2.306   1.155  16.459 -2.8638  0.9961  3.0770
18038TIP3    H275606   2.241   1.025  16.416  0.7847  0.2637 -0.8482
18039TIP3   OH275607   5.404   6.248   5.313  0.6295 -0.2637  0.1477
18039TIP3    H175608   5.357   6.244   5.396  2.7262  1.6588  1.5055
18039TIP3    H275609   5.496   6.247   5.336  1.2977 -0.2300 -2.2093
18040TIP3   OH275610   5.044   3.638   2.048 -0.1336  0.1473 -0.4793
18040TIP3    H175611   4.976   3.632   2.115  1.5281 -2.4728  1.1750
18040TIP3    H275612   5.026   3.566   1.988  1.9904 -1.7214  0.9565
18041TIP3   OH275613   2.564   5.685   5.000  0.0620  0.1279 -0.3756
18041TIP3    H175614   2.596   5.707   5.088  0.4979  1.9725 -0.9521
18041TIP3    H275615   2.470   5.676   5.011  0.0442  0.9006  0.1967
18042TIP3   OH275616   2.438   4.756  16.584 -0.0040 -0.0995 -0.2539
18042TIP3    H175617   2.493   4.678  16.591 -0.7139 -0.6564 -0.6899
18042TIP3    H275618   2.407   4.755  16.494 -0.6495  0.2524 -0.0420
18043TIP3   OH275619   6.419   1.458  16.000  0.5232  0.3087  0.3143
18043TIP3    H175620   6.325   1.463  15.979  0.0950  1.1389  2.2371
18043TIP3    H275621   6.442   1.547  16.027  1.9318  0.1548 -0.3104
18044TIP3   OH275622   0.472   2.509   2.322  0.0321  0.1886  0.0951
18044TIP3    H175623   0.406   2.546   2.265 -3.3976 -2.5385  1.8811
18044TIP3    H275624   0.501   2.429   2.277  0.6608  0.3392  0.2156
18045TIP3   OH275625   5.979   4.393   0.229  0.6199  0.4654  0.1045
18045TIP3    H175626   5.885   4.393   0.211  0.3853 -1.4170  1.0910
18045TIP3    H275627   6.020   4.390   0.143 -0.3767 -3.6082 -0.4205
18046TIP3   OH275628   3.598   4.604   5.800  0.1582  0.4284 -0.0674
18046TIP3    H175629   3.517   4.555   5.813 -0.4128  1.4690  0.4516
18046TIP3    H275630   3.634   4.613   5.889 -0.2727  1.8079 -0.0205
18047TIP3   OH275631   5.864   2.145  17.147  0.3211 -0.0355  0.0393
18047TIP3    H175632   5.877   2.229  17.191 -0.4564  0.8897 -1.4248
18047TIP3    H275633   5.823   2.167  17.063 -0.4477 -1.9198 -0.1469
18048TIP3   OH275634   3.777   3.534   1.386 -0.1922  0.1229 -0.6511
18048TIP3    H175635   3.717   3.543   1.312 -0.2834 -1.9434 -0.8834
18048TIP3    H275636   3.790   3.440   1.395  1.1666  0.4153  0.9009
18049TIP3   OH275637   4.882   6.392   6.098  0.5180  0.4638  0.2138
18049TIP3    H175638   4.969   6.421   6.123  0.1418  0.6207  1.4075
18049TIP3    H275639   4.837   6.374   6.181  0.0998 -1.6913 -0.4020
18050TIP3   OH275640   4.159   1.538   0.971  0.0460 -0.4632 -0.2253
18050TIP3    H175641   4.239   1.521   1.021  1.2585  4.1790 -0.0955
18050TIP3    H275642   4.190   1.556   0.882 -1.2238 -1.3740 -0.8704
18051TIP3   OH275643   0.680   1.450  11.657 -0.1226 -0.0506 -0.1987
18051TIP3    H175644   0.691   1.545  11.662 -1.5288  0.1185  0.0635
18051TIP3    H275645   0.738   1.423  11.585  2.5691  0.5732  1.5952
18052TIP3   OH275646   4.816   3.299   5.364 -0.3697  0.5143  0.2560
18052TIP3    H175647   4.830   3.329   5.454  1.2228 -0.8675  0.5065
18052TIP3    H275648   4.893   3.330   5.316 -0.8395  0.5776 -0.4742
18053TIP3   OH275649   2.073   0.834  15.813  0.2035  0.2311  0.2191
18053TIP3    H175650   2.118   0.858  15.732 -0.7803  0.6361 -0.2292
18053TIP3    H275651   2.100   0.900  15.876 -0.9622  1.4252 -0.4796
18054TIP3   OH275652   5.207   6.010  15.618  0.2666  0.5860 -0.0863
18054TIP3    H175653   5.233   6.076  15.683  1.2646 -0.5636  0.7386
18054TIP3    H275654   5.147   5.953  15.666  1.4998 -0.6380  0.0592
18055TIP3   OH275655   0.219   3.933  13.368  0.1079 -0.0030 -0.0159
18055TIP3    H175656   0.274   3.872  13.320  0.6662 -1.0052  1.8046
18055TIP3    H275657   0.232   3.910  13.460 -0.1298  2.4608  0.7206
18056TIP3   OH275658   5.092   5.758  12.446 -0.9869  0.2505  0.0856
18056TIP3    H175659   5.141   5.736  12.367 -1.0662 -0.5366  0.2429
18056TIP3    H275660   5.026   5.820  12.417  1.4672  3.1517  0.2558
18057TIP3   OH275661   0.724   5.710   1.294 -0.2296  0.1141 -0.2192
18057TIP3    H175662   0.741   5.803   1.308  0.5114  0.0530 -0.6571
18057TIP3    H275663   0.678   5.682   1.373  0.1211  0.7075  0.2059
18058TIP3   OH275664   2.284   5.840   4.692 -0.2306 -0.9087  0.3937
18058TIP3    H175665   2.193   5.841   4.662  0.5438 -0.5231 -2.2281
18058TIP3    H275666   2.329   5.783   4.629  2.2699  3.0020 -1.7980
18059TIP3   OH275667   5.768   5.344   1.059 -0.1579  0.0615 -0.3028
18059TIP3    H175668   5.784   5.349   1.153 -1.7921 -0.3564  0.0246
18059TIP3    H275669   5.844   5.297   1.024  0.7247  0.6870  0.7203
18060TIP3   OH275670   1.887   0.386  15.252 -0.2402 -0.0142  0.1364
18060TIP3    H175671   1.860   0.344  15.333  1.8711  2.1969  2.1534
18060TIP3    H275672   1.806   0.394  15.201 -1.7734 -0.8969  2.2856
18061TIP3   OH275673   5.490   3.489   5.896  0.3928 -0.2698  0.5256
18061TIP3    H175674   5.575   3.523   5.924  0.0572 -0.4218  1.8032
18061TIP3    H275675   5.440   3.567   5.871  1.5475 -0.3206 -2.2375
18062TIP3   OH275676   1.107   6.285  12.656 -0.1039 -0.2551 -0.7712
18062TIP3    H175677   1.042   6.259  12.721  0.1891  1.2884  0.1832
18062TIP3    H275678   1.151   6.361  12.694  1.9834 -0.9876 -1.5735
18063TIP3   OH275679   5.146   3.781  13.887  0.2818 -0.0595 -0.0856
18063TIP3    H175680   5.212   3.727  13.930  0.8227 -0.2328 -1.1084
18063TIP3    H275681   5.149   3.865  13.932  1.3412  0.0004 -0.2621
18064TIP3   OH275682   5.509   3.157  11.904  0.4822  0.2359  0.1732
18064TIP3    H175683   5.566   3.233  11.917  0.9422  0.1115 -0.9998
18064TIP3    H275684   5.448   3.184  11.836 -0.5531  0.1827  1.0581
18065TIP3   OH275685   3.333   1.767  11.131  0.2677 -0.1157 -0.1832
18065TIP3    H175686   3.409   1.825  11.142 -0.3909  1.1493 -1.9021
18065TIP3    H275687   3.325   1.755  11.037 -2.0678  0.3809 -0.1135
18066TIP3   OH275688   3.354   2.819  15.963  0.8515 -0.0848  0.2620
18066TIP3    H175689   3.279   2.879  15.963 -0.0098 -1.1289  1.1896
18066TIP3    H275690   3.429   2.875  15.945  0.0634  1.2572  1.0227
18067TIP3   OH275691   1.826   1.541  16.045  0.3132 -0.1641  0.2904
18067TIP3    H175692   1.910   1.543  16.092 -0.5461  0.2350  1.8880
18067TIP3    H275693   1.782   1.621  16.072 -1.7949 -1.7285  1.8574
18068TIP3   OH275694   2.815   4.449  15.467 -0.2820  0.1160 -0.1942
18068TIP3    H175695   2.768   4.526  15.501 -0.4597 -0.4426  0.8625
18068TIP3    H275696   2.774   4.375  15.511 -0.6760 -0.6782 -1.8162
18069TIP3   OH275697   1.963   6.457  17.138 -0.1275 -0.3379  0.1992
18069TIP3    H175698   2.036   6.502  17.180  0.2650  1.7250 -2.4444
18069TIP3    H275699   1.887   6.511  17.160 -0.6206 -1.4852  1.4592
18070TIP3   OH275700   1.024   5.574   2.585  0.2222  0.2763  0.2704
18070TIP3    H175701   0.943   5.524   2.574 -0.0501  0.8512 -0.4300
18070TIP3    H275702   1.092   5.517   2.550  0.2466 -0.4924  1.4654
18071TIP3   OH275703   5.187   4.928   4.766  0.2185 -0.5040 -0.3015
18071TIP3    H175704   5.174   4.944   4.672  1.8216  1.1389 -0.3038
18071TIP3    H275705   5.236   5.004   4.796 -0.1028 -1.0988  1.8577
18072TIP3   OH275706   3.623   4.164   1.290  0.2469  0.2905  0.4592
18072TIP3    H175707   3.716   4.160   1.269  0.1729  0.3098  0.1252
18072TIP3    H275708   3.605   4.257   1.303  0.0345  0.4121 -0.5916
18073TIP3   OH275709   5.204   6.675  14.068  0.6420  0.3195  0.4990
18073TIP3    H175710   5.126   6.704  14.115  0.1951 -1.5906  1.0400
18073TIP3    H275711   5.175   6.665  13.977  0.2699 -0.2555  0.6741
18074TIP3   OH275712   2.134   5.534  14.181 -0.2215 -0.1622 -0.0700
18074TIP3    H175713   2.190   5.611  14.169 -2.6157  2.3147  2.8720
18074TIP3    H275714   2.185   5.475  14.236  1.7456 -0.9616 -2.5526
18075TIP3   OH275715   6.654   4.546  14.965 -0.5802 -0.2356  0.0695
18075TIP3    H175716   6.613   4.559  14.880  0.6411 -0.4783 -0.5804
18075TIP3    H275717   6.690   4.632  14.988  1.8022 -0.8105 -1.1661
18076TIP3   OH275718   2.432   2.349   1.950 -0.1509 -0.1891 -0.1590
18076TIP3    H175719   2.431   2.285   1.879 -0.5174 -0.5375  0.1551
18076TIP3    H275720   2.508   2.324   2.003  1.0784  1.0393 -1.2890
18077TIP3   OH275721   4.638   3.024   5.721 -0.2650 -0.7499  0.4026
18077TIP3    H175722   4.565   3.049   5.778  0.0504  1.5413 -0.1001
18077TIP3    H275723   4.603   3.033   5.632 -0.0255 -1.8869  0.1811
18078TIP3   OH275724   6.766   3.783  12.394 -0.1162 -0.4204  0.1190
18078TIP3    H175725   6.762   3.700  12.442 -0.4829 -0.2793  0.3363
18078TIP3    H275726   6.681   3.824  12.410  0.4600  0.5114  0.9474
18079TIP3   OH275727   5.043   1.262   3.075 -0.8101  0.3421 -0.2171
18079TIP3    H175728   5.093   1.214   3.142 -1.0164 -0.2802 -0.5044
18079TIP3    H275729   4.952   1.254   3.103 -0.8791  0.2473 -0.4655
18080TIP3   OH275730   0.807   4.152  15.215 -0.2302  0.3756 -0.0694
18080TIP3    H175731   0.900   4.146  15.192 -0.8133 -0.7692 -2.4352
18080TIP3    H275732   0.781   4.239  15.185 -0.9684 -1.0638 -4.3414
18081TIP3   OH275733   0.749   2.710   4.360 -0.1478 -0.2075 -0.0056
18081TIP3    H175734   0.765   2.673   4.447  0.7075 -1.7597 -0.7771
18081TIP3    H275735   0.696   2.643   4.316 -0.8081  0.6926 -0.5993
18082TIP3   OH275736   3.299   3.933   2.842  0.2379  0.1879  0.1486
18082TIP3    H175737   3.360   4.001   2.812  0.5621 -0.3972 -0.5646
18082TIP3    H275738   3.329   3.911   2.930 -0.6657  1.8710  0.9176
18083TIP3   OH275739   0.375   0.854   5.028  0.0388 -0.0169 -0.0981
18083TIP3    H175740   0.447   0.835   5.088 -0.0755 -1.1106 -0.2715
18083TIP3    H275741   0.323   0.773   5.027 -0.3408  0.2210 -1.1371
18084TIP3   OH275742   6.294   5.676   0.940  0.1867  0.1037  0.0019
18084TIP3    H175743   6.218   5.730   0.921  0.1730  1.2611  2.8695
18084TIP3    H275744   6.258   5.589   0.960 -0.1626  0.0536 -0.8454
18085TIP3   OH275745   3.460   0.312  13.100  0.6145  0.5786  0.3232
18085TIP3    H175746   3.491   0.364  13.026  1.0099  1.4716  1.0932
18085TIP3    H275747   3.538   0.299  13.154  0.4476 -0.5409  0.3170
18086TIP3   OH275748   2.233   4.555   4.504  0.1003  0.0797 -0.1527
18086TIP3    H175749   2.217   4.622   4.571  0.3653 -0.2084  0.2090
18086TIP3    H275750   2.302   4.500   4.542 -0.1116 -0.3962 -0.4458
18087TIP3   OH275751   4.732   2.035   0.070  0.2151 -0.2442  0.2060
18087TIP3    H175752   4.657   2.038   0.131  0.4890 -0.5460  0.5669
18087TIP3    H275753   4.694   2.003  -0.012  0.1967 -1.9367  0.8190
18088TIP3   OH275754   3.097   3.614  13.136 -0.1719 -0.1937 -0.2283
18088TIP3    H175755   3.043   3.583  13.063 -3.1561  1.5134  1.0365
18088TIP3    H275756   3.130   3.699  13.107 -0.5642  0.0495  0.0229
18089TIP3   OH275757   4.324   2.669   4.107 -0.2906 -0.2996  0.4805
18089TIP3    H175758   4.385   2.653   4.035 -1.4814 -1.0571 -0.3975
18089TIP3    H275759   4.376   2.654   4.186  0.6823 -0.8448 -0.2434
18090TIP3   OH275760   3.965   5.592  11.175  0.0649 -0.2370  0.0524
18090TIP3    H175761   4.029   5.586  11.104  0.5403 -1.9452  0.5674
18090TIP3    H275762   4.008   5.643  11.243  0.2626 -0.0257 -0.2311
18091TIP3   OH275763   5.742   4.913  11.142 -0.0763  0.3829 -0.5348
18091TIP3    H175764   5.736   4.823  11.173  1.2637 -0.0021 -1.3336
18091TIP3    H275765   5.821   4.947  11.183 -1.3397  1.7144  0.9520
18092TIP3   OH275766   3.135   2.513   0.904  0.3441  0.4525 -0.1857
18092TIP3    H175767   3.057   2.466   0.876  1.0785 -0.4019 -0.8613
18092TIP3    H275768   3.110   2.555   0.986 -0.1577 -1.6322  0.7694
18093TIP3   OH275769   4.092   0.519  13.311  0.2022 -0.3604  0.3619
18093TIP3    H175770   4.173   0.571  13.309 -0.8134  1.2802  0.2522
18093TIP3    H275771   4.106   0.457  13.383  1.5451 -0.0928  0.3620
18094TIP3   OH275772   2.020   2.757   0.994 -0.3470 -0.1845 -0.4999
18094TIP3    H175773   2.032   2.781   0.902  1.5858  0.0145 -0.2409
18094TIP3    H275774   1.957   2.685   0.992 -0.5686  0.0137 -1.9337
18095TIP3   OH275775   2.808   5.767  16.725 -0.4580 -0.0734 -0.4250
18095TIP3    H175776   2.843   5.853  16.705 -1.1633 -0.0020 -1.4124
18095TIP3    H275777   2.716   5.782  16.747 -0.6491 -0.5877 -0.8349
18096TIP3   OH275778   6.111   4.922  14.260  0.1659  0.2967 -0.0470
18096TIP3    H175779   6.106   4.930  14.355 -0.2093  0.1336 -0.0489
18096TIP3    H275780   6.108   4.828  14.243  0.0152  0.3314 -0.2262
18097TIP3   OH275781   4.825   3.872   3.102 -0.6232 -0.3601 -0.3263
18097TIP3    H175782   4.862   3.871   3.190 -2.5947 -1.1719  0.5381
18097TIP3    H275783   4.876   3.939   3.056 -0.3642  0.9840  1.7772
18098TIP3   OH275784   6.514   5.980  15.351  0.3746 -0.2340  0.0332
18098TIP3    H175785   6.477   6.062  15.383  0.0833 -0.3000 -0.1253
18098TIP3    H275786   6.607   5.997  15.342  0.2455  0.2322 -0.4596
18099TIP3   OH275787   1.906   2.081   2.625  0.7304 -0.2265  0.3184
18099TIP3    H175788   1.839   2.015   2.643  1.4050 -1.5958 -1.8419
18099TIP3    H275789   1.862   2.145   2.569  0.5216  0.3206  1.0935
18100TIP3   OH275790   6.613   4.281  10.923  0.7359  0.1169 -0.0542
18100TIP3    H175791   6.581   4.209  10.870 -0.6882 -0.2142  1.1825
18100TIP3    H275792   6.569   4.359  10.887 -2.1913 -0.4072  2.0115
18101TIP3   OH275793   6.765   3.312  16.035  0.0529 -0.0118  0.4305
18101TIP3    H175794   6.826   3.355  16.095 -0.8008  0.9090  0.6702
18101TIP3    H275795   6.741   3.380  15.972 -1.2046 -0.1549  0.7213
18102TIP3   OH275796   1.774   3.548   1.545  0.1665  0.2325 -0.4686
18102TIP3    H175797   1.869   3.562   1.543  0.1918  0.7399  1.8513
18102TIP3    H275798   1.759   3.493   1.622 -1.3315 -0.8645 -1.4945
18103TIP3   OH275799   4.103   2.382  14.453  0.5712  0.0995 -0.3360
18103TIP3    H175800   4.107   2.400  14.547 -3.9212  1.1489 -0.0990
18103TIP3    H275801   4.130   2.464  14.412 -0.2112  0.6399  0.1865
18104TIP3   OH275802   0.565   6.217   1.317 -0.1798 -0.3246 -0.2996
18104TIP3    H175803   0.632   6.150   1.314 -1.7621 -1.9780 -0.8602
18104TIP3    H275804   0.536   6.220   1.408  0.2456  0.0001 -0.1698
18105TIP3   OH275805   3.943   5.191   4.150 -0.1393  0.4391  0.2102
18105TIP3    H175806   4.038   5.199   4.138  0.0834  0.7242  1.9199
18105TIP3    H275807   3.906   5.257   4.091  0.8217  1.5390  0.7882
18106TIP3   OH275808   2.823   0.339  15.000  0.0296  0.6133 -0.5955
18106TIP3    H175809   2.804   0.393  14.924 -0.5226  0.4836 -0.5590
18106TIP3    H275810   2.897   0.381  15.042  0.1111  0.8876 -1.0075
18107TIP3   OH275811   5.233   5.406  13.638  0.2417  0.0720 -0.2775
18107TIP3    H175812   5.197   5.328  13.680 -0.8028  1.6182  1.8785
18107TIP3    H275813   5.187   5.412  13.554 -1.7077 -0.2016  0.7064
18108TIP3   OH275814   5.264   1.306   2.884  0.0338 -0.3514 -0.0642
18108TIP3    H175815   5.229   1.302   2.973 -1.3447 -1.4114 -0.6151
18108TIP3    H275816   5.189   1.291   2.827  1.1780 -1.5635 -1.3578
18109TIP3   OH275817   5.894   0.863   0.499 -0.2947  0.0176 -0.6477
18109TIP3    H175818   5.926   0.881   0.588 -0.2281  1.2447 -0.8947
18109TIP3    H275819   5.946   0.921   0.443 -0.7564 -0.3008 -1.4171
18110TIP3   OH275820   1.792   0.038   2.981  0.7222 -0.9193 -0.0786
18110TIP3    H175821   1.771  -0.051   3.009 -0.3902 -0.7327 -0.2790
18110TIP3    H275822   1.779   0.037   2.886  3.2471 -1.2152 -0.4960
18111TIP3   OH275823   3.846   4.741  17.079 -0.3317 -0.4786  0.5080
18111TIP3    H175824   3.932   4.714  17.112  0.2860 -0.7008 -1.1317
18111TIP3    H275825   3.801   4.777  17.155  1.5077  0.3975  1.2703
18112TIP3   OH275826   6.498   4.796  13.016 -0.2535  0.1422  0.5572
18112TIP3    H175827   6.563   4.828  13.079 -0.3099  0.3486  0.5123
18112TIP3    H275828   6.526   4.833  12.933 -0.0582 -0.3043  0.4199
18113TIP3   OH275829   2.292   2.134   6.081 -0.0878  0.3457  0.4557
18113TIP3    H175830   2.258   2.088   6.004 -1.4475  0.9155  0.6759
18113TIP3    H275831   2.230   2.110   6.151  0.9933  0.0170  1.3193
18114TIP3   OH275832   0.090   6.099   1.819  0.3508  0.2810  0.0511
18114TIP3    H175833   0.163   6.076   1.760 -1.2755 -3.0107 -0.9289
18114TIP3    H275834   0.105   6.045   1.897 -0.6820  0.0437  0.0930
18115TIP3   OH275835   0.482   4.925  16.399  0.9666 -0.0858  0.5350
18115TIP3    H175836   0.510   4.941  16.489  3.9832 -0.9359 -0.1474
18115TIP3    H275837   0.438   4.840  16.402 -0.9876  0.8757  1.4854
18116TIP3   OH275838   3.211   6.205   1.243  0.1756  0.4235 -0.4388
18116TIP3    H175839   3.207   6.215   1.148 -0.9875 -0.3199 -0.4999
18116TIP3    H275840   3.165   6.122   1.260 -1.7033  1.6560  0.9301
18117TIP3   OH275841   6.278   2.181  12.905  0.6911  0.3791 -0.6299
18117TIP3    H175842   6.342   2.240  12.945  1.9496 -1.1910 -0.2158
18117TIP3    H275843   6.193   2.213  12.934  1.4440  0.8438  1.1447
18118TIP3   OH275844   1.327   4.553   3.941 -0.0236 -0.1243  0.0349
18118TIP3    H175845   1.281   4.548   4.024  1.3365 -1.3523  0.7569
18118TIP3    H275846   1.341   4.461   3.915  0.6681  0.2256 -0.9121
18119TIP3   OH275847   4.972   5.521  11.502  0.4605  0.1923  0.0475
18119TIP3    H175848   4.883   5.494  11.525  0.7854 -0.8263  0.1411
18119TIP3    H275849   4.966   5.548  11.411 -0.0448  0.6083  0.1975
18120TIP3   OH275850   0.829   6.790   1.021  0.4782  0.7003 -0.2544
18120TIP3    H175851   0.787   6.865   0.978  2.0240  0.8111 -1.6414
18120TIP3    H275852   0.914   6.782   0.978  0.6453 -1.4092  0.3896
18121TIP3   OH275853   2.150   6.126  14.251 -0.0064 -0.2331  0.2395
18121TIP3    H175854   2.118   6.038  14.268  1.5043 -0.6155  1.4194
18121TIP3    H275855   2.077   6.183  14.273 -0.6008 -1.1401  0.6679
18122TIP3   OH275856   1.780   0.627   4.715  0.1972  0.2144 -0.4001
18122TIP3    H175857   1.870   0.602   4.695  0.4686  0.8714 -0.0284
18122TIP3    H275858   1.785   0.665   4.802  0.2970  4.0629 -1.9216
18123TIP3   OH275859   3.415   6.416  11.502  0.1380  0.2645  0.7216
18123TIP3    H175860   3.503   6.404  11.536  0.4309 -2.5295 -0.7193
18123TIP3    H275861   3.428   6.455  11.415 -0.0531  0.0465  0.5933
18124TIP3   OH275862   5.386   6.524   5.923  0.0592  0.4632  0.1745
18124TIP3    H175863   5.337   6.490   5.998  1.4713 -0.5912  0.6822
18124TIP3    H275864   5.436   6.448   5.891 -0.9204  0.7405 -2.2164
18125TIP3   OH275865   5.624   1.974  16.819  0.0217  0.0009 -0.1861
18125TIP3    H175866   5.688   1.906  16.837 -1.4113 -1.2730  0.3354
18125TIP3    H275867   5.668   2.056  16.844  1.3885 -0.8273  0.2112
18126TIP3   OH275868   3.956   2.546  11.493 -0.4749  0.2367 -0.0696
18126TIP3    H175869   3.984   2.576  11.580  1.1627 -1.0642 -0.0992
18126TIP3    H275870   3.936   2.453  11.506 -2.3572  0.5188 -0.6531
18127TIP3   OH275871   4.273   5.160   2.582 -0.4678 -0.1232  0.2654
18127TIP3    H175872   4.365   5.134   2.582 -0.5843 -0.5514 -0.5742
18127TIP3    H275873   4.275   5.255   2.571 -0.0955  0.0753  1.7582
18128TIP3   OH275874   5.596   5.309  13.015  0.0561  0.0666  0.2553
18128TIP3    H175875   5.619   5.370  12.945  0.7954 -0.2721  0.1961
18128TIP3    H275876   5.597   5.362  13.095 -0.5551  0.4012  0.0482
18129TIP3   OH275877   6.675   5.680   3.665 -0.9987  0.3780  0.5856
18129TIP3    H175878   6.712   5.710   3.582  0.0397  2.0509  1.5955
18129TIP3    H275879   6.652   5.588   3.648  1.8378 -0.2265 -0.7348
18130TIP3   OH275880   1.176   3.104  10.892 -0.8882 -0.0443 -0.0092
18130TIP3    H175881   1.241   3.171  10.870 -0.2497 -0.6513 -0.0293
18130TIP3    H275882   1.165   3.054  10.811 -1.3125  0.0042  0.0205
18131TIP3   OH275883   5.805   2.063  15.054 -0.0584 -0.4404  0.2871
18131TIP3    H175884   5.746   1.993  15.079  1.3257 -1.7147  0.1035
18131TIP3    H275885   5.889   2.039  15.093 -0.1461  2.6216  2.7640
18132TIP3   OH275886   4.114   0.847   3.195  0.4298  0.1160  0.1711
18132TIP3    H175887   4.058   0.922   3.214  2.1966  1.0813  1.8333
18132TIP3    H275888   4.152   0.867   3.109 -0.6415  0.1166 -0.3238
18133TIP3   OH275889   5.383   3.057  13.633 -0.6768  0.0286  0.3175
18133TIP3    H175890   5.470   3.095  13.634 -0.6849  0.0666 -0.3797
18133TIP3    H275891   5.362   3.043  13.726  0.0413  0.0680  0.4892
18134TIP3   OH275892   3.762   1.347  17.235 -0.0907 -0.2106  0.3861
18134TIP3    H175893   3.832   1.370  17.173 -0.1619 -0.0298  0.3724
18134TIP3    H275894   3.689   1.322  17.179 -0.1782  0.0223  0.3959
18135TIP3   OH275895   4.426   0.650   4.518  0.1786 -0.6182  0.0381
18135TIP3    H175896   4.386   0.737   4.518 -1.5399 -1.3672 -0.0151
18135TIP3    H275897   4.501   0.659   4.459  0.9774  1.1996  1.2199
18136TIP3   OH275898   0.937   2.111  13.254 -0.4231 -0.1900 -0.0967
18136TIP3    H175899   0.928   2.184  13.193 -1.5953  1.3575  1.7948
18136TIP3    H275900   0.888   2.138  13.331  0.2953 -2.4012  1.2370
18137TIP3   OH275901   4.744   5.821   6.225 -0.1860 -0.0290 -0.4373
18137TIP3    H175902   4.686   5.754   6.188 -1.4948  0.1583  1.1562
18137TIP3    H275903   4.694   5.902   6.215  0.8545  0.5403 -1.2007
18138TIP3   OH275904   6.010   2.545   0.328  0.5846  0.4159  0.4381
18138TIP3    H175905   5.968   2.480   0.271  0.3249  1.0347 -0.0981
18138TIP3    H275906   6.040   2.495   0.404  0.0343 -0.2594  0.2247
18139TIP3   OH275907   6.212   5.565  11.616  0.0639  0.8735 -0.2750
18139TIP3    H175908   6.274   5.535  11.682 -0.7860  1.9851  1.1037
18139TIP3    H275909   6.138   5.505  11.623  0.7508 -0.1662 -1.5869
18140TIP3   OH275910   0.740   3.650   1.706  0.3861  0.3999 -0.0467
18140TIP3    H175911   0.659   3.697   1.687  1.1225  1.6091 -0.2572
18140TIP3    H275912   0.731   3.568   1.657 -0.7667  0.4526  0.0454
18141TIP3   OH275913   1.292   4.265  10.998 -0.2727 -0.2275  0.6010
18141TIP3    H175914   1.247   4.341  11.035 -0.4396  0.5961 -1.1998
18141TIP3    H275915   1.373   4.300  10.961  1.1772 -1.4480  2.4064
18142TIP3   OH275916   1.013   5.499  11.831 -1.0910 -0.3377  0.4058
18142TIP3    H175917   1.102   5.491  11.863 -0.2063  1.9901 -1.2396
18142TIP3    H275918   0.973   5.566  11.887 -0.6163  1.2113 -1.0126
18143TIP3   OH275919   6.504   1.593  11.595  0.1895 -0.1539  0.4008
18143TIP3    H175920   6.436   1.659  11.585  0.1150 -0.1524  0.9078
18143TIP3    H275921   6.556   1.623  11.670  0.2278 -0.6054  0.5566
18144TIP3   OH275922   0.435   1.547   0.739 -0.1754  0.1777 -0.6998
18144TIP3    H175923   0.345   1.531   0.767  0.2111 -0.3062  0.3311
18144TIP3    H275924   0.472   1.601   0.809  1.2607 -2.2918  0.5576
18145TIP3   OH275925   1.003   2.587  13.181 -0.5528  0.3036  0.3350
18145TIP3    H175926   1.083   2.638  13.193 -0.4499  0.5452 -1.1293
18145TIP3    H275927   0.969   2.573  13.270  0.3602  1.4004  0.8811
18146TIP3   OH275928   3.811   2.801   5.140 -0.2064 -0.4062  0.6141
18146TIP3    H175929   3.726   2.797   5.096 -0.4145 -0.5840  1.0343
18146TIP3    H275930   3.813   2.724   5.196  0.8560 -1.2580 -0.5241
18147TIP3   OH275931   2.664   6.260   0.839 -0.6205  0.4943 -0.1125
18147TIP3    H175932   2.580   6.307   0.844 -1.3826 -0.8789  0.7020
18147TIP3    H275933   2.659   6.194   0.909  1.0082  0.1596 -0.2724
18148TIP3   OH275934   0.095   5.364  16.085  1.1181  0.0526 -0.2731
18148TIP3    H175935   0.174   5.393  16.040  0.0985  0.8674 -1.6084
18148TIP3    H275936   0.046   5.444  16.103  0.6034 -0.4349  0.5852
18149TIP3   OH275937   1.060   4.662   0.785 -0.8499  0.3339 -0.3588
18149TIP3    H175938   1.139   4.615   0.811 -0.4626  1.1155 -0.0980
18149TIP3    H275939   1.013   4.678   0.867 -0.6893  0.9164 -0.3781
18150TIP3   OH275940   2.651   1.021   3.306  0.3001 -0.2884 -0.1090
18150TIP3    H175941   2.576   0.966   3.329 -0.5711  0.8447 -0.1470
18150TIP3    H275942   2.632   1.106   3.347  0.3853  0.7465 -2.1135
18151TIP3   OH275943   2.080   6.423   3.964  0.9289  0.7739 -0.2393
18151TIP3    H175944   2.088   6.441   4.058 -1.8202 -1.6554  0.6084
18151TIP3    H275945   2.166   6.390   3.939  2.0005  2.3561  1.1419
18152TIP3   OH275946   3.581   2.140  16.672 -0.2617  0.2657 -0.7443
18152TIP3    H175947   3.658   2.126  16.728  0.0437 -0.6675 -1.3853
18152TIP3    H275948   3.523   2.067  16.692 -0.6605  0.5657 -0.8021
18153TIP3   OH275949   1.392   6.335  10.471  0.1126  0.4148 -0.4889
18153TIP3    H175950   1.467   6.387  10.502 -0.2927  1.1104 -0.6515
18153TIP3    H275951   1.336   6.326  10.547 -0.5306  1.4989 -0.8129
18154TIP3   OH275952   2.282   3.901   5.751  0.4724 -0.0425 -0.1595
18154TIP3    H175953   2.234   3.837   5.803  2.5615 -0.2584  1.6405
18154TIP3    H275954   2.240   3.984   5.771  1.4982 -0.0492  2.3428
18155TIP3   OH275955   3.905   1.135   0.776  0.0056  0.0408 -0.7188
18155TIP3    H175956   3.960   1.143   0.699  0.6513 -0.7085 -0.3430
18155TIP3    H275957   3.913   1.220   0.820  1.1122 -0.1683 -0.5037
18156TIP3   OH275958   4.292   4.865  16.813 -0.4088  0.0221  0.8053
18156TIP3    H175959   4.274   4.958  16.824 -0.2792  0.0134  1.0929
18156TIP3    H275960   4.380   4.852  16.847 -0.0964 -0.0565 -0.0228
18157TIP3   OH275961   5.114   3.429   2.752 -0.2770  0.0602  0.0958
18157TIP3    H175962   5.069   3.419   2.836  0.8049 -1.3388  0.5541
18157TIP3    H275963   5.051   3.473   2.695 -1.8704 -1.0173  0.9735
18158TIP3   OH275964   5.045   5.791   0.561  0.0792 -0.0118  0.1217
18158TIP3    H175965   4.991   5.734   0.506 -0.0102  1.6143 -1.5503
18158TIP3    H275966   5.112   5.825   0.502  0.5816  1.0377  1.2502
18159TIP3   OH275967   4.497   2.807   1.442  0.1476  0.3529  0.3361
18159TIP3    H175968   4.512   2.735   1.504 -0.7452  1.0249  1.3756
18159TIP3    H275969   4.540   2.779   1.361 -0.2652 -1.3916  0.6836
18160TIP3   OH275970   0.656   1.999   6.377  0.2000  0.5076  0.3060
18160TIP3    H175971   0.603   1.995   6.457 -1.5105  0.1757 -0.7809
18160TIP3    H275972   0.729   2.056   6.399  1.7749 -2.3319  3.1973
18161TIP3   OH275973   3.304   1.181  12.329  0.1358  0.3807  0.0926
18161TIP3    H175974   3.228   1.146  12.375 -0.0875 -0.6177 -0.9865
18161TIP3    H275975   3.311   1.271  12.359 -2.1080  0.8278 -0.5544
18162TIP3   OH275976   3.412   3.487  14.445 -0.1515 -0.1355  0.1075
18162TIP3    H175977   3.421   3.392  14.448 -1.3204 -0.2465  1.0363
18162TIP3    H275978   3.452   3.517  14.526  0.8600  0.2406 -0.5204
18163TIP3   OH275979   4.465   0.225   2.629  0.3028 -0.1409 -0.7102
18163TIP3    H175980   4.533   0.202   2.692 -1.4751 -2.4066  0.5268
18163TIP3    H275981   4.461   0.150   2.569 -1.9059 -0.6772  0.0242
18164TIP3   OH275982   4.751   0.670   5.264 -1.0314  0.3514  0.4427
18164TIP3    H175983   4.765   0.684   5.170  1.2551  0.1942  0.7101
18164TIP3    H275984   4.696   0.743   5.291  0.2867  1.7844 -0.5777
18165TIP3   OH275985   4.994   3.513  11.718  0.5052  1.0117  0.7791
18165TIP3    H175986   5.022   3.594  11.759  2.0258  1.0479 -0.2600
18165TIP3    H275987   5.020   3.523  11.626 -1.0893  0.1664  0.1944
18166TIP3   OH275988   0.045   4.676   4.964  0.1544 -0.3036  0.0622
18166TIP3    H175989  -0.048   4.654   4.969  0.4396 -1.2865  2.3534
18166TIP3    H275990   0.090   4.592   4.969  1.2084  0.0773 -2.0367
18167TIP3   OH275991   0.137   0.542  14.353  0.0260 -0.2454 -0.3382
18167TIP3    H175992   0.051   0.502  14.363  0.2311 -0.3690  1.0904
18167TIP3    H275993   0.134   0.621  14.408  0.9711 -0.4953  0.0938
18168TIP3   OH275994   0.802   6.603   3.653  0.5541  0.1423 -0.0773
18168TIP3    H175995   0.751   6.527   3.626  1.5653  0.0733 -1.9760
18168TIP3    H275996   0.751   6.643   3.723 -0.7959 -1.3586 -0.1508
18169TIP3   OH275997   4.039   0.010   4.049  0.2157  0.1776  0.0831
18169TIP3    H175998   3.964  -0.049   4.045 -0.5171  0.9194  1.9979
18169TIP3    H275999   4.007   0.087   4.095  2.6415 -0.3217  2.8688
18170TIP3   OH276000   3.114   1.375  11.962 -0.1308  0.0244  0.6812
18170TIP3    H176001   3.062   1.453  11.941  1.3709  1.1299  0.8535
18170TIP3    H276002   3.143   1.342  11.877  0.1042  0.3080  0.6461
18171TIP3   OH276003   3.919   0.245   2.070 -0.2662  0.3301 -0.1831
18171TIP3    H176004   3.896   0.158   2.101 -0.2855 -1.0862 -3.6944
18171TIP3    H276005   4.015   0.250   2.078 -0.4259  0.8787  1.9061
18172TIP3   OH276006   1.369   4.654  12.019 -0.2161  1.2646  0.3843
18172TIP3    H176007   1.350   4.748  12.010  1.3134  1.6837  1.2797
18172TIP3    H276008   1.285   4.616  12.045 -1.2059  2.1447 -1.3428
18173TIP3   OH276009   5.897   1.077   1.058  0.3030 -0.3703  0.2955
18173TIP3    H176010   5.895   0.984   1.039  0.0113 -0.1774 -0.6481
18173TIP3    H276011   5.983   1.106   1.025  0.0186 -0.1374 -0.2502
18174TIP3   OH276012   1.080   4.426  12.727 -0.4464  0.5830 -0.0885
18174TIP3    H176013   1.042   4.412  12.814 -0.2183  2.4691  0.3593
18174TIP3    H276014   1.175   4.421  12.741 -0.4231 -0.3833 -0.4981
18175TIP3   OH276015   3.011   2.854  12.429  0.1685 -0.0340 -0.4115
18175TIP3    H176016   2.971   2.922  12.484  2.4335  1.0160  0.0445
18175TIP3    H276017   3.102   2.850  12.457  0.1976 -3.1476 -0.6136
18176TIP3   OH276018   5.559   3.815  12.388 -0.3750  0.3028 -0.0907
18176TIP3    H176019   5.587   3.886  12.331 -0.8816  0.3964 -0.2269
18176TIP3    H276020   5.536   3.744  12.329  2.0197 -0.7192  0.0833
18177TIP3   OH276021   4.160   0.355  13.525 -0.4987 -0.1139 -0.0157
18177TIP3    H176022   4.230   0.347  13.590  0.7954 -0.0939 -1.3475
18177TIP3    H276023   4.154   0.268  13.486 -1.9329 -0.3888  0.7465
18178TIP3   OH276024   5.560   5.868   0.210  0.1425  0.6209 -0.2273
18178TIP3    H176025   5.627   5.891   0.147  2.1598 -3.4468  0.0808
18178TIP3    H276026   5.484   5.842   0.157  1.3633 -1.5073 -1.0418
18179TIP3   OH276027   5.530   3.743   0.917  0.4919  0.3206  0.2940
18179TIP3    H176028   5.611   3.696   0.938  1.2254  0.5609 -1.7994
18179TIP3    H276029   5.488   3.688   0.851  0.3670  1.5772 -0.7031
18180TIP3   OH276030   0.120   2.254   6.329  0.1924 -0.4642  0.0433
18180TIP3    H176031   0.048   2.215   6.279 -0.4158 -1.0917  1.3501
18180TIP3    H276032   0.197   2.202   6.304  0.3521  0.5924 -1.8145
18181TIP3   OH276033   5.468   4.298  15.005 -0.1013  0.5227  0.0323
18181TIP3    H176034   5.495   4.313  14.914 -0.9719  1.0498 -0.1518
18181TIP3    H276035   5.430   4.210  15.005 -0.2966  0.6073 -0.1625
18182TIP3   OH276036   2.593   1.291  12.511 -0.3027  0.1738 -0.1442
18182TIP3    H176037   2.499   1.306  12.505 -0.1493  1.2804 -0.0428
18182TIP3    H276038   2.601   1.207  12.556 -1.2822 -1.8333 -3.3463
18183TIP3   OH276039   2.943   0.981   0.242  0.2017  0.1882 -0.0316
18183TIP3    H176040   2.938   0.900   0.293  0.1145 -0.1523 -0.5730
18183TIP3    H276041   2.932   0.953   0.151 -0.5363  0.8851 -0.1684
18184TIP3   OH276042   6.236   4.602  14.519  0.7600 -0.0252 -0.3109
18184TIP3    H176043   6.258   4.680  14.571  1.4560 -0.3240 -0.1320
18184TIP3    H276044   6.259   4.529  14.577  0.6032 -0.3619 -0.6739
18185TIP3   OH276045   6.028   6.428  12.605  0.5182 -0.0573 -0.3418
18185TIP3    H176046   6.032   6.471  12.520  1.9991 -1.2905 -0.9494
18185TIP3    H276047   6.012   6.336  12.585 -0.8894 -0.1033  0.8291
18186TIP3   OH276048   2.385   3.804   4.047 -0.0119 -0.4094 -0.3630
18186TIP3    H176049   2.383   3.717   4.006 -0.7911  0.0495 -1.3431
18186TIP3    H276050   2.457   3.849   4.003 -0.9350  0.1303 -1.3912
18187TIP3   OH276051   1.201   2.922  16.978 -0.8126 -0.2274 -0.0584
18187TIP3    H176052   1.254   2.998  16.998 -0.7737 -0.9929  3.4592
18187TIP3    H276053   1.120   2.934  17.029 -0.8080 -2.4450  0.6153
18188TIP3   OH276054   4.173   0.896  13.134 -0.5819 -0.0135 -0.0840
18188TIP3    H176055   4.241   0.850  13.183 -0.2040  2.1095  1.5671
18188TIP3    H276056   4.093   0.845  13.150  0.0507 -0.8404  0.5233
18189TIP3   OH276057   3.171   5.265   3.815 -0.0227 -0.5385 -0.3774
18189TIP3    H176058   3.128   5.323   3.878  0.7337  1.3140 -1.4905
18189TIP3    H276059   3.099   5.216   3.774 -0.7573  0.1349  0.0831
18190TIP3   OH276060   3.670   4.473  13.705  0.2563 -0.7184  0.0938
18190TIP3    H176061   3.657   4.481  13.800 -0.6853 -0.9607 -0.0061
18190TIP3    H276062   3.648   4.560  13.671 -0.1272 -0.8420  0.0248
18191TIP3   OH276063   3.056   0.818  16.474 -0.2022  0.0011 -0.6855
18191TIP3    H176064   2.962   0.801  16.462 -0.4399 -0.7896  1.7147
18191TIP3    H276065   3.063   0.913  16.479 -0.4686  0.2350 -3.1808
18192TIP3   OH276066   1.027   1.719  13.684  0.5912  0.0512  0.1759
18192TIP3    H176067   1.066   1.796  13.643 -0.6628 -0.5186 -2.2753
18192TIP3    H276068   0.980   1.753  13.760 -1.6820  2.1042 -1.9989
18193TIP3   OH276069   2.457   0.689  12.690  0.2871 -0.2856  0.2621
18193TIP3    H176070   2.431   0.657  12.777 -0.1953  1.3371  0.7557
18193TIP3    H276071   2.547   0.659  12.679 -0.6561 -3.2806 -0.0969
18194TIP3   OH276072   5.806   1.918   0.191 -0.0111  0.0060  0.2675
18194TIP3    H176073   5.853   1.939   0.110  0.1242  1.1736  0.6359
18194TIP3    H276074   5.741   1.853   0.164  2.2467 -2.2527 -0.1161
18195TIP3   OH276075   0.450   1.218   5.967  0.0009  0.3577  0.0591
18195TIP3    H176076   0.373   1.275   5.957  0.0773  0.6141  0.8524
18195TIP3    H276077   0.522   1.278   5.984  0.5112  0.1598 -1.2870
18196TIP3   OH276078   1.624   4.381  16.705  0.8641  0.2116 -0.4280
18196TIP3    H176079   1.663   4.418  16.626  1.2855  0.6261 -0.0291
18196TIP3    H276080   1.678   4.414  16.776 -0.7055  1.5072  0.2162
18197TIP3   OH276081   3.583   4.574  10.600 -0.2356 -0.6267 -0.2878
18197TIP3    H176082   3.500   4.563  10.647 -1.0587 -1.4778 -1.8617
18197TIP3    H276083   3.617   4.658  10.631 -1.1237 -0.7796  1.2052
18198TIP3   OH276084   4.317   5.496   4.110 -0.0744 -0.3629  0.2662
18198TIP3    H176085   4.254   5.548   4.061 -0.4382 -0.2674  0.8296
18198TIP3    H276086   4.274   5.478   4.194  0.1876 -1.2653  0.2242
18199TIP3   OH276087   5.529   1.816  13.156  0.0173  0.2708 -0.2503
18199TIP3    H176088   5.483   1.899  13.168  1.2163  0.8522  0.6141
18199TIP3    H276089   5.509   1.767  13.236 -0.0120  0.0768 -0.3788
18200TIP3   OH276090   6.413   6.352   3.724 -0.6781  1.0609 -0.1388
18200TIP3    H176091   6.378   6.263   3.714  1.4943  0.1084  0.0563
18200TIP3    H276092   6.501   6.347   3.686  0.0567  2.7483  1.2073
18201TIP3   OH276093   1.916   0.709   6.326  0.7533  0.5092  0.9527
18201TIP3    H176094   1.884   0.619   6.318  0.7353  0.3751  2.3372
18201TIP3    H276095   1.993   0.712   6.269  0.1053 -0.0558  0.0318
18202TIP3   OH276096   4.012   1.569   3.633 -0.1668  0.4058  0.4345
18202TIP3    H176097   3.945   1.559   3.700 -0.3492 -0.8581  0.0898
18202TIP3    H276098   4.057   1.650   3.656  0.2470 -0.3391  2.5182
18203TIP3   OH276099   6.059   4.662  12.800 -0.2061  0.3528 -0.4516
18203TIP3    H176100   6.067   4.660  12.895  0.8393  0.5988 -0.5144
18203TIP3    H276101   6.100   4.746  12.775 -1.6725  0.9277 -1.0235
18204TIP3   OH276102   5.881   4.027  16.210 -0.2776 -0.1987 -0.2726
18204TIP3    H176103   5.800   4.004  16.165 -0.2769 -0.5789 -0.0776
18204TIP3    H276104   5.906   3.948  16.257  0.0094  0.0325 -0.0341
18205TIP3   OH276105   1.229   2.991  14.063  0.0071 -0.2208 -0.4996
18205TIP3    H176106   1.139   3.022  14.068 -0.3289 -0.6034 -2.9517
18205TIP3    H276107   1.248   2.958  14.151 -2.1545  0.0406  0.1243
18206TIP3   OH276108   0.910   0.087  15.001 -0.4700 -0.3824 -0.3974
18206TIP3    H176109   0.897   0.067  14.908  1.1530 -1.8490 -0.3661
18206TIP3    H276110   0.949   0.007  15.037 -0.2353  0.4819  1.3476
18207TIP3   OH276111   0.893   1.741   2.327 -0.3126  0.1777 -0.0146
18207TIP3    H176112   0.820   1.747   2.264  0.9714 -0.7788 -1.6753
18207TIP3    H276113   0.955   1.807   2.298 -0.2386  0.5653  1.0135
18208TIP3   OH276114   2.898   0.454  16.320  0.6331  0.2400  0.1104
18208TIP3    H176115   2.822   0.493  16.363  0.8302 -0.7934  1.4275
18208TIP3    H276116   2.970   0.514  16.340  0.0588  1.7303 -1.9194
18209TIP3   OH276117   2.687   6.782  11.188  0.5244  0.4715  0.6598
18209TIP3    H176118   2.617   6.845  11.172 -1.1557 -1.7541 -1.7142
18209TIP3    H276119   2.749   6.796  11.117  0.2082 -0.3718  0.1942
18210TIP3   OH276120   2.494   5.532   3.862 -0.4015  0.8430  0.1223
18210TIP3    H176121   2.562   5.486   3.913 -0.8321  0.1907  0.1167
18210TIP3    H276122   2.537   5.613   3.834  0.4894  0.2951 -0.1579
18211TIP3   OH276123   4.917   0.214   1.302 -0.8377  0.4719 -0.2641
18211TIP3    H176124   4.945   0.157   1.231  0.4857 -0.4668  0.9600
18211TIP3    H276125   4.934   0.302   1.270 -0.5036  0.0773 -1.2046
18212TIP3   OH276126   0.792   0.241   1.167  0.1249 -0.0974 -0.4350
18212TIP3    H176127   0.884   0.269   1.169  0.7808 -2.1010 -0.7686
18212TIP3    H276128   0.786   0.176   1.238 -1.3286  0.7863  0.2888
18213TIP3   OH276129   4.364   3.597  11.409  0.2323  0.4303  0.6375
18213TIP3    H176130   4.301   3.594  11.337  1.2980  0.1893 -0.3044
18213TIP3    H276131   4.356   3.686  11.444 -1.4500  0.0618  1.3173
18214TIP3   OH276132   3.468   4.744   0.593  0.6580 -0.2133  0.1058
18214TIP3    H176133   3.499   4.827   0.557 -0.0459 -0.7347 -1.8133
18214TIP3    H276134   3.449   4.690   0.517  1.1858 -2.2049  1.3027
18215TIP3   OH276135   0.925   5.466  14.519 -0.5949 -0.7267  0.2921
18215TIP3    H176136   0.830   5.456  14.519 -0.6850 -0.2287 -1.5909
18215TIP3    H276137   0.939   5.560  14.507  0.1758 -0.5632  2.1679
18216TIP3   OH276138   3.186   3.821  15.842  0.0080  0.4015 -0.4442
18216TIP3    H176139   3.110   3.775  15.879  1.4510 -1.9191 -0.1112
18216TIP3    H276140   3.156   3.910  15.828 -3.0971 -0.6591 -1.3315
18217TIP3   OH276141   5.081   4.587  13.387 -0.1715  0.3177 -0.1317
18217TIP3    H176142   5.032   4.540  13.319 -0.2224  0.1784  0.0002
18217TIP3    H276143   5.034   4.568  13.468  0.4916 -0.4012  0.1070
18218TIP3   OH276144   4.366   4.143   3.115 -0.1969 -0.4571  0.4820
18218TIP3    H176145   4.404   4.230   3.126 -0.7296 -0.3129  1.3272
18218TIP3    H276146   4.330   4.143   3.027  3.4486 -1.2970 -1.2211
18219TIP3   OH276147   3.935   2.629  15.486  0.1636  0.2517 -0.3216
18219TIP3    H176148   3.968   2.659  15.570 -0.6244 -0.4745  0.2706
18219TIP3    H276149   3.949   2.534  15.487 -0.7537  0.1018 -0.5806
18220TIP3   OH276150   6.145   3.301  15.456 -0.9071  0.1414 -0.4642
18220TIP3    H176151   6.075   3.316  15.519 -1.0982 -0.1803 -0.5990
18220TIP3    H276152   6.225   3.322  15.504 -1.1548  1.7371 -0.6761
18221TIP3   OH276153   4.920   2.668  10.690 -0.0117 -0.0267  0.2517
18221TIP3    H176154   4.849   2.729  10.668 -1.6755 -1.7858  0.4770
18221TIP3    H276155   4.946   2.694  10.779 -0.0502  0.9011  0.0105
18222TIP3   OH276156   2.019   0.673   5.236  0.2022 -0.2708  0.4681
18222TIP3    H176157   1.972   0.702   5.314 -0.9215  1.3311 -0.7295
18222TIP3    H276158   1.961   0.608   5.195  0.5588 -0.7346  0.6888
18223TIP3   OH276159   1.544   5.970  10.991  0.5688  0.6540  0.0833
18223TIP3    H176160   1.474   5.920  10.949  0.5108  0.1632  0.7592
18223TIP3    H276161   1.545   6.053  10.944 -0.3195  0.5847 -0.0736
18224TIP3   OH276162   4.989   3.675  16.562  0.0785  0.4981  0.5347
18224TIP3    H176163   5.042   3.645  16.489  0.8540  0.6971  1.0023
18224TIP3    H276164   4.903   3.635  16.548  0.2824  0.3635 -0.3578
18225TIP3   OH276165   0.178   0.470  12.954 -0.3063 -0.1516 -0.5124
18225TIP3    H176166   0.217   0.456  12.867 -0.4315 -2.8139 -0.2213
18225TIP3    H276167   0.126   0.392  12.969  0.4562 -0.2040  2.3686
18226TIP3   OH276168   5.202   6.509   5.390 -0.0152 -0.2636 -0.1766
18226TIP3    H176169   5.271   6.447   5.410  0.4609  0.0775 -0.7306
18226TIP3    H276170   5.157   6.524   5.473 -0.3542 -1.6029 -0.0990
18227TIP3   OH276171   3.184   5.662  16.352 -0.1361 -0.4495 -0.1756
18227TIP3    H176172   3.242   5.712  16.409 -0.5554  2.1859 -1.8775
18227TIP3    H276173   3.129   5.611  16.412  1.4924 -0.2381  1.5976
18228TIP3   OH276174   1.602   4.311  11.981  0.2919  0.0193  0.4079
18228TIP3    H176175   1.643   4.308  11.895 -0.6404  1.7057 -0.1326
18228TIP3    H276176   1.669   4.279  12.041  0.6410 -2.1186 -1.0202
18229TIP3   OH276177   3.249   4.768  16.456  0.1190  0.1421 -0.0424
18229TIP3    H176178   3.197   4.733  16.384 -0.0873 -1.7161  0.9342
18229TIP3    H276179   3.330   4.717  16.454  0.3325  0.4356  0.7083
18230TIP3   OH276180   3.671   4.565  16.966 -0.2596 -0.4161  0.0844
18230TIP3    H176181   3.680   4.609  16.882  2.9898 -5.4813 -2.6951
18230TIP3    H276182   3.732   4.611  17.023  0.7419  0.5420 -1.6749
18231TIP3   OH276183   6.014   0.300   3.034  0.3466 -0.2481 -0.0045
18231TIP3    H176184   5.960   0.227   3.066 -0.7078  0.3143 -0.4270
18231TIP3    H276185   6.080   0.313   3.101 -0.8425 -0.1185  1.1852
18232TIP3   OH276186   4.331   2.241  13.892 -0.4832 -0.3592  0.1561
18232TIP3    H176187   4.408   2.186  13.876 -1.3541 -1.0658 -2.0412
18232TIP3    H276188   4.305   2.270  13.805 -1.2927  1.8751  1.0902
18233TIP3   OH276189   2.287   4.986  10.694 -0.7358  0.1180 -0.1388
18233TIP3    H176190   2.261   4.901  10.730  1.3823 -0.7642 -0.5432
18233TIP3    H276191   2.362   4.966  10.637 -1.1624  2.0633 -1.4772
18234TIP3   OH276192   1.913   3.246   6.051 -0.0522  0.4159 -0.0698
18234TIP3    H176193   1.977   3.221   5.984  0.8237  0.3875  0.7462
18234TIP3    H276194   1.841   3.184   6.039  0.9839 -0.9238  0.3138
18235TIP3   OH276195   6.129   6.229  12.914 -0.4354 -0.1935 -0.0021
18235TIP3    H176196   6.222   6.239  12.894 -1.0888 -0.3627 -3.9326
18235TIP3    H276197   6.126   6.168  12.987  2.5318 -0.9082 -0.3551
18236TIP3   OH276198   2.796   6.781  13.077  0.0378  0.3295 -0.7353
18236TIP3    H176199   2.711   6.761  13.114  0.7685 -0.1995  0.7225
18236TIP3    H276200   2.842   6.697  13.075  0.6504  0.6627 -1.2054
18237TIP3   OH276201   1.364   3.151   1.899 -1.1890 -0.2486 -0.4261
18237TIP3    H176202   1.341   3.173   1.809  0.5984  0.7273 -0.6933
18237TIP3    H276203   1.426   3.219   1.926 -0.1755 -1.5878  0.8540
18238TIP3   OH276204   0.641   6.473   4.146  0.6908  0.0814  0.2591
18238TIP3    H176205   0.548   6.455   4.140  0.6408  0.7318 -1.7906
18238TIP3    H276206   0.647   6.568   4.155  1.1377  0.1254 -0.3649
18239TIP3   OH276207   6.176   6.119   1.163  0.5972 -0.5277 -0.1623
18239TIP3    H176208   6.117   6.194   1.169  1.3035  0.0152  0.1216
18239TIP3    H276209   6.150   6.075   1.082  1.4961  1.1962 -1.4605
18240TIP3   OH276210   1.059   2.305   4.765 -0.3583 -0.2605  0.3124
18240TIP3    H176211   1.078   2.308   4.859  1.3516  1.7723 -0.0322
18240TIP3    H276212   0.964   2.300   4.760 -0.4538 -0.8473  2.1481
18241TIP3   OH276213   4.353   0.360   6.066 -0.0580  0.2754  0.0454
18241TIP3    H176214   4.371   0.429   6.130  0.4784  0.2385 -0.0561
18241TIP3    H276215   4.440   0.324   6.046  0.0352  1.4396 -1.9784
18242TIP3   OH276216   2.949   2.196  10.594  0.1664 -0.0264 -0.3839
18242TIP3    H176217   3.025   2.187  10.651 -0.1267  0.5637  0.1113
18242TIP3    H276218   2.939   2.110  10.554  1.4562  0.0510 -0.9198
18243TIP3   OH276219   6.598   4.725  11.515 -0.0803 -0.0738  0.5546
18243TIP3    H176220   6.518   4.675  11.530 -0.6045  0.3897 -0.5577
18243TIP3    H276221   6.590   4.757  11.425  1.0913  0.4677  0.6191
18244TIP3   OH276222   0.314   2.089   3.560 -0.4139 -0.4614 -0.1733
18244TIP3    H176223   0.260   2.155   3.517 -0.5691  1.6661  2.9531
18244TIP3    H276224   0.401   2.127   3.564  0.6183 -2.3918 -2.0856
18245TIP3   OH276225   1.020   5.082   2.751  0.0970 -0.2098 -0.3233
18245TIP3    H176226   1.051   5.169   2.775  0.3604 -0.0304 -1.2956
18245TIP3    H276227   1.052   5.025   2.822  0.1567  0.4302  0.1730
18246TIP3   OH276228   2.446   6.682   3.528  0.0821 -0.7524  0.2380
18246TIP3    H176229   2.386   6.729   3.587  0.6396  0.3689 -0.0788
18246TIP3    H276230   2.532   6.720   3.545  0.2930 -0.5598 -1.1408
18247TIP3   OH276231   4.306   6.559  15.923 -0.3262 -0.1786 -0.1451
18247TIP3    H176232   4.395   6.525  15.935  0.1555  1.0414 -0.0456
18247TIP3    H276233   4.312   6.616  15.846 -0.3604  1.9307  1.3091
18248TIP3   OH276234   4.908   5.819  15.270  0.3162 -0.0076  0.3628
18248TIP3    H176235   4.971   5.886  15.296 -1.5765  2.5220 -1.0596
18248TIP3    H276236   4.832   5.834  15.327 -0.9430  0.5327 -1.3771
18249TIP3   OH276237   5.181   5.745   0.287 -0.2180  0.1882  0.3929
18249TIP3    H176238   5.263   5.763   0.242 -0.9654  1.4444 -0.5502
18249TIP3    H276239   5.168   5.651   0.278  1.4519 -0.1518  1.1983
18250TIP3   OH276240   2.226   3.438  14.877 -0.0213  0.3432 -0.0158
18250TIP3    H176241   2.315   3.460  14.852 -0.1727 -1.4011 -2.4130
18250TIP3    H276242   2.202   3.505  14.942  3.4762  0.0288  1.8545
18251TIP3   OH276243   0.466   4.293   3.100 -0.1941 -0.1415  0.0055
18251TIP3    H176244   0.453   4.352   3.175  0.5560 -1.2536  1.0472
18251TIP3    H276245   0.546   4.326   3.059 -0.3330  0.1718 -0.0211
18252TIP3   OH276246   1.292   5.862  17.001 -0.2463 -0.6090 -0.6586
18252TIP3    H176247   1.264   5.939  16.951 -1.4222 -0.3684  0.3448
18252TIP3    H276248   1.227   5.795  16.980  0.7109 -1.3217 -1.4395
18253TIP3   OH276249   4.574   4.087   1.205 -0.7547 -0.0001  0.5084
18253TIP3    H176250   4.566   3.999   1.244 -0.2504  0.7906  2.5394
18253TIP3    H276251   4.667   4.096   1.186 -0.7827  0.1523  0.4453
18254TIP3   OH276252   5.579   5.955   2.496  0.6311  0.2407 -0.8237
18254TIP3    H176253   5.563   6.013   2.570  2.5402  0.8317 -0.8281
18254TIP3    H276254   5.570   5.867   2.533  1.1475  0.5316  0.0421
18255TIP3   OH276255   4.586   4.934  13.957  0.1431 -0.1537  0.2138
18255TIP3    H176256   4.569   4.975  13.872  1.0323 -1.3713 -0.5916
18255TIP3    H276257   4.662   4.982  13.992 -0.2494  0.3765  0.3461
18256TIP3   OH276258   0.123   0.144  14.747  0.5573 -0.3989  0.2013
18256TIP3    H176259   0.115   0.210  14.679  1.9766 -0.2672  0.1419
18256TIP3    H276260   0.093   0.063  14.705  0.5855 -0.1516 -0.3037
18257TIP3   OH276261   0.671   1.133   2.907 -0.2256 -0.2813 -0.0205
18257TIP3    H176262   0.728   1.066   2.869  1.0143  0.3172  0.6930
18257TIP3    H276263   0.638   1.182   2.832 -0.2933 -1.0309 -0.4858
18258TIP3   OH276264   4.489   2.774   0.194 -0.0399 -0.4886  0.0035
18258TIP3    H176265   4.447   2.739   0.115 -2.2492  0.3559  0.7136
18258TIP3    H276266   4.460   2.865   0.198  1.9189  0.1482  0.5864
18259TIP3   OH276267   0.706   3.106   2.203  0.0607 -0.3269  0.4075
18259TIP3    H176268   0.730   3.197   2.221 -2.5542  0.1434  1.9996
18259TIP3    H276269   0.636   3.086   2.265  0.9332 -3.6690  0.5171
18260TIP3   OH276270   1.077   4.549  17.144  0.3221 -0.2145 -0.1671
18260TIP3    H176271   1.148   4.564  17.206  0.1784  1.3444 -0.3227
18260TIP3    H276272   1.046   4.460  17.162  2.0671 -0.7954  0.1409
18261TIP3   OH276273   6.409   1.645  15.739  0.4915 -0.2423  0.3879
18261TIP3    H176274   6.339   1.637  15.804 -0.9843  1.6120 -0.8993
18261TIP3    H276275   6.486   1.671  15.790 -0.4885  0.6111  1.4882
18262TIP3   OH276276   4.523   4.977  13.401 -0.0297  0.0899  0.4411
18262TIP3    H176277   4.467   4.953  13.327 -0.1658 -1.2200  0.9525
18262TIP3    H276278   4.611   4.982  13.364  0.0655 -1.5816  0.3577
18263TIP3   OH276279   1.007   2.625  10.966  0.1856 -0.1931  0.1650
18263TIP3    H176280   0.980   2.698  11.022  0.5498 -0.3836  0.5881
18263TIP3    H276281   0.978   2.651  10.878 -2.5859 -0.9571  0.7440
18264TIP3   OH276282   3.650   2.335  16.164  0.1704 -0.8288 -0.0286
18264TIP3    H176283   3.729   2.281  16.168  0.5636 -0.3824 -1.2147
18264TIP3    H276284   3.583   2.276  16.128  0.4478 -0.7061 -0.7650
18265TIP3   OH276285   3.320   2.074  15.057 -0.3546  0.6640 -0.3865
18265TIP3    H176286   3.257   2.144  15.040 -2.4398 -1.3781 -1.6600
18265TIP3    H276287   3.313   2.016  14.981  0.9902 -1.1250  0.7584
18266TIP3   OH276288   0.324   5.290  17.093 -0.1523  1.2246  0.1307
18266TIP3    H176289   0.408   5.319  17.058 -0.3871  2.3877  0.4873
18266TIP3    H276290   0.295   5.221  17.033  1.6842 -0.1784  0.7626
18267TIP3   OH276291   2.478   2.054  12.286  0.0719  0.4087 -0.6031
18267TIP3    H176292   2.407   2.010  12.240 -0.0031 -0.0224 -0.0796
18267TIP3    H276293   2.456   2.147  12.281 -1.4848  0.2002  1.0584
18268TIP3   OH276294   2.836   3.048  16.969  0.0254  0.3914 -0.4724
18268TIP3    H176295   2.916   3.059  16.918  0.6031 -1.1708  0.0396
18268TIP3    H276296   2.866   3.021  17.056 -1.0487 -0.3635 -0.3181
18269TIP3   OH276297   3.011   3.232   5.949 -0.3556 -0.1843  0.2811
18269TIP3    H176298   2.944   3.235   6.018  0.1136 -0.1460  0.7377
18269TIP3    H276299   3.094   3.232   5.996  0.0382  1.7596 -0.3045
18270TIP3   OH276300   4.085   2.778   4.917  0.1082 -0.2591 -0.6845
18270TIP3    H176301   4.006   2.825   4.943 -0.5666 -1.5309 -0.3787
18270TIP3    H276302   4.060   2.731   4.837  0.7150 -0.2348 -0.8941
18271TIP3   OH276303   4.151   6.146   3.590  0.2479 -0.7538 -0.3774
18271TIP3    H176304   4.240   6.163   3.620  0.1011 -1.1528  0.3077
18271TIP3    H276305   4.162   6.112   3.501  0.7776 -0.8046 -0.2948
18272TIP3   OH276306   6.698   6.472   4.361 -0.5583  0.2077  0.4047
18272TIP3    H176307   6.677   6.474   4.268 -0.3713 -2.5728  0.2206
18272TIP3    H276308   6.625   6.518   4.403 -0.1575  2.3951 -1.1085
18273TIP3   OH276309   2.754   1.128   4.989  0.2587  0.0742 -0.2845
18273TIP3    H176310   2.664   1.128   5.024 -0.1863 -2.3581 -1.2166
18273TIP3    H276311   2.794   1.207   5.027 -2.2992  1.3604  0.0110
18274TIP3   OH276312   4.265   5.359  11.606 -0.3883 -0.1712  0.5186
18274TIP3    H176313   4.357   5.385  11.612 -0.2138 -0.6689  0.1028
18274TIP3    H276314   4.259   5.314  11.522 -0.8065 -0.9784  0.9761
18275TIP3   OH276315   3.234   6.420  15.449  0.4765  0.3127 -0.1359
18275TIP3    H176316   3.224   6.351  15.383  0.5356 -1.5848  1.7467
18275TIP3    H276317   3.152   6.469  15.446  0.4301  0.2012 -1.4918
18276TIP3   OH276318   3.323   0.577   2.348  0.0510  0.0138 -0.4814
18276TIP3    H176319   3.252   0.516   2.366  0.9302 -0.4689  1.7310
18276TIP3    H276320   3.325   0.585   2.253 -2.4356 -0.5333 -0.6465
18277TIP3   OH276321   1.572   4.625   3.978 -0.2330  0.3295 -0.1558
18277TIP3    H176322   1.481   4.598   3.993 -0.2311  1.2182  1.6410
18277TIP3    H276323   1.604   4.563   3.912 -1.4127 -1.5566  0.9343
18278TIP3   OH276324   4.200   2.644   1.882 -0.4150 -0.5695 -0.0438
18278TIP3    H176325   4.291   2.641   1.852 -0.0498 -0.9520  1.0284
18278TIP3    H276326   4.156   2.575   1.832  0.2483 -1.4193  0.5201
18279TIP3   OH276327   5.592   5.842  14.892  0.0294  0.1043 -0.3698
18279TIP3    H176328   5.652   5.904  14.851 -0.2896 -0.3524 -1.5706
18279TIP3    H276329   5.549   5.893  14.962  1.4253  0.5636  0.1773
18280TIP3   OH276330   1.665   0.559   2.556  0.8379 -0.0011  0.2969
18280TIP3    H176331   1.575   0.582   2.578  0.4504  0.6604 -1.7688
18280TIP3    H276332   1.682   0.479   2.606 -1.5563 -1.1993 -0.6309
18281TIP3   OH276333   1.116   5.681   6.045 -0.0621 -0.3033  0.3625
18281TIP3    H176334   1.118   5.695   6.139  0.0575 -0.8836  0.4460
18281TIP3    H276335   1.137   5.589   6.033 -2.0948 -0.7714 -0.0969
18282TIP3   OH276336   4.557   5.171   2.641  0.5120  0.7734 -0.2531
18282TIP3    H176337   4.528   5.245   2.694  1.1119  0.7774  0.0694
18282TIP3    H276338   4.643   5.197   2.608  0.3297  0.5927 -0.8772
18283TIP3   OH276339   0.437   1.424  11.972  0.5628  0.5778  0.2486
18283TIP3    H176340   0.389   1.379  11.902  2.9622  0.8585 -1.7143
18283TIP3    H276341   0.376   1.424  12.046 -2.8074  1.6220 -2.2197
18284TIP3   OH276342   3.807   3.245  15.234 -0.5773 -0.1298 -0.3893
18284TIP3    H176343   3.837   3.335  15.229  0.6801 -0.4796  0.3370
18284TIP3    H276344   3.730   3.248  15.291 -0.2840  0.4214 -0.0216
18285TIP3   OH276345   1.574   2.925   5.263  0.1189  0.3342  0.0622
18285TIP3    H176346   1.581   2.981   5.341 -1.5800 -0.1067  0.5701
18285TIP3    H276347   1.568   2.836   5.298  0.2315  0.0509 -0.6241
18286TIP3   OH276348   1.408   2.610  17.258 -0.1206  0.0874  0.0069
18286TIP3    H176349   1.332   2.613  17.316 -1.8108 -0.3045 -2.0764
18286TIP3    H276350   1.438   2.701  17.252  0.3628  0.0762  1.7748
18287TIP3   OH276351   3.967   1.931   5.896  0.3333  0.5364 -0.0869
18287TIP3    H176352   3.873   1.947   5.909  0.3380  1.0451 -0.6377
18287TIP3    H276353   4.006   2.018   5.889  0.6519  0.3314 -1.1582
18288TIP3   OH276354   1.105   0.604   1.138  0.1341 -0.0917  0.3570
18288TIP3    H176355   1.169   0.546   1.096 -0.6118 -1.9339  1.6219
18288TIP3    H276356   1.042   0.624   1.069  0.9796  0.1345 -0.3812
18289TIP3   OH276357   0.078   5.178  15.722 -0.4216 -0.1037  0.2680
18289TIP3    H176358   0.134   5.103  15.744 -1.1749 -1.0780 -0.9665
18289TIP3    H276359   0.139   5.248  15.699  0.2989 -0.8180 -0.0580
18290TIP3   OH276360   6.575   3.628  14.227 -0.1215 -0.2263  0.1155
18290TIP3    H176361   6.649   3.686  14.212  0.1495 -0.5129  0.3498
18290TIP3    H276362   6.613   3.546  14.256 -0.4880 -0.6119 -0.4536
18291TIP3   OH276363   2.894   6.673   1.756 -0.5057  0.2205 -0.4058
18291TIP3    H176364   2.917   6.700   1.667 -0.2979 -0.7788 -0.6666
18291TIP3    H276365   2.964   6.707   1.810 -0.5631  0.7208 -0.6376
18292TIP3   OH276366   6.075   4.722   0.802 -0.1197 -0.3921  0.3086
18292TIP3    H176367   6.065   4.681   0.887  0.8766 -1.0740  0.1147
18292TIP3    H276368   6.097   4.813   0.822  1.0321 -0.7656  0.8046
18293TIP3   OH276369   1.733   5.483   1.827 -0.1058  0.4967  0.3604
18293TIP3    H176370   1.688   5.400   1.814  0.1159  0.6058 -1.2382
18293TIP3    H276371   1.676   5.549   1.788  0.1003  1.0133  0.9037
18294TIP3   OH276372   5.351   4.183   4.517  0.6015  0.2093  0.4623
18294TIP3    H176373   5.359   4.100   4.471  0.6093  0.9694 -0.9452
18294TIP3    H276374   5.435   4.228   4.502  0.2742  0.8407  0.4685
18295TIP3   OH276375   0.382   4.532   5.541  0.0066 -0.0276 -0.2401
18295TIP3    H176376   0.412   4.464   5.602 -1.1473  0.4171  0.8814
18295TIP3    H276377   0.292   4.550   5.569  0.0832  1.5063 -0.9236
18296TIP3   OH276378   6.717   2.689   0.763  0.1116  0.5577  0.1834
18296TIP3    H176379   6.743   2.720   0.849  1.4889 -0.3829  0.1357
18296TIP3    H276380   6.638   2.638   0.778  0.4119  0.3020  0.9103
18297TIP3   OH276381   6.101   4.916   3.920 -0.4321  0.1426  0.0482
18297TIP3    H176382   6.058   4.918   4.005 -0.4228 -0.9394  0.0897
18297TIP3    H276383   6.038   4.873   3.862  0.4382 -1.1958  0.0440
18298TIP3   OH276384   5.018   2.259  13.582  0.7314  0.1049  0.4213
18298TIP3    H176385   5.090   2.290  13.636  0.6708  1.0506 -0.0112
18298TIP3    H276386   4.945   2.318  13.604  1.3115  1.9975 -2.2480
18299TIP3   OH276387   0.125   1.788  15.323 -0.3300 -0.5246 -0.3576
18299TIP3    H176388   0.178   1.783  15.403 -1.3291 -1.5065  0.2695
18299TIP3    H276389   0.085   1.875  15.325  1.1558  0.2041 -0.8024
18300TIP3   OH276390   2.694   6.578  11.910 -0.1346 -0.2602 -0.1800
18300TIP3    H176391   2.675   6.609  11.821 -0.4323 -0.0643 -0.0510
18300TIP3    H276392   2.760   6.510  11.898  0.4167  0.3141 -0.4911
18301TIP3   OH276393   0.249   4.187  12.214  0.0244 -0.0805  0.6130
18301TIP3    H176394   0.303   4.233  12.279 -0.4739 -0.0274  0.9952
18301TIP3    H276395   0.174   4.155  12.264 -0.7717  0.6433 -0.0796
18302TIP3   OH276396   3.089   2.557  14.553  0.4506  0.1602  0.2560
18302TIP3    H176397   3.076   2.462  14.554  0.6648  0.1141 -0.5425
18302TIP3    H276398   3.000   2.594  14.554  0.3580 -0.0570  0.1064
18303TIP3   OH276399   6.444   2.261   5.088  0.1004 -0.1978  0.1420
18303TIP3    H176400   6.502   2.189   5.112  0.3309 -0.5583 -1.3689
18303TIP3    H276401   6.394   2.228   5.013 -0.3529  0.9323 -0.0827
18304TIP3   OH276402   4.546   2.163   2.593  0.3769 -0.0043 -0.0409
18304TIP3    H176403   4.625   2.159   2.539  0.7289 -0.4789  0.4952
18304TIP3    H276404   4.551   2.249   2.636  1.3947 -0.6256  1.1473
18305TIP3   OH276405   1.425   5.125  13.453  0.6733  0.1637 -0.0793
18305TIP3    H176406   1.505   5.173  13.430  0.6552  0.1511 -0.1683
18305TIP3    H276407   1.357   5.193  13.456  0.2345 -0.1230 -2.2111
18306TIP3   OH276408   2.062   1.569  13.736 -0.4526 -0.2034 -0.3271
18306TIP3    H176409   2.073   1.633  13.807  0.4129  0.5908 -1.1392
18306TIP3    H276410   1.971   1.579  13.708 -0.6849 -0.2364  0.4054
18307TIP3   OH276411   5.289   1.329  15.327  0.4741 -0.2259  0.2475
18307TIP3    H176412   5.241   1.404  15.292  1.0049  0.6789  1.3776
18307TIP3    H276413   5.229   1.255  15.318 -0.9841  0.7871  1.2327
18308TIP3   OH276414   2.796   6.614   0.355 -0.2373 -0.1388  0.0571
18308TIP3    H176415   2.866   6.679   0.367 -0.0241 -0.0295 -1.5741
18308TIP3    H276416   2.762   6.631   0.267 -2.0651 -0.4554  0.6625
18309TIP3   OH276417   4.277   4.049   4.913  0.2923 -0.4675  0.3223
18309TIP3    H176418   4.213   4.090   4.855  0.4057  1.8191  1.7120
18309TIP3    H276419   4.240   4.059   5.001  1.0163 -2.1347  0.8568
18310TIP3   OH276420   2.035   3.961   3.236 -0.2526  0.0356 -0.2271
18310TIP3    H176421   1.971   3.907   3.191  0.3941  1.0496 -2.5095
18310TIP3    H276422   2.055   3.913   3.317 -1.8107 -1.6418 -0.7844
18311TIP3   OH276423   6.786   6.480  17.044 -0.0889 -0.3825  0.0342
18311TIP3    H176424   6.757   6.571  17.039 -1.1056 -0.7298 -0.8082
18311TIP3    H276425   6.765   6.443  16.958 -0.2951 -1.5897  0.5769
18312TIP3   OH276426   6.651   2.679   2.547 -0.6024 -0.1764  0.1122
18312TIP3    H176427   6.669   2.597   2.502 -0.2336 -0.3267  0.5318
18312TIP3    H276428   6.627   2.654   2.636 -1.0303  0.1376  0.0873
18313TIP3   OH276429   1.994   3.118   2.806  0.5412 -0.2740  0.0346
18313TIP3    H176430   2.001   3.213   2.805 -0.0150 -0.2198 -1.4111
18313TIP3    H276431   1.989   3.095   2.899  0.6246  1.1041  0.3995
18314TIP3   OH276432   0.170   6.228  12.310  0.2338 -0.7628 -0.3293
18314TIP3    H176433   0.103   6.179  12.357  0.3832  0.1342  0.8506
18314TIP3    H276434   0.224   6.268  12.378  0.1503  0.9996 -1.2485
18315TIP3   OH276435   0.340   0.340  15.097  0.2048 -0.1413 -0.2385
18315TIP3    H176436   0.435   0.332  15.107  0.2292  0.9467  0.6105
18315TIP3    H276437   0.304   0.263  15.142  0.6780 -0.8240 -0.9952
18316TIP3   OH276438   5.540   0.814  12.058  0.1972 -0.1617  0.3157
18316TIP3    H176439   5.477   0.760  12.011 -2.3189  2.9615 -0.2767
18316TIP3    H276440   5.523   0.796  12.151 -0.6197 -0.3920  0.1321
18317TIP3   OH276441   4.234   4.185  15.348 -0.0868  0.4170 -0.3447
18317TIP3    H176442   4.145   4.204  15.379 -0.1514 -0.2860 -0.0854
18317TIP3    H276443   4.232   4.207  15.255 -0.0972  1.8522 -0.0361
18318TIP3   OH276444   3.846   3.741  16.918 -0.4827  0.0787 -0.1445
18318TIP3    H176445   3.790   3.792  16.976 -0.9022 -0.0368 -0.4418
18318TIP3    H276446   3.882   3.804  16.856  1.6155  0.5645  1.4756
18319TIP3   OH276447   0.301   5.633   0.174 -0.2406  0.2593  0.0979
18319TIP3    H176448   0.383   5.652   0.128 -0.7324  1.8133 -0.1909
18319TIP3    H276449   0.235   5.631   0.104 -0.3677 -1.8205  0.2162
18320TIP3   OH276450   5.193   5.205  15.351  0.5979 -0.1389 -0.2034
18320TIP3    H176451   5.168   5.129  15.299  1.2759 -0.5027 -0.0154
18320TIP3    H276452   5.114   5.259  15.355 -0.0051 -1.0135 -0.0225
18321TIP3   OH276453   0.494   5.647  12.475 -0.0734 -0.2545 -0.2976
18321TIP3    H176454   0.561   5.713  12.493 -0.1352 -0.4009  0.5351
18321TIP3    H276455   0.544   5.567  12.457  0.0303  0.1904 -2.2121
18322TIP3   OH276456   1.306   0.494   3.217 -0.2344  0.0195  0.9754
18322TIP3    H176457   1.388   0.524   3.177  0.4181 -0.5507  1.8459
18322TIP3    H276458   1.296   0.549   3.295 -1.7279  1.4287 -0.1405
18323TIP3   OH276459   3.046   3.265   3.017 -0.1949 -0.1389 -0.1032
18323TIP3    H176460   3.053   3.190   3.076  0.7632 -0.5134 -0.6742
18323TIP3    H276461   2.962   3.254   2.974 -1.9964  1.3148  2.7379
18324TIP3   OH276462   4.049   0.795   4.479 -0.3064 -0.3292  0.4953
18324TIP3    H176463   3.996   0.723   4.444 -2.7036  0.7798  1.6050
18324TIP3    H276464   4.048   0.781   4.574  0.8031  0.1411  0.5907
18325TIP3   OH276465   1.051   5.459  15.106 -0.5078  0.1040  0.4656
18325TIP3    H176466   1.052   5.438  15.013  1.3710 -0.0105  0.4760
18325TIP3    H276467   1.030   5.552  15.110  0.7216  0.4278 -0.1793
18326TIP3   OH276468   1.728   4.629   5.189 -0.0215  0.4282 -0.0810
18326TIP3    H176469   1.718   4.722   5.209 -0.3569  0.0849  1.5662
18326TIP3    H276470   1.738   4.625   5.094 -0.1647  2.1226 -0.1972
18327TIP3   OH276471   0.838   2.071  16.220  0.0947  0.0919  0.4065
18327TIP3    H176472   0.899   2.016  16.172  0.0294  1.6191 -1.5421
18327TIP3    H276473   0.865   2.161  16.201 -1.1633  0.7795  1.6399
18328TIP3   OH276474   0.986   4.551  16.406  0.2419  0.0097  0.1038
18328TIP3    H176475   0.972   4.608  16.482  0.0465 -0.0135  0.0857
18328TIP3    H276476   0.909   4.564  16.352  0.3420 -0.0383 -0.0508
18329TIP3   OH276477   3.815   4.124   0.730 -0.1735  0.3866 -0.4062
18329TIP3    H176478   3.785   4.041   0.767 -1.2656  0.8955 -0.1181
18329TIP3    H276479   3.757   4.190   0.768 -0.0696  1.1507 -1.5219
18330TIP3   OH276480   5.879   4.774  16.000  0.6181 -0.3030 -0.0649
18330TIP3    H176481   5.939   4.841  15.968  0.7181 -0.3428  0.0387
18330TIP3    H276482   5.931   4.693  15.997  1.2570 -0.0153  1.9975
18331TIP3   OH276483   5.324   2.431  14.639  0.8167  0.0020  0.1076
18331TIP3    H176484   5.410   2.469  14.660  1.2273 -1.5401  1.3855
18331TIP3    H276485   5.271   2.506  14.612  2.5542  1.0011 -0.7303
18332TIP3   OH276486   0.906   5.589   5.791 -0.5280 -0.1151 -0.1203
18332TIP3    H176487   0.831   5.555   5.839 -0.4679 -0.2958 -0.1517
18332TIP3    H276488   0.959   5.512   5.773  0.4385  0.1944  1.2372
18333TIP3   OH276489   3.367   0.577   5.168 -0.1014  0.7005  0.0280
18333TIP3    H176490   3.420   0.499   5.187 -2.0890 -0.9530 -0.8263
18333TIP3    H276491   3.423   0.630   5.112  1.9411  0.7534  1.9459
18334TIP3   OH276492   5.950   5.198  10.838 -0.2459  0.0037  0.1738
18334TIP3    H176493   6.030   5.248  10.854 -0.5815  0.7800 -0.5149
18334TIP3    H276494   5.978   5.106  10.840  0.4329  0.2223  1.1322
18335TIP3   OH276495   1.904   1.345   5.607  0.1298 -0.1752 -0.2773
18335TIP3    H176496   1.829   1.320   5.660 -0.1822  0.2221 -0.5197
18335TIP3    H276497   1.938   1.263   5.572 -0.0404 -0.3787  0.0340
18336TIP3   OH276498   1.753   0.422   4.437 -0.2766  0.2033 -0.0293
18336TIP3    H176499   1.744   0.512   4.407 -1.5144 -0.1622 -0.8639
18336TIP3    H276500   1.785   0.375   4.360  0.7714 -0.0053  0.5243
18337TIP3   OH276501   2.724   5.460  13.271 -0.5946  0.0018 -0.1133
18337TIP3    H176502   2.747   5.535  13.325  0.0604 -0.1822 -0.1201
18337TIP3    H276503   2.785   5.465  13.197 -1.5391  0.3055 -0.8921
18338TIP3   OH276504   2.715   5.546   4.612 -0.4842  0.0598 -0.1183
18338TIP3    H176505   2.721   5.636   4.643 -1.0868 -0.4003  1.4106
18338TIP3    H276506   2.630   5.515   4.644 -0.1031 -1.1845 -0.2687
18339TIP3   OH276507   3.096   1.222   4.162 -0.2016  0.5169 -0.2019
18339TIP3    H176508   3.176   1.211   4.213 -0.6971  0.8545  0.6725
18339TIP3    H276509   3.029   1.176   4.212 -0.1556 -1.7178 -2.0679
18340TIP3   OH276510   3.266   6.726   2.707 -0.5246 -0.0344  0.2780
18340TIP3    H176511   3.271   6.763   2.795  3.8088  1.2187 -0.2921
18340TIP3    H276512   3.260   6.802   2.650  4.2528 -0.1349 -0.7063
18341TIP3   OH276513   3.897   0.232  12.832  0.2709  0.9370 -0.5608
18341TIP3    H176514   3.804   0.241  12.811 -0.1767 -0.2841  0.7046
18341TIP3    H276515   3.920   0.313  12.877  0.4708  2.2662 -2.9333
18342TIP3   OH276516   4.643   0.192   2.821  0.7336  0.3988  0.3760
18342TIP3    H176517   4.701   0.120   2.845  2.1652  1.5066  0.3859
18342TIP3    H276518   4.663   0.262   2.883  0.8191  1.5008 -0.8310
18343TIP3   OH276519   3.029   0.648   5.526  0.1113 -0.5248  0.4606
18343TIP3    H176520   3.009   0.578   5.465  1.2875 -0.8376  0.4173
18343TIP3    H276521   3.054   0.603   5.607  0.0605 -0.1385  0.6964
18344TIP3   OH276522   1.234   5.462   0.198  0.2176  0.8904 -0.1884
18344TIP3    H176523   1.327   5.450   0.219  0.1584 -0.1476 -0.4578
18344TIP3    H276524   1.196   5.375   0.211 -0.4537  0.9946 -1.3651
18345TIP3   OH276525   4.120   5.282  15.165 -0.2107  0.0430 -0.0332
18345TIP3    H176526   4.164   5.197  15.175 -1.9610 -0.8315  0.6346
18345TIP3    H276527   4.048   5.264  15.105 -0.9108  0.9375  0.5241
18346TIP3   OH276528   0.162   2.292  13.618 -0.2282 -0.0969  0.3595
18346TIP3    H176529   0.182   2.203  13.648  2.2360  0.1791 -0.2659
18346TIP3    H276530   0.166   2.287  13.523 -0.9811  0.5092  0.2880
18347TIP3   OH276531   5.303   2.997  17.081  0.3065  0.7359 -0.1452
18347TIP3    H176532   5.248   3.075  17.071 -0.2661  0.5631  1.3923
18347TIP3    H276533   5.370   3.007  17.013 -0.5931  1.8305 -0.9239
18348TIP3   OH276534   3.244   2.579   1.926  0.6084 -0.1518 -0.3221
18348TIP3    H176535   3.248   2.526   1.847 -1.5674  0.2501 -0.7681
18348TIP3    H276536   3.231   2.669   1.895 -0.7742 -0.0535  0.4462
18349TIP3   OH276537   4.980   2.618  12.271  0.4254  0.4744 -0.4340
18349TIP3    H176538   4.932   2.678  12.329 -0.2416 -0.4931  0.0383
18349TIP3    H276539   5.048   2.580  12.327 -1.1031 -1.5339  0.1704
18350TIP3   OH276540   1.032   0.710  12.064 -0.1653 -0.2456  0.5441
18350TIP3    H176541   1.065   0.621  12.077 -0.4353 -0.2060  1.5269
18350TIP3    H276542   1.061   0.733  11.975  2.6430 -0.1277  1.4039
18351TIP3   OH276543   0.670   3.532   3.458 -0.5843  0.4442 -0.4435
18351TIP3    H176544   0.662   3.595   3.386  1.9083  1.0699 -0.2929
18351TIP3    H276545   0.756   3.492   3.445 -0.7632 -0.5978  1.2739
18352TIP3   OH276546   4.018   4.759  14.041  0.2583  0.3490  0.1095
18352TIP3    H176547   4.069   4.695  14.092 -0.1870  0.2372  0.4188
18352TIP3    H276548   4.069   4.840  14.047  0.4674  0.2056  0.3065
18353TIP3   OH276549   6.738   4.766   0.142  0.1332 -0.3679  0.2233
18353TIP3    H176550   6.785   4.795   0.220  0.4107  2.6160 -0.9135
18353TIP3    H276551   6.805   4.730   0.085  0.3416 -0.1988  0.3619
18354TIP3   OH276552   4.655   0.433   6.339  0.2902 -0.7269  0.4179
18354TIP3    H176553   4.643   0.493   6.265 -0.0711  1.9718  2.5136
18354TIP3    H276554   4.707   0.361   6.303 -0.8769 -0.1367 -2.7113
18355TIP3   OH276555   0.145   5.905   5.886  0.0459  0.5837  0.0103
18355TIP3    H176556   0.214   5.931   5.825 -0.4811  0.3354 -0.7064
18355TIP3    H276557   0.075   5.969   5.872 -0.2951  0.2054 -0.0441
18356TIP3   OH276558   6.098   2.520   2.614  0.0662  0.1948  0.4501
18356TIP3    H176559   6.089   2.483   2.702 -0.6286 -1.2396 -0.1903
18356TIP3    H276560   6.047   2.602   2.617  0.8609  0.6694  1.6371
18357TIP3   OH276561   1.045   3.023   4.394 -0.1295 -0.1837  0.1417
18357TIP3    H176562   1.097   3.102   4.407  0.5460 -0.8040  1.4773
18357TIP3    H276563   0.993   3.041   4.316 -0.4089  1.7829  0.7194
18358TIP3   OH276564   1.197   4.839   3.997  0.0768  0.5788 -0.0610
18358TIP3    H176565   1.285   4.876   4.006 -0.2869  1.4447  0.0797
18358TIP3    H276566   1.185   4.788   4.077  0.3646  0.6452  0.0269
18359TIP3   OH276567   2.423   2.014   2.735 -0.7086 -0.0065  0.3740
18359TIP3    H176568   2.501   1.959   2.723 -0.0090  0.7818  1.1945
18359TIP3    H276569   2.432   2.082   2.668 -0.7587  0.0041  0.3788
18360TIP3   OH276570   1.037   1.702   4.524  0.3161 -0.3050  0.3043
18360TIP3    H176571   1.008   1.622   4.480  1.1322  1.1355 -3.1193
18360TIP3    H276572   0.957   1.753   4.538 -0.1576 -1.4307  2.1718
18361TIP3   OH276573   0.743   6.292   0.094 -0.1901  0.4495 -0.1313
18361TIP3    H176574   0.770   6.342   0.017 -2.2804  1.1154 -0.4949
18361TIP3    H276575   0.825   6.259   0.131  0.9165  0.5642 -2.3121
18362TIP3   OH276576   2.901   2.416  14.719 -0.0339 -0.1227  0.0004
18362TIP3    H176577   2.812   2.413  14.686  0.1299 -0.1972 -0.4451
18362TIP3    H276578   2.913   2.507  14.748 -0.1584 -0.0364 -0.2136
18363TIP3   OH276579   4.292   5.751   0.848  0.2774 -0.5893  0.3643
18363TIP3    H176580   4.256   5.832   0.884 -0.0349 -0.1036 -0.9853
18363TIP3    H276581   4.217   5.692   0.843 -0.1181 -0.0079 -1.2367
18364TIP3   OH276582   4.618   4.403  12.137  0.1923 -0.3920 -0.4893
18364TIP3    H176583   4.686   4.443  12.191 -1.1618  1.5133 -0.0953
18364TIP3    H276584   4.666   4.365  12.063  1.8467 -0.9569  0.8016
18365TIP3   OH276585   6.623   0.899   4.045 -0.0790 -0.2124  0.1453
18365TIP3    H176586   6.535   0.934   4.053  0.2503  0.5073  0.8094
18365TIP3    H276587   6.663   0.949   3.975 -0.3832 -0.9689 -0.5873
18366TIP3   OH276588   1.730   1.426  16.688  0.5084 -0.1785 -0.0738
18366TIP3    H176589   1.654   1.407  16.744  2.0145 -2.5671  1.3370
18366TIP3    H276590   1.782   1.488  16.740 -0.0071  0.7387 -0.6345
18367TIP3   OH276591   1.293   6.365   5.811  0.2234 -0.1145  0.0454
18367TIP3    H176592   1.349   6.437   5.783 -1.4531  1.7478  1.2248
18367TIP3    H276593   1.324   6.343   5.899 -0.3908  0.4247  0.4067
18368TIP3   OH276594   5.896   1.287   4.212  0.0774  0.4089 -0.3229
18368TIP3    H176595   5.983   1.276   4.173  0.4429  0.3387  0.4927
18368TIP3    H276596   5.909   1.271   4.305 -1.0904 -1.0054 -0.3716
18369TIP3   OH276597   6.177   0.487   5.312  0.2112  0.3670 -0.5031
18369TIP3    H176598   6.238   0.560   5.316 -0.9662  1.3787 -0.1170
18369TIP3    H276599   6.224   0.418   5.267  1.2217  1.5169 -1.2676
18370TIP3   OH276600   2.748   4.171  11.540  0.0209  0.2027  0.1685
18370TIP3    H176601   2.681   4.172  11.608 -0.4342 -0.8468 -0.2421
18370TIP3    H276602   2.754   4.079  11.513  1.9516  0.1859  0.4927
18371TIP3   OH276603   2.697   2.774  10.978  0.0359 -0.4157 -0.0724
18371TIP3    H176604   2.609   2.760  11.013 -0.1194 -0.2092 -0.3839
18371TIP3    H276605   2.712   2.868  10.984  0.1506 -0.4231 -0.2247
18372TIP3   OH276606   3.889   0.971   4.676 -1.1894 -0.9835  0.1558
18372TIP3    H176607   3.841   1.051   4.699 -0.5817 -0.7875  0.7674
18372TIP3    H276608   3.948   0.996   4.606  0.1040 -0.5038  1.3804
18373TIP3   OH276609   2.523   0.978  13.128 -0.3215 -0.6086 -0.1065
18373TIP3    H176610   2.447   0.992  13.185  0.7773  0.4659  1.1462
18373TIP3    H276611   2.549   0.887  13.146  0.1238 -0.2302  1.2873
18374TIP3   OH276612   1.440   1.248   5.118  0.2536  0.3033 -0.0379
18374TIP3    H176613   1.412   1.186   5.184  1.2347 -1.5759 -1.3027
18374TIP3    H276614   1.359   1.274   5.074 -0.4484  1.8197  2.0006
18375TIP3   OH276615   0.216   6.449  12.972  0.2874  0.7611  0.7079
18375TIP3    H176616   0.199   6.363  12.935  2.5757  1.0630 -1.3459
18375TIP3    H276617   0.307   6.468  12.948  0.3061  3.1735  2.3012
18376TIP3   OH276618   1.020   4.132   2.959  0.3636  0.7347 -0.1103
18376TIP3    H176619   1.036   4.220   2.994 -0.9430  1.1064 -0.4041
18376TIP3    H276620   0.994   4.080   3.035 -0.9215  1.1473 -0.2414
18377TIP3   OH276621   2.670   6.323   3.471  0.3596  0.3432 -0.1941
18377TIP3    H176622   2.635   6.310   3.559  0.1475 -0.5965 -0.4117
18377TIP3    H276623   2.682   6.418   3.465  0.8163  0.3861  1.0118
18378TIP3   OH276624   2.842   2.581   6.711 -0.4149  0.0453  0.2160
18378TIP3    H176625   2.881   2.504   6.669  3.0007  2.0314 -0.6732
18378TIP3    H276626   2.782   2.617   6.645 -2.9142 -2.2950  1.0507
18379TIP3   OH276627   1.189   5.613  11.578 -0.4912 -0.6243  0.2229
18379TIP3    H176628   1.190   5.526  11.620  1.3317 -1.0694 -0.6379
18379TIP3    H276629   1.212   5.673  11.649 -1.2710 -0.8929  0.7165
18380TIP3   OH276630   5.404   2.533  16.734 -0.3551  0.0280 -0.2032
18380TIP3    H176631   5.389   2.443  16.764  3.2454 -0.6413  0.0933
18380TIP3    H276632   5.408   2.585  16.814  2.9847 -0.6615  0.2497
18381TIP3   OH276633   0.570   2.989  15.841 -0.1307  0.0013 -0.0860
18381TIP3    H176634   0.623   3.063  15.810  0.2758 -0.1953  0.1293
18381TIP3    H276635   0.514   2.967  15.767  0.8596 -0.4886 -0.7200
18382TIP3   OH276636   5.628   2.567  14.014  0.4439 -0.0071  0.0469
18382TIP3    H176637   5.664   2.655  14.011  1.2520 -0.3135  0.4946
18382TIP3    H276638   5.672   2.525  14.088  2.5458 -1.8202 -2.0487
18383TIP3   OH276639   4.821   4.712  11.973  0.4664  0.2990 -0.5358
18383TIP3    H176640   4.879   4.736  11.901  0.5383 -0.7498 -0.8558
18383TIP3    H276641   4.870   4.646  12.022  0.0171  0.2801 -0.1056
18384TIP3   OH276642   6.479   1.834  16.736 -0.6512  0.4055  0.4205
18384TIP3    H176643   6.560   1.873  16.704 -0.3183 -1.0618 -0.6521
18384TIP3    H276644   6.507   1.772  16.803 -0.8236 -0.4454 -0.2784
18385TIP3   OH276645   2.176   1.114  11.417  0.0185  0.3134 -0.4365
18385TIP3    H176646   2.194   1.148  11.505  0.4859 -2.6877  0.7519
18385TIP3    H276647   2.213   1.180  11.358  1.4537  1.5204  1.6603
18386TIP3   OH276648   6.785   2.490  13.818 -0.6215 -0.7322  0.3570
18386TIP3    H176649   6.822   2.411  13.857  1.0680  0.4624  1.3032
18386TIP3    H276650   6.718   2.518  13.880 -0.4059 -0.7940  0.6238
18387TIP3   OH276651   4.565   5.467   3.807 -0.1546  0.7427 -0.0725
18387TIP3    H176652   4.532   5.544   3.760  1.0082  1.0666 -0.4093
18387TIP3    H276653   4.545   5.393   3.750  0.3094  1.0146 -0.5988
18388TIP3   OH276654   4.567   3.744   1.192  0.3007  0.1125  0.2798
18388TIP3    H176655   4.545   3.700   1.109  0.9135  0.8057 -0.2588
18388TIP3    H276656   4.661   3.729   1.202  1.0168  3.0767 -1.0300
18389TIP3   OH276657   5.171   0.187  16.547  0.7201 -0.1949 -0.0347
18389TIP3    H176658   5.178   0.264  16.605  0.0976  1.0221 -1.5122
18389TIP3    H276659   5.257   0.182  16.504  1.1952 -1.1215  0.9840
18390TIP3   OH276660   4.618   3.435   4.215 -0.6538 -0.1145 -0.1845
18390TIP3    H176661   4.662   3.353   4.240  1.1389  0.1943 -2.0302
18390TIP3    H276662   4.546   3.407   4.158  0.1659 -0.4155 -1.0904
18391TIP3   OH276663   3.587   6.795   2.791  0.3670 -0.4739  0.5417
18391TIP3    H176664   3.511   6.739   2.776 -0.1139 -0.1068  1.5161
18391TIP3    H276665   3.581   6.863   2.724  0.1475 -0.7710  0.2627
18392TIP3   OH276666   1.941   5.270  10.430  1.2254  0.1088 -0.2294
18392TIP3    H176667   1.854   5.230  10.432  1.6614 -1.1014 -2.8212
18392TIP3    H276668   1.983   5.239  10.510 -0.3267 -0.1328  0.5396
18393TIP3   OH276669   6.796   2.393  15.570  0.4174  0.0298  0.5055
18393TIP3    H176670   6.741   2.316  15.559  0.2926  0.3741 -1.5665
18393TIP3    H276671   6.750   2.447  15.635  0.8853 -1.8914  2.5707
18394TIP3   OH276672   1.019   4.220  10.903 -0.6795  0.2357 -0.5410
18394TIP3    H176673   1.114   4.231  10.895 -0.4474 -0.7264  0.6692
18394TIP3    H276674   0.984   4.252  10.820  0.6377  1.3163 -0.7169
18395TIP3   OH276675   1.144   4.325   5.720  0.4967 -0.0291  1.0934
18395TIP3    H176676   1.203   4.324   5.795  0.2021  0.4173  1.3391
18395TIP3    H276677   1.077   4.389   5.744  0.8456  0.7286  0.1026
18396TIP3   OH276678   0.042   2.668  11.240  0.7323  0.3011  0.0172
18396TIP3    H176679  -0.024   2.706  11.299  1.8375  0.3563  1.2756
18396TIP3    H276680   0.039   2.723  11.162  0.7266  1.6020  0.9035
18397TIP3   OH276681   0.944   1.217   3.549 -0.5013 -0.1564 -0.4422
18397TIP3    H176682   1.039   1.211   3.535 -0.6202 -0.3534 -1.2010
18397TIP3    H276683   0.926   1.311   3.549  0.0369  0.0085  2.2083
18398TIP3   OH276684   2.711   4.757  16.018  0.1378  0.1017 -0.1069
18398TIP3    H176685   2.634   4.786  16.067 -0.6327 -1.0579 -0.5922
18398TIP3    H276686   2.773   4.727  16.085 -0.2646  0.0185  0.2270
18399TIP3   OH276687   2.457   1.461   1.487  0.4267  0.4625 -0.5143
18399TIP3    H176688   2.406   1.486   1.564  1.8620  0.9252  0.3159
18399TIP3    H276689   2.510   1.538   1.466  2.2835 -0.6384 -0.0905
18400TIP3   OH276690   1.280   4.538   1.521  0.2350  0.1340  0.0450
18400TIP3    H176691   1.212   4.556   1.586  0.2684  1.0781 -0.1688
18400TIP3    H276692   1.240   4.475   1.461  0.0046 -0.3046  0.6551
18401TIP3   OH276693   2.845   3.809  11.749  0.4817  0.2794 -0.7686
18401TIP3    H176694   2.938   3.794  11.731  0.1789 -0.8888 -1.4539
18401TIP3    H276695   2.800   3.784  11.669 -0.4100  1.2869 -0.6084
18402TIP3   OH276696   3.168   1.761   1.913 -0.4308 -0.5177  0.0434
18402TIP3    H176697   3.154   1.793   1.823  0.7582 -0.6774 -0.2241
18402TIP3    H276698   3.262   1.743   1.916 -0.7142 -1.9270  0.8695
18403TIP3   OH276699   0.373   0.845   0.328 -0.4660 -0.2373  0.5094
18403TIP3    H176700   0.306   0.796   0.376 -3.4494  0.1311 -2.7774
18403TIP3    H276701   0.350   0.937   0.343  0.7291 -0.0273  1.1075
18404TIP3   OH276702   1.263   0.527   3.762 -0.1674 -0.0221 -0.2152
18404TIP3    H176703   1.307   0.551   3.843 -0.6283 -0.9604  0.3353
18404TIP3    H276704   1.177   0.495   3.790  0.0880 -1.4394 -0.9490
18405TIP3   OH276705   0.067   2.216   2.051 -1.1519  0.1890 -0.3955
18405TIP3    H176706  -0.010   2.269   2.070 -0.6299  0.4494  1.1127
18405TIP3    H276707   0.138   2.260   2.097 -0.2320 -0.4518 -1.1625
18406TIP3   OH276708   3.483   5.146   4.904 -0.6254  0.0141  0.5268
18406TIP3    H176709   3.568   5.190   4.905 -0.0802 -0.9660 -0.1990
18406TIP3    H276710   3.470   5.121   4.812 -2.2169  1.0797  0.4252
18407TIP3   OH276711   5.854   5.262  13.641 -0.1461 -0.4235 -0.5169
18407TIP3    H176712   5.852   5.289  13.733  1.6313 -0.9551 -0.2729
18407TIP3    H276713   5.911   5.326  13.599  0.6441 -1.3030 -0.8132
18408TIP3   OH276714   3.273   2.787  16.835 -0.4134 -0.0873 -0.1825
18408TIP3    H176715   3.260   2.807  16.928 -1.8674 -0.3550 -0.2977
18408TIP3    H276716   3.331   2.712  16.835  2.2496  1.8333  0.3624
18409TIP3   OH276717   6.541   0.323  15.923  0.6192  0.2178 -0.0288
18409TIP3    H176718   6.505   0.341  15.836  0.8846  1.6789  0.1521
18409TIP3    H276719   6.464   0.302  15.977  0.4085 -0.2089 -0.4833
18410TIP3   OH276720   2.448   1.653   2.112 -0.9919  0.3047 -0.0628
18410TIP3    H176721   2.355   1.671   2.124 -0.4925  2.4901  1.1956
18410TIP3    H276722   2.482   1.640   2.201  0.1190  1.0383 -0.3489
18411TIP3   OH276723   4.702   2.575  17.147  0.0984  0.2883 -0.6715
18411TIP3    H176724   4.786   2.528  17.147  0.3969  0.6764  1.6476
18411TIP3    H276725   4.723   2.661  17.110  1.4085  1.2812  2.0452
18412TIP3   OH276726   1.856   6.412   4.702 -0.0537  0.7690 -0.0833
18412TIP3    H176727   1.938   6.395   4.748  0.7231 -1.1715 -1.9714
18412TIP3    H276728   1.789   6.411   4.770  1.0773 -1.5311  1.1158
18413TIP3   OH276729   5.465   4.296   2.444  0.6129  0.3200 -0.1803
18413TIP3    H176730   5.414   4.358   2.392  2.5138  2.1163 -0.0334
18413TIP3    H276731   5.476   4.339   2.529 -1.5135 -2.0885  1.4971
18414TIP3   OH276732   0.762   5.204   4.365  0.0907  0.6091  0.1572
18414TIP3    H176733   0.840   5.259   4.366  0.5931 -0.0989  1.2134
18414TIP3    H276734   0.745   5.184   4.457 -1.3304  0.7298 -0.0607
18415TIP3   OH276735   3.789   5.343   3.978  0.3401 -0.4318  0.0492
18415TIP3    H176736   3.694   5.348   3.968  0.3778  0.5518  0.0196
18415TIP3    H276737   3.820   5.304   3.897  0.0068 -0.1603 -0.2117
18416TIP3   OH276738   1.941   5.812   6.480 -0.0792  0.2176  0.2776
18416TIP3    H176739   1.967   5.865   6.404 -1.4795  0.1803 -0.2582
18416TIP3    H276740   2.013   5.823   6.542 -0.4279  3.0357  0.3312
18417TIP3   OH276741   4.466   5.613  12.099 -0.0522 -0.2850 -0.0799
18417TIP3    H176742   4.533   5.626  12.032 -0.0272  0.2629  0.0436
18417TIP3    H276743   4.515   5.601  12.180 -0.0977  0.0015 -0.0082
18418TIP3   OH276744   3.985   0.638   0.633 -0.9866 -0.5457 -0.2123
18418TIP3    H176745   4.057   0.634   0.696  0.3859  0.2256 -1.6580
18418TIP3    H276746   4.001   0.565   0.574 -1.3637 -0.3339 -0.5786
18419TIP3   OH276747   1.317   4.289   3.610 -0.3154 -0.3053  0.2744
18419TIP3    H176748   1.347   4.375   3.581 -1.9363 -0.1146 -0.9511
18419TIP3    H276749   1.322   4.233   3.532 -2.3523 -0.4478  0.2050
18420TIP3   OH276750   4.382   0.617  14.213  0.6004  0.7163  0.0632
18420TIP3    H176751   4.323   0.634  14.139  0.9210  0.9330 -0.1476
18420TIP3    H276752   4.468   0.646  14.182  0.9992 -0.4360  0.0212
18421TIP3   OH276753   3.633   0.341   1.949 -0.0239 -0.5674 -0.4795
18421TIP3    H176754   3.717   0.383   1.969 -0.0286 -0.7490 -0.0605
18421TIP3    H276755   3.654   0.248   1.941 -0.2403 -0.6602 -0.0197
18422TIP3   OH276756   0.798   1.791   4.223 -0.2506 -0.9012 -0.3352
18422TIP3    H176757   0.717   1.837   4.203  0.6344  0.8111 -0.2068
18422TIP3    H276758   0.854   1.807   4.147  0.2671 -1.2944 -0.0439
18423TIP3   OH276759   2.882   1.048  11.243 -0.4445  0.0533 -0.0288
18423TIP3    H176760   2.915   1.125  11.290  0.8300 -1.3624  1.4966
18423TIP3    H276761   2.800   1.079  11.202  0.3409  2.3732 -0.0239
18424TIP3   OH276762   6.419   5.923  11.823 -0.2762 -0.3205 -0.2962
18424TIP3    H176763   6.357   5.852  11.803 -0.3741  0.2236 -2.0786
18424TIP3    H276764   6.413   5.934  11.918 -1.2421 -1.7942 -0.1520
18425TIP3   OH276765   1.234   6.328   0.521 -0.1584 -0.4592  0.1047
18425TIP3    H176766   1.204   6.272   0.593 -1.4257 -0.3608 -0.3313
18425TIP3    H276767   1.173   6.311   0.450  1.0703 -0.5452 -0.9660
18426TIP3   OH276768   1.941   5.681   1.421 -0.2118 -0.1281  0.0806
18426TIP3    H176769   2.032   5.651   1.413 -0.1367  0.0889  0.1147
18426TIP3    H276770   1.942   5.771   1.387 -0.6149 -0.4665 -0.8361
18427TIP3   OH276771   6.250   0.933   4.924 -0.2248  0.2002  0.2032
18427TIP3    H176772   6.331   0.895   4.960 -0.8110 -0.1020  1.2653
18427TIP3    H276773   6.217   0.867   4.864  1.1324  0.9972 -1.4923
18428TIP3   OH276774   0.031   2.412   0.888  0.0188 -0.2046 -0.0744
18428TIP3    H176775  -0.057   2.425   0.923 -0.4103  0.5749 -1.3629
18428TIP3    H276776   0.046   2.318   0.895 -0.8698 -0.3248  0.2822
18429TIP3   OH276777   4.029   1.611  14.586  0.3148 -0.7824  0.4370
18429TIP3    H176778   4.005   1.684  14.643 -0.2866 -1.6548  1.3360
18429TIP3    H276779   4.007   1.532  14.636  2.5518 -1.6336  0.2088
18430TIP3   OH276780   1.047   4.401  14.661 -0.3654  0.1651  0.2058
18430TIP3    H176781   0.994   4.389  14.582 -1.5509  0.7046  0.8776
18430TIP3    H276782   1.068   4.495  14.662 -0.1797  0.1229  0.4160
18431TIP3   OH276783   4.463   6.156   1.035 -0.0792  0.4592 -0.1614
18431TIP3    H176784   4.457   6.241   1.079  1.1926 -0.4567  1.9853
18431TIP3    H276785   4.376   6.140   1.000 -0.8086  1.9092  0.9002
18432TIP3   OH276786   4.022   6.290   5.395 -0.3888 -0.0080 -0.1503
18432TIP3    H176787   4.041   6.250   5.310  0.4329  0.2536 -0.0937
18432TIP3    H276788   4.100   6.274   5.447 -0.6791  0.3019  0.3869
18433TIP3   OH276789   1.130   4.914   4.377 -0.2933 -0.2296 -0.1506
18433TIP3    H176790   1.197   4.980   4.357  0.5317 -0.0436  2.7619
18433TIP3    H276791   1.117   4.921   4.471 -2.7371 -1.9168 -0.2587
18434TIP3   OH276792   3.449   1.320  14.658 -0.8290  0.5654 -0.4301
18434TIP3    H176793   3.359   1.338  14.632 -0.0605  3.3037 -1.4858
18434TIP3    H276794   3.500   1.333  14.578  0.4566 -2.2345 -0.2004
18435TIP3   OH276795   5.441   4.461  14.406  0.6270 -0.0860  0.5258
18435TIP3    H176796   5.382   4.392  14.436 -1.1457  1.1923  0.1858
18435TIP3    H276797   5.388   4.541  14.409  2.5186  1.2415  0.6694
18436TIP3   OH276798   6.105   5.918  15.132 -0.1447  0.0513 -0.0622
18436TIP3    H176799   6.093   5.894  15.040  0.1102 -0.7871  0.1125
18436TIP3    H276800   6.055   5.853  15.180 -1.5406  1.3691  0.3579
18437TIP3   OH276801   1.719   4.506   0.970  0.1604 -0.7276 -0.6120
18437TIP3    H176802   1.701   4.448   0.896 -0.2362 -2.1848  0.5783
18437TIP3    H276803   1.801   4.550   0.946 -0.3869 -0.5548 -2.2551
18438TIP3   OH276804   0.362   3.488   4.500  0.1431 -0.2706  0.1471
18438TIP3    H176805   0.357   3.499   4.405  0.8651  0.6039  0.1880
18438TIP3    H276806   0.435   3.427   4.514  1.0477  0.7733  0.1698
18439TIP3   OH276807   3.324   4.679   5.042 -0.4901  0.4800 -1.1692
18439TIP3    H176808   3.284   4.705   5.125 -0.1618  1.2750 -1.2539
18439TIP3    H276809   3.391   4.745   5.025  0.5538 -0.5672 -1.2732
18440TIP3   OH276810   5.229   0.442  13.586 -0.3738 -0.9351  0.2245
18440TIP3    H176811   5.305   0.445  13.644  0.5251  1.0873 -0.9486
18440TIP3    H276812   5.231   0.525  13.539 -2.3179 -1.5720 -1.1273
18441TIP3   OH276813   2.515   6.429   1.192  0.0452 -0.1820 -0.5618
18441TIP3    H176814   2.505   6.390   1.105 -0.5812 -0.5397 -0.3389
18441TIP3    H276815   2.447   6.387   1.245 -0.1886  0.7117 -0.1331
18442TIP3   OH276816   4.140   0.651  16.875  0.0076  0.1901 -0.1864
18442TIP3    H176817   4.077   0.590  16.912 -0.4952  0.4195 -0.6544
18442TIP3    H276818   4.223   0.630  16.919 -0.2789 -0.4540  0.0538
18443TIP3   OH276819   4.744   1.914   4.047 -0.2222 -0.1353 -0.0790
18443TIP3    H176820   4.759   1.848   4.114  0.1325  0.1169  0.0951
18443TIP3    H276821   4.755   1.866   3.964  1.2778 -0.0429  0.0399
18444TIP3   OH276822   4.544   3.216   6.540 -0.1786 -0.5190  0.0987
18444TIP3    H176823   4.598   3.145   6.505  1.0357 -0.4607  1.7312
18444TIP3    H276824   4.469   3.171   6.579  0.6823 -0.9802  1.3043
18445TIP3   OH276825   1.290   3.854   4.220 -0.5857  0.5113 -0.3440
18445TIP3    H176826   1.348   3.927   4.242 -1.8179  0.6643  2.8875
18445TIP3    H276827   1.348   3.784   4.192  0.6587  2.5047 -3.2615
18446TIP3   OH276828   0.322   5.046   1.485  0.1982  0.1342 -1.0286
18446TIP3    H176829   0.358   5.133   1.466  1.0635 -0.3753 -1.8296
18446TIP3    H276830   0.270   5.024   1.408  0.4448 -0.2868 -1.0783
18447TIP3   OH276831   6.129   5.625   3.564 -0.2088  0.0095  0.5583
18447TIP3    H176832   6.125   5.718   3.584  0.8797  0.7415 -2.2546
18447TIP3    H276833   6.212   5.613   3.518 -1.5966 -1.7475 -1.6911
18448TIP3   OH276834   2.967   2.650  11.634  0.0595 -0.2822  0.2242
18448TIP3    H176835   3.044   2.600  11.660  0.2757  0.5523  1.2476
18448TIP3    H276836   2.955   2.630  11.541  0.0792 -2.2949  0.6117
18449TIP3   OH276837   1.690   4.828   2.693 -0.2295 -0.1244 -1.3347
18449TIP3    H176838   1.725   4.785   2.771 -1.7853 -2.1095 -1.6513
18449TIP3    H276839   1.622   4.887   2.726 -0.2240 -0.2382 -1.1215
18450TIP3   OH276840   4.103   0.225   6.083  0.6842  0.4633  0.2183
18450TIP3    H176841   4.104   0.130   6.075 -1.5115  0.1679  2.1500
18450TIP3    H276842   4.194   0.249   6.099  1.0467 -1.5811  1.7271
18451TIP3   OH276843   2.899   1.119   2.996  0.2879  0.1714  0.4419
18451TIP3    H176844   2.817   1.072   2.978  0.3298  0.1472  0.3109
18451TIP3    H276845   2.935   1.138   2.909 -0.3241  1.4937  0.4611
18452TIP3   OH276846   2.557   5.978   0.586  0.4787  0.0206 -0.2198
18452TIP3    H176847   2.474   5.935   0.607  0.2487 -0.8378 -2.6224
18452TIP3    H276848   2.553   6.061   0.634 -1.9233  0.1679 -0.5153
18453TIP3   OH276849   4.316   1.320  16.161 -0.1770  0.0472  0.3588
18453TIP3    H176850   4.230   1.313  16.204 -0.5001  1.2269 -0.0720
18453TIP3    H276851   4.342   1.411  16.173  0.3185  0.0831 -0.8440
18454TIP3   OH276852   6.760   1.667  15.749 -0.3729  0.2910  0.5544
18454TIP3    H176853   6.728   1.629  15.667 -1.0252 -0.1578  1.0119
18454TIP3    H276854   6.810   1.597  15.790  1.8147  1.1610 -0.4426
18455TIP3   OH276855   3.600   1.090   2.689 -0.0212  0.4275 -0.0649
18455TIP3    H176856   3.546   1.081   2.610  0.3836  2.1496 -0.5870
18455TIP3    H276857   3.662   1.161   2.668  1.4979 -0.5130  1.0431
18456TIP3   OH276858   2.683   2.591  15.431  0.1130  0.2067  0.2391
18456TIP3    H176859   2.739   2.612  15.356  0.1151  2.2093  0.7281
18456TIP3    H276860   2.678   2.496  15.432 -0.6116  0.1276 -2.8117
18457TIP3   OH276861   6.647   4.241   5.785 -0.3299 -0.1797 -0.5083
18457TIP3    H176862   6.721   4.191   5.820 -0.2501 -0.0554 -0.4968
18457TIP3    H276863   6.573   4.181   5.788 -0.1518 -0.4175 -0.8377
18458TIP3   OH276864   2.694   1.866   4.243  0.1724 -0.0541  0.2455
18458TIP3    H176865   2.694   1.842   4.151  0.6649  0.1228  0.1973
18458TIP3    H276866   2.735   1.952   4.246 -2.0211  1.0516  0.3716
18459TIP3   OH276867   4.430   2.756   2.493  0.6456  0.5101  0.0966
18459TIP3    H176868   4.457   2.721   2.578  1.6822 -0.7135 -0.6911
18459TIP3    H276869   4.475   2.840   2.485 -1.2362  1.7604  1.6788
18460TIP3   OH276870   4.254   6.518   2.657 -0.1814 -0.2698 -0.1913
18460TIP3    H176871   4.293   6.569   2.729  0.4487  0.2222 -0.8652
18460TIP3    H276872   4.195   6.457   2.701 -2.1781  2.0621  0.5858
18461TIP3   OH276873   5.113   5.832   1.920  0.0287  0.0026 -0.0333
18461TIP3    H176874   5.078   5.747   1.893  0.0270 -0.9478  2.6508
18461TIP3    H276875   5.053   5.896   1.882 -0.3908 -1.2018 -1.5168
18462TIP3   OH276876   1.595   5.101   2.781 -0.2217  0.0771  0.3460
18462TIP3    H176877   1.500   5.096   2.794 -0.5005  0.8896 -1.1175
18462TIP3    H276878   1.630   5.124   2.867 -1.4388  0.6028  0.7253
18463TIP3   OH276879   5.788   4.563   3.522 -0.3562  0.1538 -0.5373
18463TIP3    H176880   5.719   4.626   3.541 -1.9738 -1.0765 -1.9761
18463TIP3    H276881   5.788   4.504   3.597  0.1625  0.9877  0.1377
18464TIP3   OH276882   1.434   3.437  15.187 -0.5638  0.6613  0.4720
18464TIP3    H176883   1.346   3.450  15.221 -0.5799 -0.8103  1.0881
18464TIP3    H276884   1.488   3.502  15.233 -0.9886  0.2244  1.6226
18465TIP3   OH276885   1.394   1.700   4.696  0.6263  0.3227 -0.5481
18465TIP3    H176886   1.393   1.630   4.762  0.2973  0.1459 -0.7355
18465TIP3    H276887   1.371   1.655   4.614 -0.9855  0.8856 -0.4354
18466TIP3   OH276888   6.307   0.331   4.616  0.3432  0.0642  0.0693
18466TIP3    H176889   6.375   0.264   4.627  0.7929  0.4033 -0.5509
18466TIP3    H276890   6.356   0.413   4.609 -0.1751  0.3983  0.2955
18467TIP3   OH276891   1.099   0.730  15.688  0.0157 -0.3844  0.2138
18467TIP3    H176892   1.176   0.788  15.693 -0.3719  0.0598  1.3486
18467TIP3    H276893   1.135   0.642  15.694  0.5803 -0.2736 -1.1022
18468TIP3   OH276894   5.011   6.298  15.881  0.1882 -0.2066  0.7013
18468TIP3    H176895   4.921   6.331  15.882  0.5641  1.0632 -1.4948
18468TIP3    H276896   5.065   6.375  15.897  0.9256 -0.6304  0.3159
18469TIP3   OH276897   6.368   1.346   1.187  0.6630 -0.1577 -0.3751
18469TIP3    H176898   6.393   1.325   1.097 -2.4629 -1.3260 -1.0961
18469TIP3    H276899   6.292   1.290   1.205 -0.4314  1.8975  2.0476
18470TIP3   OH276900   5.123   2.970   0.979 -0.5359 -0.0069  1.0064
18470TIP3    H176901   5.209   2.936   1.005 -0.0546  0.7418  0.4587
18470TIP3    H276902   5.129   3.064   0.995 -0.5128  0.3608 -0.9447
18471TIP3   OH276903   2.873   5.056   4.515  0.7589 -0.1736 -0.0847
18471TIP3    H176904   2.882   4.999   4.592 -0.6348  0.6100  0.6970
18471TIP3    H276905   2.836   5.137   4.549 -0.5366 -0.0392 -1.6578
18472TIP3   OH276906   4.727   4.457   5.633  0.3314  0.3653 -0.5213
18472TIP3    H176907   4.813   4.417   5.648  1.2504  1.9882 -1.0874
18472TIP3    H276908   4.669   4.414   5.695  1.5748 -0.7103 -0.0470
18473TIP3   OH276909   0.033   3.356  15.157 -0.6174  0.1016  0.4607
18473TIP3    H176910   0.074   3.333  15.241  1.3667 -0.3803 -0.5726
18473TIP3    H276911   0.064   3.445  15.140 -1.3746  0.3623  0.4375
18474TIP3   OH276912   5.101   2.108   4.437 -0.5059  0.0363  0.1667
18474TIP3    H176913   5.111   2.145   4.525 -1.4776  0.3731  0.1491
18474TIP3    H276914   5.175   2.047   4.428 -0.2120  0.2407  1.0895
18475TIP3   OH276915   4.851   5.710   4.640 -0.3498  0.1976  0.3064
18475TIP3    H176916   4.775   5.651   4.644 -1.9094  2.1394  0.9236
18475TIP3    H276917   4.823   5.789   4.686  1.8851  1.2051  0.0773
18476TIP3   OH276918   2.738   6.748  16.150  0.0375  0.5761  0.5404
18476TIP3    H176919   2.647   6.720  16.144  0.3479 -0.1841 -1.4227
18476TIP3    H276920   2.771   6.707  16.230 -1.0420 -0.0276  0.6921
18477TIP3   OH276921   6.238   0.813   3.914 -0.3177 -0.4571  0.9316
18477TIP3    H176922   6.285   0.745   3.865 -1.6014 -1.8456  1.5466
18477TIP3    H276923   6.219   0.880   3.849  0.7103 -0.8253  0.2275
18478TIP3   OH276924   4.019   6.621   0.460  0.7594 -0.0020  0.1643
18478TIP3    H176925   4.039   6.543   0.408 -0.4338  0.3202 -0.8448
18478TIP3    H276926   3.929   6.606   0.491  0.7782  0.6585  0.5438
18479TIP3   OH276927   1.271   0.498  16.423 -0.2367  0.4208 -0.1791
18479TIP3    H176928   1.208   0.488  16.352 -0.9774 -1.9684  0.7315
18479TIP3    H276929   1.232   0.453  16.497  2.8661 -2.1037  0.1651
18480TIP3   OH276930   4.112   3.737   3.900 -0.4414  0.2462 -0.3454
18480TIP3    H176931   4.207   3.749   3.912 -0.0832 -0.4602 -2.2046
18480TIP3    H276932   4.083   3.818   3.857 -0.2681 -0.3547 -1.6551
18481TIP3   OH276933   1.008   4.491   0.576 -0.2602  0.3449  0.1516
18481TIP3    H176934   1.031   4.568   0.629 -1.3616  0.9549 -0.2185
18481TIP3    H276935   1.031   4.416   0.632 -1.6801  0.9671  1.6471
18482TIP3   OH276936   4.114   3.216  12.269  0.4965  0.2949 -0.1913
18482TIP3    H176937   4.071   3.221  12.355 -0.1908 -0.2843 -0.4868
18482TIP3    H276938   4.118   3.307  12.239  3.0186  0.8419  1.5071
18483TIP3   OH276939   6.295   0.721  15.830 -0.7099  0.5946 -0.2099
18483TIP3    H176940   6.384   0.687  15.840  0.5037  3.4670 -0.1037
18483TIP3    H276941   6.252   0.660  15.771  2.0310  0.2040 -2.0032
18484TIP3   OH276942   0.337   3.390  16.022  0.1364 -0.3638  0.2725
18484TIP3    H176943   0.383   3.353  15.947  0.4676 -1.0482  0.7929
18484TIP3    H276944   0.298   3.471  15.990  0.1883 -0.7004 -0.6559
18485TIP3   OH276945   5.195   3.338  12.318  0.0552 -0.3856  0.0603
18485TIP3    H176946   5.136   3.279  12.366  1.1190 -0.4718  1.3185
18485TIP3    H276947   5.139   3.413  12.295 -0.9606 -1.2288 -0.3042
18486TIP3   OH276948   4.336   5.029   1.445 -0.7285  0.4484 -0.0012
18486TIP3    H176949   4.345   5.124   1.448  0.7910  0.3274  0.2746
18486TIP3    H276950   4.411   4.997   1.496 -0.9951 -0.8980 -0.4334
18487TIP3   OH276951   1.866   2.404   2.421  0.6306  0.0626  0.5469
18487TIP3    H176952   1.785   2.365   2.454 -0.3340  1.6934  0.2143
18487TIP3    H276953   1.870   2.378   2.329  0.3211  0.2170  0.4871
18488TIP3   OH276954   4.902   5.604  10.895  0.2176 -0.2757  0.5888
18488TIP3    H176955   4.992   5.585  10.866  0.1811 -0.0647  0.3249
18488TIP3    H276956   4.860   5.519  10.900  0.9988 -0.5961  2.6814
18489TIP3   OH276957   4.910   4.346   0.277 -0.6169  0.5068 -0.9436
18489TIP3    H176958   4.858   4.275   0.240 -1.1804  1.3033 -1.7261
18489TIP3    H276959   4.911   4.328   0.371 -1.1309 -0.2815 -1.0775
18490TIP3   OH276960   6.698   4.175  16.644 -0.3203 -0.7186 -0.4208
18490TIP3    H176961   6.625   4.213  16.594 -0.0568 -1.4233 -1.3602
18490TIP3    H276962   6.736   4.109  16.586 -0.4283 -2.0601  0.9745
18491TIP3   OH276963   2.996   5.199  11.505  0.1952 -0.1803  0.2198
18491TIP3    H176964   3.043   5.265  11.454 -1.1630  0.5792 -0.0980
18491TIP3    H276965   3.065   5.147  11.547  1.3143  1.5002  0.5690
18492TIP3   OH276966   1.305   2.067  13.981 -0.3038 -0.1840 -0.4827
18492TIP3    H176967   1.345   2.065  14.068  1.4951 -0.9185 -1.2673
18492TIP3    H276968   1.255   1.985  13.976  0.6148 -0.7641 -0.5487
18493TIP3   OH276969   6.396   5.050  16.028 -0.5202  0.1116 -0.3323
18493TIP3    H176970   6.474   5.000  16.005 -0.1259 -0.0459  1.1989
18493TIP3    H276971   6.353   5.068  15.945  1.1970  0.2967 -1.2187
18494TIP3   OH276972   2.174   6.706  16.539 -0.3458  0.3752 -0.5230
18494TIP3    H176973   2.168   6.799  16.515 -1.5740  0.4627  0.0395
18494TIP3    H276974   2.225   6.707  16.620 -1.8941  0.7791  0.4924
18495TIP3   OH276975   5.811   0.644   5.279  0.0536  0.4225  0.2279
18495TIP3    H176976   5.750   0.608   5.344 -1.0945  0.9750 -0.5058
18495TIP3    H276977   5.813   0.738   5.297  0.3749  0.4611 -0.0109
18496TIP3   OH276978   6.538   0.764   0.500 -0.0053  0.6242 -0.4800
18496TIP3    H176979   6.537   0.668   0.505 -1.4026  0.6058 -0.7567
18496TIP3    H276980   6.460   0.792   0.548  0.6175  1.6563 -0.0355
18497TIP3   OH276981   3.104   0.935  11.474 -0.2039  0.0887  0.1510
18497TIP3    H176982   3.143   1.022  11.469  0.0892 -0.0543 -0.1223
18497TIP3    H276983   3.177   0.876  11.492 -0.1747 -0.2626 -1.0030
18498TIP3   OH276984   5.331   0.931   1.226 -0.2714  0.4947 -0.1906
18498TIP3    H176985   5.298   1.018   1.249  0.0389  0.8539 -1.0310
18498TIP3    H276986   5.406   0.949   1.168 -0.5492 -0.3306 -0.8239
18499TIP3   OH276987   0.562   1.451   2.228  0.0808  0.5244  0.4563
18499TIP3    H176988   0.467   1.462   2.237 -0.0370 -0.2760  0.3283
18499TIP3    H276989   0.595   1.539   2.210 -0.3695  1.2051  2.6716
18500TIP3   OH276990   2.855   5.523  13.757 -0.2689  0.3020  0.6021
18500TIP3    H176991   2.812   5.498  13.838 -0.6046  0.3963  0.4515
18500TIP3    H276992   2.941   5.556  13.784 -0.2075 -0.0803  0.8825
18501TIP3   OH276993   3.311   3.985   0.666 -0.4004  0.2013 -0.6441
18501TIP3    H176994   3.260   4.011   0.589 -2.1555 -0.1267  0.3507
18501TIP3    H276995   3.402   3.984   0.635 -1.0685 -0.2479 -2.7926
18502TIP3   OH276996   5.854   0.095  14.925 -0.1383 -0.4184 -0.2929
18502TIP3    H176997   5.761   0.105  14.947 -0.3115 -1.6483 -0.4307
18502TIP3    H276998   5.861   0.126  14.835 -0.2047  0.6799  0.0655
18503TIP3   OH276999   2.500   5.611   3.514  0.1328  0.2280 -0.6941
18503TIP3    H177000   2.472   5.575   3.430 -3.1733 -0.7882  0.6939
18503TIP3    H277001   2.508   5.535   3.571 -0.8346  1.1503  0.7158
18504TIP3   OH277002   2.429   2.159  15.755 -0.2102  0.7219 -0.0060
18504TIP3    H177003   2.516   2.189  15.781  0.9578 -1.6838 -0.9260
18504TIP3    H277004   2.395   2.115  15.833  0.3029 -0.1673 -0.2675
18505TIP3   OH277005   6.407   5.354   5.097  0.1215 -0.1951 -0.0270
18505TIP3    H177006   6.415   5.321   5.187 -0.5894  0.5730  0.3198
18505TIP3    H277007   6.415   5.275   5.043 -0.6212 -0.8310  0.7534
18506TIP3   OH277008   1.254   6.333   4.486 -0.4257  0.0394  0.1917
18506TIP3    H177009   1.208   6.399   4.537 -0.3692  0.5133 -0.3536
18506TIP3    H277010   1.340   6.326   4.528 -0.7825 -0.4225  0.8567
18507TIP3   OH277011   0.936   0.471   2.461  0.1641 -0.5026 -0.1358
18507TIP3    H177012   0.879   0.548   2.465 -0.3515 -0.7700 -1.7842
18507TIP3    H277013   0.895   0.413   2.397  1.5745 -1.2934 -0.3664
18508TIP3   OH277014   1.592   4.776  15.271 -0.5053 -0.0985 -0.5731
18508TIP3    H177015   1.564   4.840  15.205 -0.8749 -0.7926 -1.1002
18508TIP3    H277016   1.556   4.809  15.353  1.0215  1.4576 -0.4678
18509TIP3   OH277017   2.304   0.055   6.091  0.5354  0.3582  0.9414
18509TIP3    H177018   2.290   0.117   6.163  0.5824 -0.6931  1.8841
18509TIP3    H277019   2.335  -0.024   6.133  3.0304  0.4796 -0.4895
18510TIP3   OH277020   4.860   0.009  12.887  0.3170 -0.1001 -0.0387
18510TIP3    H177021   4.878   0.094  12.848 -3.4328  0.8637  0.0181
18510TIP3    H277022   4.831  -0.046  12.815  1.9332 -1.1664  0.0634
18511TIP3   OH277023   5.975   1.015  12.408 -0.4514  0.0893 -0.7980
18511TIP3    H177024   6.025   1.096  12.418 -0.8828  0.3809 -0.9254
18511TIP3    H277025   6.040   0.945  12.408  0.1944  0.6025 -3.3324
18512TIP3   OH277026   3.013   2.275  11.320  0.3935  0.3603 -0.0960
18512TIP3    H177027   2.981   2.255  11.232  0.0148  1.6812 -0.2813
18512TIP3    H277028   2.935   2.290  11.372  0.5319 -2.1151  0.9626
18513TIP3   OH277029   1.730   1.913   5.678  0.0628 -0.2433  0.0495
18513TIP3    H177030   1.819   1.886   5.657  0.3031  0.9338 -0.5138
18513TIP3    H277031   1.730   1.923   5.774  1.1211  1.6528 -0.1051
18514TIP3   OH277032   6.502   3.644   4.805  0.4769 -0.1984 -0.0095
18514TIP3    H177033   6.546   3.605   4.730  0.8256  1.2065 -0.5855
18514TIP3    H277034   6.409   3.629   4.789  0.5553 -0.0265 -0.6819
18515TIP3   OH277035   6.184   0.012  12.050  0.2860  0.4224 -0.3903
18515TIP3    H177036   6.166   0.068  12.125  1.2728  1.1775 -0.6954
18515TIP3    H277037   6.098  -0.020  12.023 -0.3257  1.9254 -0.3108
18516TIP3   OH277038   6.166   4.951  11.453 -0.5268  0.0277  0.4677
18516TIP3    H177039   6.252   4.952  11.410 -0.3672  0.5305  0.7930
18516TIP3    H277040   6.133   4.863  11.438  0.3205 -0.3688  0.8738
18517TIP3   OH277041   2.709   0.431  14.341 -0.0735 -0.5533  0.4301
18517TIP3    H177042   2.789   0.429  14.393 -0.6989 -1.3323  1.4107
18517TIP3    H277043   2.665   0.349  14.362 -0.5856 -0.6563 -0.9844
18518TIP3   OH277044   0.780   6.134  16.128  0.0564 -0.6466  0.3299
18518TIP3    H177045   0.760   6.184  16.206  0.1289  0.3135 -0.2491
18518TIP3    H277046   0.840   6.189  16.078 -0.7592 -0.7917 -0.8659
18519TIP3   OH277047   3.678   2.191   3.011  0.8573  0.6021 -0.2236
18519TIP3    H177048   3.729   2.175   2.932  1.1993  2.4125 -0.4291
18519TIP3    H277049   3.743   2.208   3.079  0.5515  0.6487  0.0632
18520TIP3   OH277050   1.389   4.255   4.093 -0.2554 -0.1825  0.0024
18520TIP3    H177051   1.337   4.216   4.022 -1.0694  1.6847 -0.4795
18520TIP3    H277052   1.478   4.259   4.059 -0.7406  1.2366 -1.2030
18521TIP3   OH277053   6.784   5.286  16.540 -0.2704  0.1661 -0.2465
18521TIP3    H177054   6.821   5.361  16.492  1.7214 -0.4548  0.2265
18521TIP3    H277055   6.690   5.303  16.542  0.1322  2.6912 -0.0744
18522TIP3   OH277056   6.485   0.516   6.135  0.3773 -0.2703  0.4110
18522TIP3    H177057   6.523   0.517   6.047  1.2823 -0.5177  0.7823
18522TIP3    H277058   6.391   0.522   6.121  0.4770 -0.8749 -0.5946
18523TIP3   OH277059   2.412   6.419   0.146  1.0123  0.0085 -0.7713
18523TIP3    H177060   2.426   6.514   0.156  1.1060 -0.0407 -0.4107
18523TIP3    H277061   2.477   6.379   0.204  1.2466 -0.2892 -1.2368
18524TIP3   OH277062   1.464   2.100   4.912  0.4339 -0.5919  0.4760
18524TIP3    H177063   1.404   2.071   4.844 -0.0826 -1.2491  1.1882
18524TIP3    H277064   1.515   2.171   4.872  0.2541 -1.0745 -0.6282
18525TIP3   OH277065   3.873   6.666   0.077 -0.1147  0.1878  0.0601
18525TIP3    H177066   3.857   6.721   0.001  0.0928  0.8408  0.4792
18525TIP3    H277067   3.965   6.679   0.098 -0.4429  0.9591  1.1392
18526TIP3   OH277068   3.519   2.834   6.088  0.2994 -0.1148  0.0357
18526TIP3    H177069   3.542   2.743   6.105 -3.0992 -1.1757 -0.1391
18526TIP3    H277070   3.471   2.831   6.005  0.3469  1.8863 -0.1138
18527TIP3   OH277071   3.578   2.253  14.450 -0.4257  0.3925 -0.0544
18527TIP3    H177072   3.574   2.327  14.390 -1.6622  1.3827  1.1796
18527TIP3    H277073   3.655   2.269  14.504 -1.4704  1.6221  1.1667
18528TIP3   OH277074   4.659   6.304   5.452  0.1611 -0.1277 -0.2362
18528TIP3    H177075   4.633   6.376   5.393 -1.0335 -0.1316  0.2424
18528TIP3    H277076   4.733   6.263   5.409 -0.8540 -0.3122 -1.9116
18529TIP3   OH277077   5.765   4.776  12.897 -0.0131 -0.2549  0.8384
18529TIP3    H177078   5.818   4.757  12.820  1.8563  1.5179  1.5914
18529TIP3    H277079   5.810   4.729  12.968 -0.0327  0.4414  1.3169
18530TIP3   OH277080   0.782   4.913  15.433  0.3558 -0.0132 -0.4313
18530TIP3    H177081   0.758   4.952  15.517  0.0241 -0.6749 -0.2116
18530TIP3    H277082   0.838   4.838  15.456 -1.1046 -1.2269 -0.6797
18531TIP3   OH277083   4.155   3.488  14.829 -0.3048 -0.5001 -0.5255
18531TIP3    H177084   4.152   3.424  14.900  2.3488  0.6163  0.7555
18531TIP3    H277085   4.201   3.443  14.758 -0.1721 -0.6308 -0.3573
18532TIP3   OH277086   0.177   4.330   0.992 -0.0310 -0.1463 -0.3061
18532TIP3    H177087   0.216   4.406   1.036  0.4007 -0.7792  0.4202
18532TIP3    H277088   0.218   4.329   0.905  1.4109 -0.6431  0.3479
18533TIP3   OH277089   5.127   2.079  11.358 -0.3014 -0.1255  0.5776
18533TIP3    H177090   5.222   2.086  11.368 -0.4500 -0.9573  3.4709
18533TIP3    H277091   5.092   2.111  11.441 -2.5621  0.0011 -0.3665
18534TIP3   OH277092   3.602   3.567   1.168  0.4304 -0.7493  0.0080
18534TIP3    H177093   3.516   3.600   1.144  1.4535  1.7229 -0.5563
18534TIP3    H277094   3.654   3.576   1.088  1.7492 -0.2436  0.8932
18535TIP3   OH277095   1.667   4.540  15.902 -0.1716 -0.2682 -0.1846
18535TIP3    H177096   1.681   4.493  15.984 -2.0257 -0.0938  0.2791
18535TIP3    H277097   1.573   4.533  15.886 -0.6057  3.3233 -0.0138
18536TIP3   OH277098   1.554   2.994  16.771  0.0013  0.4942  0.0637
18536TIP3    H177099   1.644   2.968  16.748  0.1397  1.4526 -0.5002
18536TIP3    H277100   1.538   2.950  16.855  1.7512  1.9268  1.2457
18537TIP3   OH277101   2.661   6.465   1.820  0.1417 -0.3938  0.3608
18537TIP3    H177102   2.684   6.552   1.787 -1.0652  0.4281  1.5801
18537TIP3    H277103   2.744   6.419   1.824  0.7549  0.5467 -0.6951
18538TIP3   OH277104   5.436   3.933  13.818  0.2695  0.0395 -0.2227
18538TIP3    H177105   5.381   3.901  13.891 -0.1260 -1.0962 -0.9931
18538TIP3    H277106   5.513   3.969  13.861  0.1684 -0.8587  0.7697
18539TIP3   OH277107   3.930   1.545   6.672  0.0056  0.3928 -0.3093
18539TIP3    H177108   3.922   1.481   6.601 -1.3006 -2.2285  1.9593
18539TIP3    H277109   3.840   1.576   6.686 -0.0810 -0.4015  1.1669
18540TIP3   OH277110   6.681   1.117   0.030 -0.5830 -0.2961  0.1546
18540TIP3    H177111   6.728   1.136   0.111 -1.8146 -0.7402  1.0194
18540TIP3    H277112   6.688   1.197  -0.022 -0.7164  0.4044  1.1890
18541TIP3   OH277113   0.100   5.301   4.388 -0.0344 -0.3175  0.1247
18541TIP3    H177114   0.051   5.220   4.375 -0.8407  0.0297  0.8636
18541TIP3    H277115   0.111   5.307   4.483 -0.0955  0.4982  0.0868
18542TIP3   OH277116   5.887   1.260  14.489  0.0804  0.0199  0.0217
18542TIP3    H177117   5.845   1.342  14.463 -0.3634 -0.3404 -0.4536
18542TIP3    H277118   5.814   1.205  14.518  0.1553 -0.7316 -1.1155
18543TIP3   OH277119   2.329   3.716   5.972 -0.0650 -0.5901 -0.2768
18543TIP3    H177120   2.414   3.741   6.006 -0.7682  0.3916  0.8425
18543TIP3    H277121   2.296   3.651   6.034 -1.3099  1.1360  0.9730
18544TIP3   OH277122   2.130   6.570  12.933  0.3917 -0.0644  0.2170
18544TIP3    H177123   2.104   6.494  12.985 -1.2684 -0.1485 -0.6772
18544TIP3    H277124   2.132   6.538  12.843  0.1183  0.8303 -0.1184
18545TIP3   OH277125   3.907   1.694  16.798  0.6429 -0.8494  0.2915
18545TIP3    H177126   3.951   1.733  16.723 -0.7304  0.4972  0.1380
18545TIP3    H277127   3.978   1.670  16.858  1.6245  0.3539 -0.3504
18546TIP3   OH277128   6.330   0.491   2.297 -0.0419 -0.0536 -0.2716
18546TIP3    H177129   6.255   0.478   2.239 -1.4772  2.1871  0.9196
18546TIP3    H277130   6.365   0.576   2.271  0.6428 -0.0277  0.7075
18547TIP3   OH277131   1.971   3.906   4.223 -0.1592 -0.1066 -0.2355
18547TIP3    H177132   1.973   3.947   4.137 -0.7135 -0.2166 -0.3075
18547TIP3    H277133   1.925   3.970   4.278  0.5763  0.1573  0.0889
18548TIP3   OH277134   2.206   1.315   5.353 -0.5005  0.1427 -0.1141
18548TIP3    H177135   2.206   1.239   5.412 -1.0011  0.8264  0.7920
18548TIP3    H277136   2.125   1.306   5.303 -0.6562  0.1699  0.1285
18549TIP3   OH277137   1.199   5.379  14.202  0.9115 -0.0520  0.1539
18549TIP3    H177138   1.257   5.449  14.232  0.7691 -0.6383  1.9547
18549TIP3    H277139   1.251   5.328  14.141  2.5380 -0.8396  2.0746
18550TIP3   OH277140   0.437   5.277  15.031 -0.2515 -0.3716 -0.6100
18550TIP3    H177141   0.500   5.328  14.980  0.5265 -1.4238 -0.7464
18550TIP3    H277142   0.447   5.310  15.121  0.2196 -0.2670 -0.6980
18551TIP3   OH277143   1.113   4.652  14.698 -0.2036 -0.5246  0.9607
18551TIP3    H177144   1.186   4.713  14.695 -0.0942 -0.6571  0.8997
18551TIP3    H277145   1.064   4.676  14.777 -0.4910  0.0153  0.6257
18552TIP3   OH277146   6.603   5.510  13.848 -0.5447  0.0170  0.4555
18552TIP3    H177147   6.587   5.565  13.924 -0.2830  0.7278  0.0025
18552TIP3    H277148   6.600   5.420  13.882 -3.3767  0.1444  0.7961
18553TIP3   OH277149   1.959   5.314  15.631 -0.1882  0.5584  0.1990
18553TIP3    H177150   1.971   5.224  15.600 -0.2512  0.9096 -0.8702
18553TIP3    H277151   2.019   5.366  15.578 -3.0906  1.7360 -2.2255
18554TIP3   OH277152   2.707   0.182   4.215  0.0541 -0.2964  0.4768
18554TIP3    H177153   2.659   0.234   4.151  0.3103 -0.5521  0.0721
18554TIP3    H277154   2.718   0.097   4.173  3.0229  0.4684 -0.5224
18555TIP3   OH277155   3.169   5.310   1.894  0.5785 -0.3677 -0.3626
18555TIP3    H177156   3.226   5.384   1.913  0.7894 -0.1631 -1.7237
18555TIP3    H277157   3.080   5.343   1.912  0.8096 -0.4667  1.0658
18556TIP3   OH277158   4.708   6.177   6.039 -0.2427  0.1435 -0.4171
18556TIP3    H177159   4.644   6.162   6.110 -1.0925 -0.5495 -1.3016
18556TIP3    H277160   4.762   6.249   6.071 -1.2251  0.4964  0.5295
18557TIP3   OH277161   4.980   3.351   6.244  0.4968 -0.3476 -0.1217
18557TIP3    H177162   5.061   3.390   6.210  0.4437  1.3379  1.5119
18557TIP3    H277163   5.008   3.302   6.321  0.1745 -1.1902 -0.5370
18558TIP3   OH277164   1.531   5.561   2.619 -0.0096 -0.5180 -0.1350
18558TIP3    H177165   1.486   5.641   2.647 -2.9289 -1.9162 -0.4720
18558TIP3    H277166   1.518   5.557   2.525  2.0448 -0.3568 -0.4874
18559TIP3   OH277167   3.246   3.677  10.508  0.0978 -0.2562  0.0065
18559TIP3    H177168   3.208   3.764  10.516  0.0051 -0.3730  0.9047
18559TIP3    H277169   3.327   3.681  10.558  1.2156 -0.0632 -1.7378
18560TIP3   OH277170   5.110   2.709   3.513 -0.2079 -0.2006  0.1419
18560TIP3    H177171   5.092   2.799   3.541  1.0623 -0.1478  0.8729
18560TIP3    H277172   5.066   2.655   3.578  3.4936 -0.0887  3.0775
18561TIP3   OH277173   6.725   2.389  13.540  0.0351 -0.0910 -0.4375
18561TIP3    H177174   6.809   2.355  13.507  0.7166  2.1447 -1.2267
18561TIP3    H277175   6.739   2.399  13.634  0.2474 -0.7502 -0.3889
18562TIP3   OH277176   3.344   4.247   3.204 -0.0381 -0.5020 -0.0780
18562TIP3    H177177   3.352   4.323   3.146 -1.4629  0.0807  0.4484
18562TIP3    H277178   3.295   4.183   3.153 -0.7120 -0.2429  0.2388
18563TIP3   OH277179   6.156   2.827  11.811  0.0092  0.4997  0.4484
18563TIP3    H177180   6.206   2.892  11.761  1.4719  0.0858  1.3380
18563TIP3    H277181   6.096   2.879  11.864 -1.1550  0.9748 -1.2316
18564TIP3   OH277182   6.068   3.341   5.986 -0.0230 -0.2705  0.7498
18564TIP3    H177183   5.983   3.353   6.029  0.3145  1.7871  0.9621
18564TIP3    H277184   6.062   3.394   5.906  1.7561  1.7944  1.8636
18565TIP3   OH277185   0.738   4.114   1.315  0.2295  0.0480  0.0800
18565TIP3    H177186   0.646   4.093   1.299  0.1409 -0.6150  1.3776
18565TIP3    H277187   0.736   4.184   1.380  0.6427  0.7720 -0.6585
18566TIP3   OH277188   6.335   2.559   1.702 -0.1498  0.3279 -0.5653
18566TIP3    H177189   6.354   2.468   1.676 -1.2323 -0.1953  0.3827
18566TIP3    H277190   6.368   2.566   1.791 -3.1057 -0.2517  0.6836
18567TIP3   OH277191   4.792   4.681   4.842  0.6995  0.3285  0.2354
18567TIP3    H177192   4.828   4.769   4.828 -1.3703  1.6706  2.4970
18567TIP3    H277193   4.697   4.693   4.835  0.4098 -2.1433 -1.1052
18568TIP3   OH277194   4.870   3.644   4.786 -0.7176 -0.3114  0.2218
18568TIP3    H177195   4.897   3.709   4.851 -2.5053  0.0763  0.6237
18568TIP3    H277196   4.952   3.613   4.747  0.2338  1.3019  0.8651
18569TIP3   OH277197   1.860   5.062  11.342 -0.1436 -0.0087 -0.3321
18569TIP3    H177198   1.949   5.038  11.316  0.3938  0.3132  1.1303
18569TIP3    H277199   1.808   5.047  11.263  1.4807  1.3899 -1.7702
18570TIP3   OH277200   1.929   2.176   1.587 -0.7403  0.1479 -0.1030
18570TIP3    H177201   2.006   2.230   1.570 -1.5300  0.6190 -2.5514
18570TIP3    H277202   1.871   2.233   1.637 -0.5468  0.6989 -0.4945
18571TIP3   OH277203   3.185   6.587  12.549 -0.2300 -0.4330 -0.3608
18571TIP3    H177204   3.090   6.577  12.542 -0.6700  1.9208  1.3226
18571TIP3    H277205   3.207   6.651  12.481 -0.2739  0.8685  0.7996
18572TIP3   OH277206   2.542   1.046  11.065 -0.0481  0.0853  0.4963
18572TIP3    H177207   2.568   1.138  11.056 -1.7954  0.5523 -0.1807
18572TIP3    H277208   2.586   1.002  10.992 -0.3477  0.6643 -0.0439
18573TIP3   OH277209   1.114   6.760   4.806 -0.5076  0.8678 -0.1390
18573TIP3    H177210   1.035   6.809   4.832 -0.5275  0.7687 -0.0119
18573TIP3    H277211   1.152   6.730   4.889 -0.6859  0.3676 -0.2366
18574TIP3   OH277212   0.943   6.710   4.175  0.1562  0.6467 -0.4482
18574TIP3    H177213   0.963   6.633   4.122  1.7590  0.0470  0.9260
18574TIP3    H277214   0.847   6.709   4.184 -0.2125  0.9005 -3.3948
18575TIP3   OH277215   2.725   6.642  13.707  0.3196 -0.0220  0.2815
18575TIP3    H177216   2.695   6.723  13.668 -0.6606  0.7239  2.4637
18575TIP3    H277217   2.693   6.644  13.797  0.5729 -2.6631  0.5284
18576TIP3   OH277218   2.098   1.435  11.889 -0.7456 -0.5614 -0.2724
18576TIP3    H177219   2.035   1.503  11.864 -1.5298 -0.8441  0.8995
18576TIP3    H277220   2.182   1.469  11.858 -1.2441  0.5533 -0.4576
18577TIP3   OH277221   4.732   0.216  15.773  0.1950  0.4776  0.5647
18577TIP3    H177222   4.734   0.133  15.822  0.4682  0.6724  0.8844
18577TIP3    H277223   4.642   0.248  15.785 -0.1659 -0.1831 -0.2559
18578TIP3   OH277224   1.964   4.098   1.732  0.3275 -0.1798 -0.3980
18578TIP3    H177225   1.986   4.147   1.812  0.1536  0.0651 -0.4997
18578TIP3    H277226   1.869   4.106   1.725  0.3734  0.0363 -0.7846
18579TIP3   OH277227   1.237   6.504  13.325  0.3371  0.4550  0.1997
18579TIP3    H177228   1.177   6.563  13.370 -1.3609 -1.1199  0.1021
18579TIP3    H277229   1.223   6.521  13.232 -0.6493 -0.5259  0.1526
18580TIP3   OH277230   2.450   0.776   4.038 -0.3672 -0.5225  0.1097
18580TIP3    H177231   2.411   0.707   3.983 -0.8170 -0.6838  0.6242
18580TIP3    H277232   2.428   0.751   4.127 -1.3421  0.7752  0.2602
18581TIP3   OH277233   6.573   4.873  17.207  0.4748  0.2329  0.2823
18581TIP3    H177234   6.616   4.876  17.293 -0.4616 -1.4673  0.8617
18581TIP3    H277235   6.568   4.780  17.186  0.7510  0.6106 -1.6832
18582TIP3   OH277236   2.696   0.740   0.146 -0.1302 -0.2364 -0.1255
18582TIP3    H177237   2.786   0.773   0.145  0.4141 -1.6523  0.1761
18582TIP3    H277238   2.672   0.740   0.239 -0.2426 -0.3990 -0.1556
18583TIP3   OH277239   0.148   3.211  16.474 -0.6064  0.5582 -0.6343
18583TIP3    H177240   0.176   3.181  16.388  1.4277 -0.1575  0.2129
18583TIP3    H277241   0.143   3.132  16.527 -0.5111  1.1175  0.2416
18584TIP3   OH277242   6.524   4.099   3.546  0.4263  0.2511 -0.1881
18584TIP3    H177243   6.433   4.087   3.521 -0.3063  0.6497  2.0213
18584TIP3    H277244   6.558   4.164   3.485 -0.8348  0.2772 -0.8868
18585TIP3   OH277245   3.133   2.348   5.815 -0.8215  0.1888  0.4205
18585TIP3    H177246   3.184   2.293   5.876  0.5025  0.4876 -0.3719
18585TIP3    H277247   3.197   2.374   5.749 -2.2154 -0.0945 -1.0869
18586TIP3   OH277248   6.623   1.496   0.530  0.3839 -0.0614  0.0153
18586TIP3    H177249   6.563   1.423   0.544  0.7426 -0.3783 -0.0701
18586TIP3    H277250   6.598   1.531   0.445 -0.6220  0.7307  0.6090
18587TIP3   OH277251   5.268   5.299   2.473 -0.3229  0.3239  0.4143
18587TIP3    H177252   5.186   5.258   2.444  0.0045  0.4598 -0.7123
18587TIP3    H277253   5.247   5.392   2.480 -0.2125  0.3888 -0.0867
18588TIP3   OH277254   5.692   1.279   6.092 -0.2939 -0.1646 -0.0801
18588TIP3    H177255   5.743   1.360   6.086  0.6801 -0.4003  3.2122
18588TIP3    H277256   5.608   1.307   6.127 -0.8875 -0.3416 -1.2921
18589TIP3   OH277257   3.954   4.354  14.232  0.1965  0.3514 -0.0791
18589TIP3    H177258   3.865   4.337  14.263 -0.0273  1.9393  0.2277
18589TIP3    H277259   3.944   4.369  14.138  0.3135 -0.5694 -0.2464
18590TIP3   OH277260   0.673   3.854  13.642  0.0622  0.0472  1.1919
18590TIP3    H177261   0.613   3.802  13.695 -0.4431 -2.4721 -1.5568
18590TIP3    H277262   0.617   3.912  13.591 -0.1591 -1.9057 -0.9582
18591TIP3   OH277263   2.367   3.429   4.832 -0.0656 -0.6278  0.3516
18591TIP3    H177264   2.325   3.485   4.766  1.9415 -0.2016 -0.6484
18591TIP3    H277265   2.307   3.355   4.843 -1.7459  0.6577  0.1021
18592TIP3   OH277266   5.989   0.056  17.193  0.4894  0.2910 -0.0534
18592TIP3    H177267   5.993   0.100  17.108 -0.5838 -0.7639 -0.6771
18592TIP3    H277268   5.923   0.104  17.242 -0.4973 -0.4361 -0.6406
18593TIP3   OH277269   2.254   6.028   0.898  0.1265  0.0765 -0.0397
18593TIP3    H177270   2.279   6.076   0.977  0.2613 -1.4094  0.8672
18593TIP3    H277271   2.173   5.982   0.923  1.2798 -2.0909  0.0128
18594TIP3   OH277272   6.594   4.419   2.250  0.6523  0.5640 -0.1592
18594TIP3    H177273   6.549   4.446   2.170  0.9084 -0.6929 -0.7634
18594TIP3    H277274   6.535   4.444   2.321  0.6701  2.1845 -0.6882
18595TIP3   OH277275   3.746   5.074   2.572 -0.6699 -0.0214  0.1205
18595TIP3    H177276   3.783   5.015   2.506  1.8000  0.7377  0.7007
18595TIP3    H277277   3.666   5.108   2.532 -0.2962 -1.1077 -1.6478
18596TIP3   OH277278   3.335   6.009   5.709  0.5359  0.0980 -0.0694
18596TIP3    H177279   3.314   6.080   5.770  0.1489  0.0368 -0.1273
18596TIP3    H277280   3.342   5.931   5.764  0.6648  0.1263 -0.0446
18597TIP3   OH277281   1.926   1.983  16.083  0.5651  0.3251 -0.2827
18597TIP3    H177282   1.955   2.038  16.156  2.3601 -0.5511 -0.2923
18597TIP3    H277283   2.005   1.939  16.053 -0.8679 -2.7572  0.1108
18598TIP3   OH277284   3.519   6.693   2.294  0.0799  0.1860 -0.0921
18598TIP3    H177285   3.599   6.700   2.345 -0.5057  0.1495  0.8539
18598TIP3    H277286   3.466   6.628   2.340  0.2802 -1.2831 -1.7836
18599TIP3   OH277287   6.404   5.916  12.354 -0.1546  0.5050  0.8103
18599TIP3    H177288   6.350   5.881  12.426  1.1849 -2.0353  0.6821
18599TIP3    H277289   6.491   5.926  12.392 -0.1067  2.2538  0.3504
18600TIP3   OH277290   3.058   3.614   2.125 -0.2263 -0.5899 -0.0845
18600TIP3    H177291   3.014   3.580   2.203  1.2486  0.6919  1.3968
18600TIP3    H277292   3.078   3.705   2.147  1.5503 -0.6183 -1.3656
18601TIP3   OH277293   0.129   0.571  12.295  0.0805 -0.0770 -0.0016
18601TIP3    H177294   0.198   0.520  12.252 -0.8985 -0.5818 -1.0245
18601TIP3    H277295   0.113   0.526  12.378  0.8803 -0.0241  0.1908
18602TIP3   OH277296   4.406   3.640  12.800 -0.1176 -0.4112  0.6304
18602TIP3    H177297   4.480   3.676  12.752  0.5028 -2.3876  0.0281
18602TIP3    H277298   4.331   3.653  12.741 -0.3400  1.6420  1.2656
18603TIP3   OH277299   1.217   4.365  12.044  0.5488 -0.0214  0.0750
18603TIP3    H177300   1.282   4.298  12.023  1.2905  0.8906 -0.6657
18603TIP3    H277301   1.170   4.380  11.962  0.2779  0.2330  0.2738
18604TIP3   OH277302   5.706   3.644   4.001  0.3046  0.2999  0.5167
18604TIP3    H177303   5.763   3.572   3.975 -0.8518 -1.5697  2.8725
18604TIP3    H277304   5.767   3.713   4.030  1.4114 -0.9182  1.1777
18605TIP3   OH277305   0.954   3.678  14.427 -0.0592  0.0645  0.2856
18605TIP3    H177306   0.893   3.730  14.479  0.0233  1.0880 -0.6006
18605TIP3    H277307   0.939   3.707  14.337 -1.0385 -2.4815 -0.4696
18606TIP3   OH277308   4.379   1.973  12.879  0.0299  0.2082  0.1182
18606TIP3    H177309   4.406   2.062  12.857  2.7352 -0.5476 -0.0857
18606TIP3    H277310   4.292   1.963  12.840 -0.0528  2.5208 -0.4208
18607TIP3   OH277311   1.559   4.618  16.185 -0.6452  0.1401 -0.3447
18607TIP3    H177312   1.617   4.630  16.260 -0.2950 -0.9590 -0.4164
18607TIP3    H277313   1.562   4.524  16.167  0.0797  0.4891 -2.3636
18608TIP3   OH277314   6.457   4.482   0.865 -0.0845  0.3874 -0.1348
18608TIP3    H177315   6.501   4.554   0.910 -0.1830  0.6863 -0.5121
18608TIP3    H277316   6.451   4.412   0.930  0.4978  0.5257  0.0697
18609TIP3   OH277317   4.633   2.333   6.712  0.1966 -0.0366 -0.0070
18609TIP3    H177318   4.628   2.401   6.779 -2.3822 -2.5825  2.6527
18609TIP3    H277319   4.724   2.303   6.714  0.7049  1.4701  0.6778
18610TIP3   OH277320   4.978   1.385   6.679  0.7671 -0.3360  0.2225
18610TIP3    H177321   4.923   1.374   6.756 -0.4693  0.2428 -0.5455
18610TIP3    H277322   5.066   1.361   6.709  0.3616  0.0772  1.8566
18611TIP3   OH277323   4.703   1.107  12.068  0.5813 -0.1764 -0.0944
18611TIP3    H177324   4.613   1.111  12.035  0.3825 -0.7609  0.3487
18611TIP3    H277325   4.756   1.149  12.001  0.0203 -0.1674 -0.5345
18612TIP3   OH277326   6.351   2.965   1.727 -0.2059  0.3100 -0.2464
18612TIP3    H177327   6.259   2.938   1.735  0.1809 -0.8585  0.7203
18612TIP3    H277328   6.395   2.920   1.800  1.2228  0.4517 -0.9866
18613TIP3   OH277329   3.350   3.528  16.450  0.3448 -0.1313  0.5617
18613TIP3    H177330   3.323   3.437  16.447 -1.1187  0.2464  1.5072
18613TIP3    H277331   3.341   3.553  16.542  2.3104  0.5244  0.6323
18614TIP3   OH277332   3.702   5.570   0.302 -0.1677 -0.1575 -0.3717
18614TIP3    H177333   3.662   5.531   0.224  0.7912  1.3798 -1.6969
18614TIP3    H277334   3.630   5.579   0.364 -1.6175  1.2514 -2.1607
18615TIP3   OH277335   4.598   5.092  11.208  0.6249 -0.5049  0.3687
18615TIP3    H177336   4.547   5.110  11.129 -0.6077 -2.1687  0.7169
18615TIP3    H277337   4.685   5.127  11.189 -0.1163  0.7347 -1.0026
18616TIP3   OH277338   1.894   0.721   2.553 -0.2804 -0.3764 -0.0756
18616TIP3    H177339   1.802   0.695   2.550 -0.2696 -1.2465  3.1523
18616TIP3    H277340   1.937   0.662   2.491 -1.5408 -2.0035  0.5092
18617TIP3   OH277341   0.132   0.726  11.697 -0.0827 -0.2936 -0.1975
18617TIP3    H177342   0.045   0.755  11.671  0.4767  1.7394  0.0664
18617TIP3    H277343   0.191   0.763  11.632  0.8275  0.6378  1.0878
18618TIP3   OH277344   0.637   3.724   5.076 -0.0214 -0.3036 -0.0841
18618TIP3    H177345   0.703   3.662   5.045  0.7496  0.5845 -0.2882
18618TIP3    H277346   0.682   3.809   5.074 -1.4774  0.4764 -1.1611
18619TIP3   OH277347   0.586   3.284  16.470  0.3962 -0.0856  0.1634
18619TIP3    H177348   0.570   3.190  16.470  0.5159 -0.1072  0.0001
18619TIP3    H277349   0.641   3.299  16.547 -0.5612  0.0206  0.8536
18620TIP3   OH277350   1.398   2.498   0.933 -0.5804 -0.5592 -0.4808
18620TIP3    H177351   1.334   2.563   0.905 -0.3993  0.1659  0.7219
18620TIP3    H277352   1.409   2.441   0.857 -1.9438 -0.1491 -1.0160
18621TIP3   OH277353   6.727   5.830  13.843  0.8527  0.7326  0.1227
18621TIP3    H177354   6.788   5.798  13.776 -0.2173 -1.2872  0.0234
18621TIP3    H277355   6.746   5.776  13.919 -0.7651  0.0828  0.0966
18622TIP3   OH277356   4.994   2.904  15.249  0.0551  0.4808 -0.9589
18622TIP3    H177357   5.020   2.901  15.157 -0.3414 -0.1574 -1.0560
18622TIP3    H277358   5.066   2.949  15.293  1.9744 -2.2577 -1.0345
18623TIP3   OH277359   4.817   6.169  15.401  0.7319  0.2292  0.2298
18623TIP3    H177360   4.822   6.264  15.401  2.3534  0.1901 -0.7862
18623TIP3    H277361   4.765   6.147  15.323 -1.8439  0.2832  1.8311
18624TIP3   OH277362   0.323   2.655   3.837  0.6642  0.8414 -0.0127
18624TIP3    H177363   0.374   2.673   3.915 -1.1254  1.4323  1.0724
18624TIP3    H277364   0.314   2.740   3.793  0.5259  0.7554 -0.1530
18625TIP3   OH277365   3.145   4.080   4.915 -0.3808  0.5777 -0.1498
18625TIP3    H177366   3.172   4.129   4.992  0.8063 -0.5749  0.1989
18625TIP3    H277367   3.054   4.106   4.900 -0.0997  2.0790  0.6199
18626TIP3   OH277368   0.752   0.726   5.737  0.2856 -0.1533  0.1304
18626TIP3    H177369   0.770   0.716   5.830 -0.1618 -1.6233  0.0833
18626TIP3    H277370   0.790   0.811   5.714  0.6092  0.1207  1.5891
18627TIP3   OH277371   4.507   4.878  15.118  0.0534 -0.4117  0.0147
18627TIP3    H177372   4.506   4.893  15.213 -2.5032 -1.8254  0.3115
18627TIP3    H277373   4.499   4.965  15.080 -3.0822  0.0084  1.2910
18628TIP3   OH277374   2.907   0.228   2.849  0.3802  0.0194 -0.2443
18628TIP3    H177375   2.876   0.307   2.804  1.1769 -0.2147 -1.2194
18628TIP3    H277376   2.981   0.258   2.902  0.8323 -0.1096 -0.7969
18629TIP3   OH277377   4.286   3.956   5.612 -0.7436  0.3378  0.0357
18629TIP3    H177378   4.305   3.904   5.534  0.3286  1.0196 -0.1783
18629TIP3    H277379   4.337   4.037   5.600 -1.5078  0.9605  0.8773
18630TIP3   OH277380   1.100   4.512   2.430  0.0879 -1.1312 -0.2050
18630TIP3    H177381   1.075   4.601   2.408 -1.4448 -1.5433 -0.2137
18630TIP3    H277382   1.054   4.457   2.367  2.9496 -1.8493 -1.8316
18631TIP3   OH277383   5.536   0.075   5.414  0.3808  0.2951 -0.1879
18631TIP3    H177384   5.507   0.065   5.323  1.4240  2.7575 -0.8769
18631TIP3    H277385   5.457   0.101   5.462 -0.1907 -1.0920 -0.3202
18632TIP3   OH277386   3.817   3.000   1.139 -0.0472  0.0924  0.1100
18632TIP3    H177387   3.890   3.054   1.111  0.7019  0.2836  2.2479
18632TIP3    H277388   3.741   3.037   1.094  0.9263  0.8783 -0.9327
18633TIP3   OH277389   2.611   5.200   2.832 -0.2717 -0.0450  0.1812
18633TIP3    H177390   2.519   5.225   2.826 -0.7244 -1.3284  1.2434
18633TIP3    H277391   2.612   5.107   2.813  0.7458 -0.1528  0.6925
18634TIP3   OH277392   4.504   3.970   0.168  0.0031 -0.1448  0.3325
18634TIP3    H177393   4.437   3.969   0.235 -1.2381 -0.6242 -0.8664
18634TIP3    H277394   4.505   3.881   0.133  0.0368  0.2905 -0.8310
18635TIP3   OH277395   0.516   3.239   5.906 -0.1603  0.1474 -0.1385
18635TIP3    H177396   0.465   3.319   5.892  0.2045  0.3087 -0.5884
18635TIP3    H277397   0.532   3.205   5.818  1.8610  0.9628 -0.1519
18636TIP3   OH277398   2.915   3.509   2.580  0.6032  0.0237 -0.2157
18636TIP3    H177399   2.825   3.542   2.578 -0.0072 -1.5082  0.1151
18636TIP3    H277400   2.923   3.467   2.666  1.5684 -0.0596 -0.3344
18637TIP3   OH277401   2.846   6.200  17.226  0.2589  0.4108  0.1265
18637TIP3    H177402   2.863   6.236  17.314  1.1628  0.4101 -0.0437
18637TIP3    H277403   2.768   6.146  17.238  1.1313 -0.6655  1.2384
18638TIP3   OH277404   1.819   1.920   1.370 -0.2904  0.5025 -0.2401
18638TIP3    H177405   1.868   1.842   1.347 -1.9671 -0.4085 -0.9225
18638TIP3    H277406   1.803   1.911   1.464  0.3296  0.5166 -0.1301
18639TIP3   OH277407   0.466   5.358   3.994 -0.3435 -0.7104  0.0310
18639TIP3    H177408   0.515   5.371   3.912 -1.1306 -1.2709 -0.5413
18639TIP3    H277409   0.377   5.337   3.966 -1.3186  1.7335  1.0715
18640TIP3   OH277410   5.243   4.708   4.940  0.0500  0.2539 -0.3634
18640TIP3    H177411   5.245   4.623   4.896 -3.2022  0.6384 -1.5448
18640TIP3    H277412   5.211   4.768   4.873  1.3645  2.2897  0.7160
18641TIP3   OH277413   0.014   6.605  12.076  0.0537  0.4449 -0.2996
18641TIP3    H177414  -0.041   6.554  12.135 -2.1656  1.4795 -1.3404
18641TIP3    H277415   0.034   6.546  12.003  0.4609  0.0110  0.1628
18642TIP3   OH277416   6.338   0.315  16.104  0.3268 -0.0577  0.2748
18642TIP3    H177417   6.364   0.327  16.195 -2.3002  2.2603  0.8440
18642TIP3    H277418   6.273   0.244  16.106 -1.3031  1.3750  0.6359
18643TIP3   OH277419   3.600   3.574  12.854 -0.0746  0.2955 -0.0807
18643TIP3    H177420   3.684   3.585  12.810 -0.2784  0.7910 -0.3547
18643TIP3    H277421   3.623   3.547  12.943  0.3343 -1.0935 -0.5732
18644TIP3   OH277422   4.039   1.930   5.387 -0.2568 -0.4542 -0.6712
18644TIP3    H177423   4.000   1.912   5.473 -0.1510 -0.6860 -0.6690
18644TIP3    H277424   4.119   1.877   5.386  1.3308  1.7780  0.2594
18645TIP3   OH277425   4.240   4.629  13.331 -0.2877  0.2888  0.4033
18645TIP3    H177426   4.313   4.663  13.280  0.1756 -0.8507  0.2858
18645TIP3    H277427   4.261   4.654  13.421 -0.0157  0.4087  0.3086
18646TIP3   OH277428   5.100   5.596   2.827 -0.4218  0.3828 -0.0746
18646TIP3    H177429   5.108   5.501   2.819 -0.2344  0.5405 -2.5392
18646TIP3    H277430   5.176   5.623   2.878  1.2179 -0.5492 -1.9061
18647TIP3   OH277431   3.318   1.886  14.065  1.1337  0.2070 -0.4418
18647TIP3    H177432   3.279   1.816  14.117 -0.3044  0.7137 -0.7899
18647TIP3    H277433   3.307   1.858  13.974  1.0112  0.6369 -0.5644
18648TIP3   OH277434   2.212   5.549  13.231 -0.2610 -0.2363 -0.0699
18648TIP3    H177435   2.125   5.588  13.225 -0.5364 -0.9083 -0.5866
18648TIP3    H277436   2.235   5.555  13.323 -1.2268 -0.8176  0.2231
18649TIP3   OH277437   5.978   3.784   4.750  0.1441 -0.4218  0.4553
18649TIP3    H177438   5.917   3.813   4.818  1.4461  2.4692  0.5252
18649TIP3    H277439   5.925   3.729   4.692 -1.6068 -0.9278  2.4073
18650TIP3   OH277440   0.249   4.565  14.496  0.2073 -0.2180 -0.2023
18650TIP3    H177441   0.304   4.639  14.470  0.3553 -0.5296 -0.8052
18650TIP3    H277442   0.163   4.603  14.510 -0.3761 -0.2697 -3.0285
18651TIP3   OH277443   5.042   5.598   1.782 -0.0364  0.4555 -0.3206
18651TIP3    H177444   4.965   5.592   1.725 -0.9947  1.6936  0.7907
18651TIP3    H277445   5.030   5.529   1.847  0.3916 -0.0920 -0.8063
18652TIP3   OH277446   1.304   5.731   5.178  0.2445 -0.0402 -0.6599
18652TIP3    H177447   1.292   5.791   5.104  0.4796  0.8502 -0.0038
18652TIP3    H277448   1.224   5.741   5.230 -0.2345 -1.2003 -1.1515
18653TIP3   OH277449   6.248   2.134   1.411 -0.6130 -0.5081 -0.5317
18653TIP3    H177450   6.341   2.128   1.392 -0.1653  1.2471  0.8318
18653TIP3    H277451   6.206   2.082   1.342  1.2920 -0.4817 -1.7938
18654TIP3   OH277452   2.409   1.934   5.282 -0.5849  0.1232 -0.2898
18654TIP3    H177453   2.395   1.885   5.364 -0.1528 -1.7325 -1.2731
18654TIP3    H277454   2.444   2.018   5.311  1.6223 -1.2425  1.4085
18655TIP3   OH277455   5.235   1.676   6.651 -0.2655  0.1236 -0.0393
18655TIP3    H177456   5.263   1.758   6.610 -0.4195 -0.7704 -2.0868
18655TIP3    H277457   5.239   1.693   6.745  0.5977  2.1653 -0.3905
18656TIP3   OH277458   3.945   0.284   1.735 -0.5973 -0.9898 -0.1089
18656TIP3    H177459   4.019   0.255   1.788 -0.8020  0.2196  0.9110
18656TIP3    H277460   3.887   0.208   1.731 -0.7808 -1.0035  1.8358
18657TIP3   OH277461   5.720   2.544  14.546  0.0168  0.7176  0.3680
18657TIP3    H177462   5.727   2.503  14.632 -0.8820  0.2604  0.2302
18657TIP3    H277463   5.650   2.608  14.555 -0.3729  0.3707 -0.1360
18658TIP3   OH277464   5.138   4.175   3.419 -0.5275  0.1921  0.0857
18658TIP3    H177465   5.183   4.222   3.349 -0.5991 -0.4115 -0.3715
18658TIP3    H277466   5.086   4.242   3.464  0.8409  0.9026  0.6478
18659TIP3   OH277467   0.554   0.349  10.546 -0.1902  0.4982  0.3242
18659TIP3    H177468   0.550   0.436  10.588 -0.1610  0.6883 -0.0638
18659TIP3    H277469   0.463   0.330  10.523 -0.2696  0.1954  0.8675
18660TIP3   OH277470   1.072   3.071  14.944  0.7623 -0.5990  0.8728
18660TIP3    H177471   1.023   3.006  14.895  3.1825 -1.2813 -0.8580
18660TIP3    H277472   1.018   3.150  14.940  0.9043 -0.4953 -3.3511
18661TIP3   OH277473   2.295   5.466  14.576 -0.6035 -0.0144 -0.6741
18661TIP3    H177474   2.226   5.511  14.624 -0.8574  0.0746 -1.1158
18661TIP3    H277475   2.315   5.389  14.629 -0.3663  0.4650 -0.0610
18662TIP3   OH277476   2.726   3.735   1.745 -0.3393 -0.1310 -0.5954
18662TIP3    H177477   2.649   3.752   1.689  0.3847  1.5717 -1.1684
18662TIP3    H277478   2.758   3.823   1.766  0.9177 -0.8110  0.3899
18663TIP3   OH277479   5.204   0.060   1.711 -0.2094 -0.0977  0.1573
18663TIP3    H177480   5.207   0.144   1.756 -2.6092 -0.3174  0.8506
18663TIP3    H277481   5.132   0.069   1.648 -0.1459 -1.4621 -0.1340
18664TIP3   OH277482   0.001   1.569  17.168  0.4415  0.1062 -0.0098
18664TIP3    H177483   0.016   1.640  17.105  0.6667  0.7363  0.7442
18664TIP3    H277484   0.088   1.530  17.180  0.8473  1.4400  1.6140
18665TIP3   OH277485   6.748   2.668   1.277 -0.1046 -0.2555 -0.1171
18665TIP3    H177486   6.809   2.595   1.291 -0.0019  0.4272  4.4234
18665TIP3    H277487   6.664   2.625   1.263  0.2433 -1.2543  0.7130
18666TIP3   OH277488   0.981   3.735   5.074  0.1823  0.2249  0.6008
18666TIP3    H177489   1.054   3.674   5.061 -1.3890 -1.4238 -1.2607
18666TIP3    H277490   0.966   3.735   5.168  1.2730 -0.9996  0.8095
18667TIP3   OH277491   4.240   2.050   0.920 -0.3943  0.2235 -0.2350
18667TIP3    H177492   4.250   2.139   0.886  0.0139  0.2514 -0.0429
18667TIP3    H277493   4.291   2.049   1.001  2.2435 -1.0790 -1.7762
18668TIP3   OH277494   3.463   5.314  13.504  0.1361  0.2819 -0.2499
18668TIP3    H177495   3.469   5.306  13.409 -0.3922 -1.3075 -0.1736
18668TIP3    H277496   3.373   5.289  13.525  0.7574 -1.2116  0.8230
18669TIP3   OH277497   3.285   1.766  12.583 -0.0830  0.1294 -0.1352
18669TIP3    H177498   3.196   1.763  12.548 -0.2205 -0.7303  0.2638
18669TIP3    H277499   3.328   1.834  12.532 -1.0083  0.6742 -0.2307
18670TIP3   OH277500   2.870   2.144   5.803  0.2887 -0.0208  0.4013
18670TIP3    H177501   2.838   2.058   5.831 -0.7821  0.3811  0.4545
18670TIP3    H277502   2.935   2.168   5.869  0.6759 -0.8246  0.3290
18671TIP3   OH277503   6.012   0.498   5.551 -0.1142 -0.0410  0.0488
18671TIP3    H177504   6.028   0.411   5.587 -0.8859 -0.4429 -0.5682
18671TIP3    H277505   6.084   0.512   5.489  0.7300  0.3021  1.0656
18672TIP3   OH277506   2.263   1.199  14.575  0.0965 -0.1785  0.4404
18672TIP3    H177507   2.331   1.194  14.508 -0.0513  1.8191  0.0881
18672TIP3    H277508   2.306   1.170  14.656 -0.0821 -3.9888 -0.6492
18673TIP3   OH277509   3.973   2.576  12.015  0.2280  0.1775 -0.4214
18673TIP3    H177510   3.999   2.577  11.923  0.2892  1.6575 -0.4219
18673TIP3    H277511   4.044   2.532  12.060  0.1605 -0.6408 -1.0811
18674TIP3   OH277512   2.695   6.065   2.399  0.3673 -0.2842 -0.6693
18674TIP3    H177513   2.610   6.078   2.442 -0.4396  0.3002 -2.3541
18674TIP3    H277514   2.680   6.093   2.309  2.9253  1.8926 -0.5239
18675TIP3   OH277515   1.360   1.416   2.170 -0.1477 -0.0330 -0.5377
18675TIP3    H177516   1.273   1.444   2.142 -0.2611 -0.9704 -1.1650
18675TIP3    H277517   1.419   1.480   2.131 -0.5281  0.4859 -0.2853
18676TIP3   OH277518   0.435   6.735  14.265 -0.2566  0.0050 -0.5119
18676TIP3    H177519   0.380   6.670  14.222 -2.0620  3.0205 -3.1690
18676TIP3    H277520   0.523   6.718  14.230 -0.5627 -1.2505 -0.7399
18677TIP3   OH277521   0.175   2.264   5.514  0.1377  0.0222  0.0056
18677TIP3    H177522   0.183   2.250   5.608 -0.3500  1.0359  0.2158
18677TIP3    H277523   0.162   2.358   5.505 -0.9188 -0.1896 -0.9967
18678TIP3   OH277524   1.731   6.435  15.361 -0.0097 -0.2372  0.5095
18678TIP3    H177525   1.760   6.471  15.444  0.7326 -1.5985  0.8684
18678TIP3    H277526   1.764   6.496  15.295 -0.6222  0.8578  1.1920
18679TIP3   OH277527   0.639   5.510  16.457 -0.0816 -0.8170 -0.4750
18679TIP3    H177528   0.698   5.543  16.525  0.7868 -1.1199 -1.0638
18679TIP3    H277529   0.585   5.445  16.501 -1.1904  0.6912  0.4856
18680TIP3   OH277530   3.687   0.255   3.722 -0.0642 -0.0460 -0.1862
18680TIP3    H177531   3.617   0.320   3.728 -0.4109 -0.3171 -1.1225
18680TIP3    H277532   3.715   0.257   3.631 -0.4263 -1.5472 -0.3693
18681TIP3   OH277533   4.799   3.142   2.675 -0.2514  0.4981  0.8329
18681TIP3    H177534   4.783   3.054   2.639 -0.1001  0.7322  0.1796
18681TIP3    H277535   4.789   3.131   2.770 -0.2988 -0.2108  0.7537
18682TIP3   OH277536   6.789   4.039  14.828 -0.1507 -0.0603  0.5732
18682TIP3    H177537   6.730   3.964  14.829  0.2430 -0.3672  1.1827
18682TIP3    H277538   6.732   4.114  14.844 -0.6635 -0.1245 -0.8016
18683TIP3   OH277539   0.714   1.975  13.462 -0.2941 -0.3065 -0.8960
18683TIP3    H177540   0.733   1.953  13.371 -0.4882  0.3075 -1.0946
18683TIP3    H277541   0.714   1.891  13.508  0.0660 -0.5966 -1.4116
18684TIP3   OH277542   5.691   1.446   4.132  0.4170 -0.9115  0.4026
18684TIP3    H177543   5.767   1.404   4.173  0.4689 -1.8718 -0.6360
18684TIP3    H277544   5.725   1.527   4.095  1.0539 -1.5734 -0.4876
18685TIP3   OH277545   5.987   0.492  17.040  0.0586  0.1205  0.0687
18685TIP3    H177546   5.974   0.534  16.955 -0.1960  0.6278  0.3494
18685TIP3    H277547   5.903   0.505  17.086 -0.2716 -1.2901 -0.0833
18686TIP3   OH277548   6.718   6.459  13.979 -0.0542 -0.2752 -0.3062
18686TIP3    H177549   6.768   6.485  14.056 -0.3814 -0.3027 -0.0841
18686TIP3    H277550   6.775   6.399  13.932 -0.0726 -0.6935  0.2039
18687TIP3   OH277551   0.639   4.379  15.211  0.3930  0.3481  0.7703
18687TIP3    H177552   0.683   4.398  15.294  0.4428  1.4562  0.5079
18687TIP3    H277553   0.548   4.365  15.235  0.5653 -0.2172  1.1127
18688TIP3   OH277554   5.125   0.592  15.501  0.2598  0.1469  0.4113
18688TIP3    H177555   5.141   0.499  15.517  1.4061  0.4825  1.4061
18688TIP3    H277556   5.092   0.596  15.411 -1.1551 -1.3346  0.8116
18689TIP3   OH277557   1.722   5.989  14.471  0.0693 -0.6988 -0.0855
18689TIP3    H177558   1.787   5.970  14.539 -0.5356 -0.1598  0.6622
18689TIP3    H277559   1.771   6.036  14.403  1.0235 -2.5724 -0.7759
18690TIP3   OH277560   2.957   6.584  14.721 -0.5273  0.4238 -0.1693
18690TIP3    H177561   2.990   6.574  14.631 -1.9063  2.5512 -0.9968
18690TIP3    H277562   3.010   6.656  14.757  0.3527 -0.7403  0.9416
18691TIP3   OH277563   5.418   3.330  13.752 -0.4484 -0.7129 -0.0796
18691TIP3    H177564   5.396   3.365  13.666 -2.5052 -1.5252  0.0386
18691TIP3    H277565   5.511   3.351  13.765 -0.9579  2.6325 -0.9203
18692TIP3   OH277566   4.984   1.430   0.204  0.3432 -0.6712 -0.6429
18692TIP3    H177567   4.958   1.505   0.150  2.0553  0.5904  0.1767
18692TIP3    H277568   5.013   1.364   0.141 -0.6601 -0.4427 -1.3603
18693TIP3   OH277569   2.817   6.740  16.876 -0.2959 -0.2932 -0.3991
18693TIP3    H177570   2.909   6.749  16.901 -0.2665 -1.2526 -0.1286
18693TIP3    H277571   2.801   6.645  16.877 -1.0008 -0.2031 -1.4830
18694TIP3   OH277572   6.558   6.054  16.808 -0.0485  0.3627 -0.8364
18694TIP3    H177573   6.520   5.966  16.811 -0.3655  0.5024  1.3563
18694TIP3    H277574   6.652   6.040  16.823 -0.3210  0.4251  1.3369
18695TIP3   OH277575   5.580   1.904   0.406 -0.4885  0.0460  0.0867
18695TIP3    H177576   5.502   1.889   0.353  1.2441 -1.0333 -2.3281
18695TIP3    H277577   5.650   1.859   0.360  1.4080  0.0266  2.7443
18696TIP3   OH277578   6.658   0.222   5.321  0.6605 -0.0709  0.3156
18696TIP3    H177579   6.569   0.234   5.353  0.2348  0.4448 -1.0144
18696TIP3    H277580   6.650   0.160   5.248  1.0937  1.4342 -1.0543
18697TIP3   OH277581   1.296   2.056   0.316  0.2617  0.4207 -0.2478
18697TIP3    H177582   1.264   1.966   0.311 -0.4103  0.4860  1.9065
18697TIP3    H277583   1.250   2.101   0.245 -0.0564 -0.7243 -0.8021
18698TIP3   OH277584   4.559   6.695   4.455  0.3400  0.3634 -0.1626
18698TIP3    H177585   4.605   6.611   4.449 -0.4936 -0.1741  0.6813
18698TIP3    H277586   4.505   6.698   4.377  1.0051  0.5105 -0.6234
18699TIP3   OH277587   0.383   2.084  10.556  0.3307  0.2744  0.2005
18699TIP3    H177588   0.398   2.047  10.643  2.1119 -0.9574 -0.5598
18699TIP3    H277589   0.306   2.139  10.566 -1.5117 -2.3813  1.8250
18700TIP3   OH277590   1.369   2.510  10.590  0.2745  0.2513 -0.9232
18700TIP3    H177591   1.425   2.469  10.524  0.5437 -0.3594 -0.3237
18700TIP3    H277592   1.402   2.477  10.673  1.6891  3.0188 -0.2590
18701TIP3   OH277593   4.889   0.344  12.089 -0.2789  0.7244  0.2230
18701TIP3    H177594   4.853   0.296  12.164  0.0536  2.3554  1.4867
18701TIP3    H277595   4.908   0.276  12.024  1.4482 -1.0809  2.4215
18702TIP3   OH277596   6.638   1.284   0.790  0.4206 -0.4645 -0.4058
18702TIP3    H177597   6.614   1.341   0.863  0.6351 -5.8412  4.6298
18702TIP3    H277598   6.556   1.268   0.744  0.1856  2.7158 -1.3506
18703TIP3   OH277599   0.165   0.455   2.161 -1.3163  0.1547 -0.4537
18703TIP3    H177600   0.139   0.390   2.226  0.5513 -1.2212 -1.0132
18703TIP3    H277601   0.242   0.497   2.198 -2.1759  1.7336 -0.3505
18704TIP3   OH277602   0.734   0.794   3.244 -0.0233  0.0441 -0.1917
18704TIP3    H177603   0.800   0.736   3.207  0.4279  0.3671  0.0907
18704TIP3    H277604   0.698   0.840   3.168 -0.8238 -1.0379 -0.4869
18705TIP3   OH277605   5.532   1.874  16.549  0.0346 -0.2085  0.7182
18705TIP3    H177606   5.529   1.911  16.636  1.9345  0.6666  0.4642
18705TIP3    H277607   5.623   1.844  16.539 -0.3133 -0.8754 -0.7141
18706TIP3   OH277608   1.808   1.755  14.634  0.0826 -0.3605 -0.0463
18706TIP3    H177609   1.715   1.739  14.623 -0.4397  1.1869  1.6002
18706TIP3    H277610   1.833   1.704  14.711 -0.0797  1.3046  1.1662
18707TIP3   OH277611   1.319   6.363   4.000 -0.6350 -0.9728  0.1924
18707TIP3    H177612   1.403   6.352   3.957  1.0362  1.2860  2.5725
18707TIP3    H277613   1.340   6.367   4.094 -3.4917 -1.1544  0.9415
18708TIP3   OH277614   0.571   4.139  13.775 -0.0254 -0.0263  0.6812
18708TIP3    H177615   0.580   4.069  13.710  1.3868 -1.8871  2.7105
18708TIP3    H277616   0.654   4.187  13.769  0.9176 -1.3352  2.2047
18709TIP3   OH277617   3.894   0.758  16.747  0.8790  0.0667 -0.3027
18709TIP3    H177618   3.837   0.833  16.764  0.5414 -0.6322  2.0020
18709TIP3    H277619   3.982   0.788  16.770  0.7076 -0.3030  0.8602
18710TIP3   OH277620   6.634   5.357  12.438  0.1435  0.0285  0.1501
18710TIP3    H177621   6.575   5.418  12.393  0.5370  0.0894 -0.2939
18710TIP3    H277622   6.667   5.300  12.368  0.7045  0.0738  0.3797
18711TIP3   OH277623   3.773   2.989   4.638 -0.0277  0.1920  0.1453
18711TIP3    H177624   3.802   3.055   4.575  0.6878  0.6155  0.8869
18711TIP3    H277625   3.782   2.906   4.592 -2.7077  0.6697 -1.4737
18712TIP3   OH277626   2.784   2.211  11.518 -0.3877 -0.5579 -0.0786
18712TIP3    H177627   2.719   2.279  11.502  0.6458  0.5348  0.2859
18712TIP3    H277628   2.839   2.245  11.588  0.2917 -1.6724 -0.0415
18713TIP3   OH277629   6.463   2.652   2.792 -0.4632 -0.2601  0.3769
18713TIP3    H177630   6.408   2.727   2.769 -0.3773 -0.1810  0.4276
18713TIP3    H277631   6.446   2.588   2.723  0.7250  0.4439 -0.6033
18714TIP3   OH277632   5.901   5.427   2.025  0.4234  0.1481  0.0742
18714TIP3    H177633   5.891   5.518   1.998 -0.5450 -0.2746 -1.1019
18714TIP3    H277634   5.904   5.430   2.120 -1.5667  1.2594  0.1623
18715TIP3   OH277635   4.048   5.686   3.383  0.1793  0.0623 -0.0374
18715TIP3    H177636   4.079   5.762   3.332  1.3717  0.2932  0.9951
18715TIP3    H277637   4.115   5.619   3.369  0.4533  0.0794  1.0888
18716TIP3   OH277638   1.128   3.004   1.410  0.4827 -0.2362 -0.1135
18716TIP3    H177639   1.131   2.908   1.404  0.1558 -0.2455 -0.1330
18716TIP3    H277640   1.104   3.033   1.322  2.3753 -0.0398 -0.5970
18717TIP3   OH277641   3.729   4.912   2.138  0.1799 -0.6189 -0.0965
18717TIP3    H177642   3.707   4.869   2.056 -0.8648  0.8298 -0.6274
18717TIP3    H277643   3.799   4.973   2.116  0.7146 -1.0545  0.3569
18718TIP3   OH277644   2.620   6.176  16.304 -0.2192 -0.0974 -0.0230
18718TIP3    H177645   2.610   6.114  16.232  0.4905 -0.4536  0.1787
18718TIP3    H277646   2.633   6.261  16.261 -0.2321 -0.2404 -0.3113
18719TIP3   OH277647   0.746   3.510   1.120 -0.5047  1.0076 -0.3659
18719TIP3    H177648   0.665   3.462   1.139 -0.0110  0.6241  0.8756
18719TIP3    H277649   0.759   3.566   1.196  0.0841  1.5184 -0.8312
18720TIP3   OH277650   2.497   0.183  11.179  0.8320  0.2798  0.3434
18720TIP3    H177651   2.518   0.241  11.252 -1.7089 -0.8737  2.1101
18720TIP3    H277652   2.511   0.237  11.101  2.5890  1.8863  1.6719
18721TIP3   OH277653   1.635   6.776  15.158  0.1845 -0.2535 -0.6426
18721TIP3    H177654   1.661   6.851  15.212  0.3950  0.7292 -2.0516
18721TIP3    H277655   1.581   6.814  15.089  0.6355 -1.3443 -1.6208
18722TIP3   OH277656   2.063   4.593   6.364 -0.0586 -0.0453 -0.5054
18722TIP3    H177657   2.098   4.517   6.318  0.0185 -1.3614  1.5901
18722TIP3    H277658   1.974   4.602   6.331 -0.7276 -2.2713  0.5067
18723TIP3   OH277659   4.431   6.801   6.584  0.3140 -0.8143  0.2193
18723TIP3    H177660   4.445   6.895   6.573  0.7615 -0.9908 -0.9076
18723TIP3    H277661   4.336   6.791   6.593  0.2118 -0.2995 -0.2347
18724TIP3   OH277662   4.734   6.338   1.417  0.3339  0.2458  0.4073
18724TIP3    H177663   4.736   6.315   1.324 -1.8786 -1.2271  0.6510
18724TIP3    H277664   4.706   6.430   1.418 -0.1414  0.1223 -0.3951
18725TIP3   OH277665   5.847   1.697   4.539  0.3001  0.2716 -0.2690
18725TIP3    H177666   5.918   1.760   4.524  0.4306  0.1574 -0.1390
18725TIP3    H277667   5.778   1.722   4.478  1.2732 -0.9246 -1.9169
18726TIP3   OH277668   3.181   3.968  15.195  0.5359 -0.4621 -0.5120
18726TIP3    H177669   3.225   3.915  15.262  0.1486 -0.8570 -0.5620
18726TIP3    H277670   3.196   3.921  15.113 -0.3772 -0.8656 -0.4600
18727TIP3   OH277671   1.616   3.377   1.136  0.4391 -0.2608  0.2106
18727TIP3    H177672   1.608   3.371   1.231 -0.1222 -2.3800  0.0874
18727TIP3    H277673   1.533   3.341   1.103  0.9260 -0.2639 -1.0710
18728TIP3   OH277674   3.365   3.078   0.575 -0.0883  0.4376 -0.1302
18728TIP3    H177675   3.396   3.168   0.582 -2.0320  1.1457  0.0968
18728TIP3    H277676   3.366   3.045   0.664 -1.1499  0.9143  0.0800
18729TIP3   OH277677   0.813   5.255  11.907  0.0182 -0.2854  0.6657
18729TIP3    H177678   0.804   5.337  11.857  1.3841  0.4374  1.5433
18729TIP3    H277679   0.726   5.216  11.904 -0.6142  1.0813  0.0286
18730TIP3   OH277680   6.767   0.605   2.265 -0.2762  0.1717  0.3101
18730TIP3    H177681   6.789   0.690   2.226  0.8481 -0.1019  0.3065
18730TIP3    H277682   6.846   0.552   2.252 -0.7659 -0.6963  0.8076
18731TIP3   OH277683   5.106   2.766  16.368  0.0572  0.3019 -0.6782
18731TIP3    H177684   5.047   2.690  16.372  0.3778  0.0773  0.0092
18731TIP3    H277685   5.167   2.753  16.441 -2.4696  3.3424  2.3272
18732TIP3   OH277686   5.678   4.219  15.577 -0.5414 -0.1045  0.5277
18732TIP3    H177687   5.605   4.227  15.516  0.2376  0.4262 -0.3557
18732TIP3    H277688   5.660   4.284  15.645 -0.6883  0.3097  0.0958
18733TIP3   OH277689   3.794   5.809  11.517  0.0405 -0.1028 -0.3351
18733TIP3    H177690   3.880   5.841  11.488 -0.7891  2.1365 -0.5889
18733TIP3    H277691   3.755   5.770  11.440  0.4912 -0.3165 -0.4540
18734TIP3   OH277692   1.035   6.685   3.774  0.2116 -0.4210  0.6690
18734TIP3    H177693   0.954   6.659   3.732  0.1307  0.1724  0.4419
18734TIP3    H277694   1.039   6.634   3.855  0.1545 -1.2449  0.1528
18735TIP3   OH277695   3.900   2.608   4.767 -0.3639  0.4314  0.5354
18735TIP3    H177696   3.822   2.647   4.727 -1.1916 -0.3605  1.3527
18735TIP3    H277697   3.882   2.514   4.770  0.6544  0.2288  0.6751
18736TIP3   OH277698   6.683   4.927   5.715 -0.6697 -0.0115  0.2338
18736TIP3    H177699   6.673   5.021   5.724  0.0012  0.4222 -2.6528
18736TIP3    H277700   6.718   4.898   5.799  2.3324  2.8421  0.1493
18737TIP3   OH277701   4.308   2.798   5.346  0.5257 -0.7565 -0.2301
18737TIP3    H177702   4.224   2.760   5.371 -0.1713  0.3087 -0.9083
18737TIP3    H277703   4.302   2.810   5.251 -0.0788  2.8045  0.1250
18738TIP3   OH277704   6.376   2.462   6.330 -0.5465 -0.3909  0.1262
18738TIP3    H177705   6.286   2.442   6.304  0.4138 -0.0980 -4.2362
18738TIP3    H277706   6.410   2.381   6.366 -1.7536 -1.4168 -0.9682
18739TIP3   OH277707   4.343   1.349  11.537 -0.2469  0.3256 -0.4205
18739TIP3    H177708   4.352   1.362  11.443 -0.1859 -2.2454 -0.8427
18739TIP3    H277709   4.411   1.285  11.559 -0.5772  0.5112  1.2903
18740TIP3   OH277710   5.693   3.569  12.445  0.0509 -0.0931 -0.0917
18740TIP3    H177711   5.637   3.491  12.445  0.0639 -0.1042  0.1484
18740TIP3    H277712   5.632   3.643  12.448 -0.0091 -0.0442 -1.6520
18741TIP3   OH277713   1.964   3.344   3.589 -0.4362  0.1011 -0.3689
18741TIP3    H177714   1.949   3.363   3.681 -0.0764 -1.0056 -0.0621
18741TIP3    H277715   2.058   3.327   3.582 -0.3304  0.8790 -1.0864
18742TIP3   OH277716   2.318   4.298   0.591  0.0627 -0.1165  0.0515
18742TIP3    H177717   2.245   4.245   0.560  0.0557  0.1124 -0.3314
18742TIP3    H277718   2.305   4.305   0.686  0.9246 -2.1254  0.3606
18743TIP3   OH277719   3.716   0.251  13.158  0.5421  0.0839 -0.6030
18743TIP3    H177720   3.715   0.235  13.252  1.2325  0.0639 -0.5961
18743TIP3    H277721   3.761   0.335  13.149  0.4548  0.0985 -0.9158
18744TIP3   OH277722   6.579   5.899   4.825  0.0537  0.4205  0.4193
18744TIP3    H177723   6.612   5.967   4.767  0.3181  0.0706  0.1594
18744TIP3    H277724   6.629   5.910   4.906  1.2674 -0.4824 -0.1671
18745TIP3   OH277725   5.754   1.981   3.358  0.0574 -0.4289 -0.3014
18745TIP3    H177726   5.796   1.905   3.397 -2.6633 -0.8403  2.2059
18745TIP3    H277727   5.660   1.963   3.364 -0.6452  1.8975 -2.3242
18746TIP3   OH277728   3.248   0.116  11.346  0.4227  0.5360  0.1849
18746TIP3    H177729   3.176   0.176  11.328 -0.5004 -0.7696 -0.6528
18746TIP3    H277730   3.292   0.155  11.421 -0.5013  1.9316  0.0560
18747TIP3   OH277731   6.521   4.660  14.733 -0.3690 -0.2728 -0.9067
18747TIP3    H177732   6.505   4.620  14.647  0.3967 -0.0560 -1.1597
18747TIP3    H277733   6.441   4.709  14.752 -0.3035  0.1990 -1.7927
18748TIP3   OH277734   1.212   0.276   2.661  0.0873  0.2460 -0.0244
18748TIP3    H177735   1.123   0.305   2.685 -0.4436 -1.7535  0.5766
18748TIP3    H277736   1.223   0.192   2.706  1.6882 -0.3104 -1.3720
18749TIP3   OH277737   2.860   4.214   6.302  0.7307  0.3062  0.2312
18749TIP3    H177738   2.807   4.142   6.266  0.3762  0.8233 -0.2954
18749TIP3    H277739   2.946   4.175   6.315  0.5032 -0.2613  0.0925
18750TIP3   OH277740   4.850   6.724  14.880 -0.4735  0.2557  0.2025
18750TIP3    H177741   4.926   6.685  14.836 -0.3590  1.0500 -0.3294
18750TIP3    H277742   4.801   6.766  14.809 -1.7666 -0.7770  0.4372
18751TIP3   OH277743   1.042   5.812  15.816 -0.4752 -0.5604  0.7662
18751TIP3    H177744   1.059   5.719  15.802  0.1860 -0.5362  1.3512
18751TIP3    H277745   1.031   5.848  15.728  0.8553 -0.9113  0.4376
18752TIP3   OH277746   6.436   3.248   2.084 -0.2119  0.6603 -0.8977
18752TIP3    H177747   6.436   3.186   2.157 -1.4967  0.8096 -0.7628
18752TIP3    H277748   6.465   3.331   2.123 -0.7992  0.7163 -0.5740
18753TIP3   OH277749   0.637   3.383  12.413  0.1322  0.3283  0.1594
18753TIP3    H177750   0.541   3.384  12.413  0.0262 -1.3254 -1.9142
18753TIP3    H277751   0.660   3.304  12.462  0.4493  0.6338  0.5115
18754TIP3   OH277752   1.389   6.043  15.012  0.1860 -0.4467 -0.5920
18754TIP3    H177753   1.413   6.114  15.071  0.8707 -0.5168 -0.7697
18754TIP3    H277754   1.447   5.971  15.038  0.2487 -0.5889 -1.1224
18755TIP3   OH277755   4.186   6.748   2.532  0.1891 -0.4898  0.1078
18755TIP3    H177756   4.223   6.722   2.448  0.7905 -0.8704  0.4858
18755TIP3    H277757   4.207   6.675   2.591  0.9414  0.3586  0.9146
18756TIP3   OH277758   3.213   4.283   4.616  0.0288 -0.5211 -0.2134
18756TIP3    H177759   3.201   4.355   4.679  2.3106 -0.2811  0.0161
18756TIP3    H277760   3.267   4.320   4.547  0.2672 -1.7143 -0.6847
18757TIP3   OH277761   0.391   4.951  12.231  0.4091  0.4100 -0.3732
18757TIP3    H177762   0.350   4.957  12.144 -0.1755  1.1466 -0.0584
18757TIP3    H277763   0.320   4.969  12.292  1.4571  3.4520  0.1589
18758TIP3   OH277764   5.353   3.958   4.029 -0.0614  0.0195  0.7587
18758TIP3    H177765   5.376   4.039   3.983  1.4343 -0.7571  0.0663
18758TIP3    H277766   5.354   3.891   3.960  2.3965 -1.2157  1.8779
18759TIP3   OH277767   3.567   2.583   5.204  0.4422 -0.4130  0.5141
18759TIP3    H177768   3.557   2.662   5.257 -1.0403 -0.3974  0.2793
18759TIP3    H277769   3.501   2.523   5.238 -0.3449 -0.5092 -1.0759
18760TIP3   OH277770   4.918   4.586  16.917 -0.2204 -0.9095  0.0211
18760TIP3    H177771   4.882   4.616  16.834 -2.3199 -1.9738  0.4893
18760TIP3    H277772   5.000   4.635  16.926 -1.1891  1.1439 -1.4375
18761TIP3   OH277773   0.667   1.990   3.857  0.0902 -0.2615  0.1615
18761TIP3    H177774   0.670   1.907   3.809 -2.5243  0.0119 -0.6103
18761TIP3    H277775   0.700   2.055   3.794  3.4333 -0.7445  1.1925
18762TIP3   OH277776   4.756   4.144  14.055 -0.1990 -0.0211  0.0604
18762TIP3    H177777   4.827   4.183  14.105  0.0503 -0.2755 -0.0951
18762TIP3    H277778   4.784   4.152  13.964 -0.5568  0.2532 -0.0276
18763TIP3   OH277779   0.369   1.781   2.342  0.2091 -0.3128  0.3018
18763TIP3    H177780   0.402   1.862   2.303 -1.9590  0.1373 -0.7441
18763TIP3    H277781   0.447   1.735   2.371  1.5311  2.0143  0.6724
18764TIP3   OH277782   6.647   2.418   4.598  0.2468 -0.4448  0.4822
18764TIP3    H177783   6.713   2.477   4.635  2.7116 -2.2155 -0.8636
18764TIP3    H277784   6.648   2.435   4.504  0.6611 -2.2451  0.1259
18765TIP3   OH277785   3.987   5.677  15.501 -0.3008 -0.1602 -0.1880
18765TIP3    H177786   4.064   5.710  15.455 -1.3174  0.7388 -1.3362
18765TIP3    H277787   3.969   5.743  15.568 -1.2723  0.7534 -1.3029
18766TIP3   OH277788   2.819   1.366   5.096  0.4657 -0.1088  0.4275
18766TIP3    H177789   2.763   1.427   5.142 -2.0098 -0.3739 -1.9786
18766TIP3    H277790   2.882   1.422   5.049 -0.3843  0.4721 -0.0392
18767TIP3   OH277791   0.844   1.696  13.356  0.1959  0.1200  0.0040
18767TIP3    H177792   0.862   1.746  13.277 -0.6677 -1.0430 -0.9740
18767TIP3    H277793   0.813   1.611  13.324 -0.3300 -0.3243  1.5943
18768TIP3   OH277794   2.035   4.997   6.582 -0.2209  0.1696 -0.3694
18768TIP3    H177795   1.960   5.025   6.634 -0.2676  1.1266 -0.9350
18768TIP3    H277796   2.094   4.956   6.646 -1.2615 -0.7047  0.0512
18769TIP3   OH277797   4.990   1.042   1.834 -0.2894  0.2347 -0.4793
18769TIP3    H177798   4.942   1.016   1.756 -0.5001 -1.3082  0.1254
18769TIP3    H277799   4.928   1.029   1.906  0.8936 -1.5466  0.2887
18770TIP3   OH277800   5.965   1.616  16.699 -0.3995  0.1087 -0.2791
18770TIP3    H177801   6.044   1.568  16.673  0.2837  1.2111 -0.2773
18770TIP3    H277802   5.961   1.691  16.639 -2.7036 -1.0847 -1.8012
18771TIP3   OH277803   3.743   1.334   2.891 -0.7805 -0.4605  0.1109
18771TIP3    H177804   3.666   1.308   2.942 -0.5367 -2.3261 -0.4103
18771TIP3    H277805   3.811   1.272   2.917  0.6100  1.1951  0.6032
18772TIP3   OH277806   0.441   3.314  12.063  0.1887 -0.2852 -0.4062
18772TIP3    H177807   0.411   3.358  12.142  0.5001 -0.5972 -0.1131
18772TIP3    H277808   0.534   3.333  12.058 -0.1751  1.3261 -1.7348
18773TIP3   OH277809   3.258   2.789  12.768 -0.0696  0.0797  0.0064
18773TIP3    H177810   3.216   2.874  12.755  0.5771  0.5435  0.8221
18773TIP3    H277811   3.196   2.726  12.733 -1.0724  0.8046  0.4314
18774TIP3   OH277812   4.850   2.221   4.385 -0.1465  0.6477 -0.8036
18774TIP3    H177813   4.776   2.185   4.433 -1.5929  0.5022 -2.9885
18774TIP3    H277814   4.920   2.155   4.396 -0.9209 -0.0797 -0.1414
18775TIP3   OH277815   1.142   1.418   4.694 -0.0723  0.4050  0.1483
18775TIP3    H177816   1.170   1.370   4.617  1.7530  0.2382  0.8764
18775TIP3    H277817   1.060   1.461   4.667 -0.9527 -1.8319 -0.9877
18776TIP3   OH277818   4.793   2.277  12.706  0.0168 -0.0680  0.1056
18776TIP3    H177819   4.740   2.198  12.710  0.4992 -0.5454 -1.8150
18776TIP3    H277820   4.850   2.272  12.783  0.5232 -1.9870 -0.3490
18777TIP3   OH277821   2.559   4.749  13.385 -0.2583  0.3803  0.1745
18777TIP3    H177822   2.518   4.779  13.466 -0.6535  0.4652 -0.0556
18777TIP3    H277823   2.544   4.819  13.322  0.7310  0.6616  0.2372
18778TIP3   OH277824   5.808   0.534  16.532  0.2540 -0.7190  0.3831
18778TIP3    H177825   5.880   0.541  16.470  0.3255 -0.1226  0.5272
18778TIP3    H277826   5.730   0.558  16.481  0.2702 -0.5403  0.4422
18779TIP3   OH277827   3.127   5.474   3.272  0.7172  0.0573 -0.2245
18779TIP3    H177828   3.070   5.528   3.327  1.2273 -1.4688  1.9619
18779TIP3    H277829   3.213   5.516   3.278  0.2680  1.3167 -2.0066
18780TIP3   OH277830   6.641   3.573  13.931  0.0757 -0.0206 -0.1953
18780TIP3    H177831   6.580   3.586  14.003  0.5873  0.7849  0.1115
18780TIP3    H277832   6.603   3.623  13.859 -1.2347 -2.0456 -1.0065
18781TIP3   OH277833   6.747   3.205   5.847 -0.3277 -0.5189  0.1271
18781TIP3    H177834   6.678   3.225   5.911 -0.9723 -0.3254 -0.6066
18781TIP3    H277835   6.771   3.291   5.811 -0.2957 -0.6689 -0.2116
18782TIP3   OH277836   3.312   6.240   5.855  0.0451 -0.2803  0.4623
18782TIP3    H177837   3.289   6.313   5.799 -0.8179  0.0270  1.1920
18782TIP3    H277838   3.234   6.225   5.909  0.7483 -0.7194  1.4027
18783TIP3   OH277839   3.856   0.161  10.809 -0.1891 -0.0511  0.1928
18783TIP3    H177840   3.778   0.206  10.842 -1.0755 -1.7254  0.4848
18783TIP3    H277841   3.899   0.129  10.888 -0.0471 -0.4882 -0.0632
18784TIP3   OH277842   3.698   3.304  11.900  0.0194  0.1790  0.5020
18784TIP3    H177843   3.747   3.236  11.947 -0.8833 -2.2532 -1.8377
18784TIP3    H277844   3.755   3.328  11.826 -0.7038  0.1726 -0.0641
18785TIP3   OH277845   4.951   3.227   3.225  0.6888  0.2813  0.0161
18785TIP3    H177846   4.964   3.277   3.306 -1.2835  0.8750  0.0272
18785TIP3    H277847   5.037   3.228   3.183  1.8287 -0.2255  2.1677
18786TIP3   OH277848   1.723   0.653  13.305 -0.0782  0.5176  0.5292
18786TIP3    H177849   1.747   0.561  13.294  0.2311  0.8248 -1.7644
18786TIP3    H277850   1.665   0.654  13.382 -2.3216 -2.0000 -0.9715
18787TIP3   OH277851   3.233   0.553  14.521 -0.2311 -0.3179 -0.7006
18787TIP3    H177852   3.218   0.502  14.600 -1.1285  0.9995  0.0191
18787TIP3    H277853   3.260   0.639  14.553  0.5417 -0.1152 -1.8582
18788TIP3   OH277854   0.945   0.848   0.661 -0.9787  0.0125 -0.2363
18788TIP3    H177855   0.897   0.926   0.689 -0.6741  0.1252 -0.0292
18788TIP3    H277856   0.966   0.864   0.570  2.2705  1.8166  0.6919
18789TIP3   OH277857   3.935   5.809   1.858 -0.2157 -0.3386 -0.5495
18789TIP3    H177858   3.942   5.879   1.923  0.2291  0.2040 -1.1651
18789TIP3    H277859   4.026   5.785   1.840 -0.3609 -1.0151 -0.4191
18790TIP3   OH277860   2.067   4.190  15.961  0.5441  0.1611  0.2543
18790TIP3    H177861   2.144   4.213  16.014  0.7027  0.0605  0.0708
18790TIP3    H277862   2.083   4.233  15.877  0.8333 -0.5915 -0.0868
18791TIP3   OH277863   1.336   4.925  17.197 -0.4898  0.3020  0.1771
18791TIP3    H177864   1.404   4.951  17.136 -1.7013  1.5256 -0.7200
18791TIP3    H277865   1.378   4.860  17.254  1.2489  0.6408 -0.6490
18792TIP3   OH277866   5.766   2.169   0.343 -0.0879 -0.0037 -0.0033
18792TIP3    H177867   5.836   2.234   0.334 -0.1553  0.0902  0.1555
18792TIP3    H277868   5.792   2.098   0.283 -0.1298  0.2664 -0.3459
18793TIP3   OH277869   3.139   0.215   2.624 -0.5729 -0.3434 -0.1691
18793TIP3    H177870   3.163   0.250   2.710 -0.0572 -1.0827  0.0033
18793TIP3    H277871   3.082   0.140   2.644  0.1375 -0.9625 -0.4420
18794TIP3   OH277872   4.200   1.630  14.366 -0.1815 -0.1027 -0.4137
18794TIP3    H177873   4.163   1.687  14.298  1.1926  2.5868  0.9570
18794TIP3    H277874   4.138   1.636  14.438  0.2973  0.2163 -0.0233
18795TIP3   OH277875   3.596   3.613   4.200  0.3787 -0.2795  0.4906
18795TIP3    H177876   3.553   3.619   4.115  0.4773  1.1473  0.5211
18795TIP3    H277877   3.657   3.539   4.191 -2.2007 -2.5773  0.5402
18796TIP3   OH277878   0.438   3.674  12.900 -0.9211  0.2705  0.0499
18796TIP3    H177879   0.374   3.691  12.969 -0.8488  0.1074  0.1572
18796TIP3    H277880   0.522   3.671  12.945 -0.8465  0.4005 -0.0790
18797TIP3   OH277881   0.061   1.961  11.250 -0.4343  0.1529  0.1005
18797TIP3    H177882   0.006   1.898  11.204 -1.4497 -1.5294  3.3408
18797TIP3    H277883   0.150   1.941  11.221 -1.0000 -0.8300 -1.0530
18798TIP3   OH277884   3.000   5.264  13.879 -0.7418  0.3768  0.2657
18798TIP3    H177885   2.943   5.235  13.808 -0.0299 -0.9364  0.2045
18798TIP3    H277886   2.996   5.359  13.875  0.4544  0.3964 -2.5312
18799TIP3   OH277887   3.559   0.185  10.698 -0.7286 -0.3250 -0.0438
18799TIP3    H177888   3.557   0.092  10.676 -2.4963 -0.0742 -1.1462
18799TIP3    H277889   3.534   0.229  10.617  1.2284  1.2249  0.1184
18800TIP3   OH277890   6.602   4.526  11.193  0.3994  0.2858  0.0659
18800TIP3    H177891   6.667   4.486  11.249 -2.1494  0.3511  3.3666
18800TIP3    H277892   6.616   4.620  11.203  0.5445  0.2894 -0.1713
18801TIP3   OH277893   0.153   1.823  14.382 -0.2824 -0.7702 -0.2706
18801TIP3    H177894   0.062   1.797  14.393 -0.1919 -0.7351  0.6054
18801TIP3    H277895   0.203   1.744  14.403 -0.0665 -0.4053  0.5985
18802TIP3   OH277896   2.765   2.029  14.074  0.6817 -0.3465  0.1082
18802TIP3    H177897   2.824   2.061  14.006  0.1470 -0.2451 -0.3224
18802TIP3    H277898   2.784   2.084  14.150  0.6612  0.1518 -0.2383
18803TIP3   OH277899   2.072   1.101  14.020  0.5970 -0.6918 -0.4855
18803TIP3    H177900   2.076   1.178  13.964 -0.6634 -0.1505  0.1239
18803TIP3    H277901   2.149   1.108  14.076  0.1976  0.4460 -0.0545
18804TIP3   OH277902   4.075   4.092   0.909 -0.0169  0.3605  0.0467
18804TIP3    H177903   4.002   4.138   0.868  0.2192 -0.1357 -0.9379
18804TIP3    H277904   4.106   4.030   0.844  1.6329  0.9170  0.2306
18805TIP3   OH277905   5.585   5.450   5.776  0.2846  0.2306 -0.2651
18805TIP3    H177906   5.657   5.495   5.821  1.1955 -0.5383 -0.9239
18805TIP3    H277907   5.511   5.511   5.784  0.9885  1.0333  0.4320
18806TIP3   OH277908   4.423   1.072  16.806  0.0971  0.0136  0.3111
18806TIP3    H177909   4.475   1.128  16.748  0.6331 -0.3170  0.4659
18806TIP3    H277910   4.488   1.022  16.856 -0.3233  1.1271  2.0469
18807TIP3   OH277911   0.707   2.835   3.397  0.0405 -0.2775 -0.2069
18807TIP3    H177912   0.670   2.771   3.458  0.5365 -1.7383 -1.3667
18807TIP3    H277913   0.743   2.782   3.326  2.3371  1.1690 -0.2247
18808TIP3   OH277914   2.882   1.519   2.553  0.3804  0.1411 -0.4817
18808TIP3    H177915   2.805   1.561   2.590  0.3562 -0.8635  0.6961
18808TIP3    H277916   2.922   1.474   2.627  1.5018 -0.2426 -1.2924
18809TIP3   OH277917   2.939   2.227   5.572  0.7032  0.2255  0.7535
18809TIP3    H177918   2.878   2.186   5.511  0.2378  2.4479 -0.3937
18809TIP3    H277919   2.897   2.217   5.658 -0.3309  0.0368  0.2470
18810TIP3   OH277920   6.380   2.732   6.228 -0.0263  0.0696  0.0629
18810TIP3    H177921   6.379   2.644   6.266  2.1557 -0.7116 -1.4664
18810TIP3    H277922   6.417   2.787   6.296  0.0308 -0.5107  0.5117
18811TIP3   OH277923   2.544   3.248   0.676  0.1154 -1.0604 -0.6555
18811TIP3    H177924   2.561   3.245   0.582 -0.7725  0.3682 -0.9034
18811TIP3    H277925   2.596   3.176   0.713  1.8693 -0.5719 -2.0249
18812TIP3   OH277926   0.522   3.076   2.413  0.0588  0.0263  0.0010
18812TIP3    H177927   0.468   3.153   2.398 -1.6932 -0.8394  1.4990
18812TIP3    H277928   0.575   3.098   2.489  0.6193  0.2404 -0.4376
18813TIP3   OH277929   6.321   2.910  11.239 -0.5854 -0.6094 -0.5104
18813TIP3    H177930   6.226   2.917  11.250 -0.6696  0.5169 -1.6766
18813TIP3    H277931   6.352   3.001  11.246  0.3452 -0.9139 -0.6336
18814TIP3   OH277932   4.418   1.957   4.292  0.0930 -0.4013 -0.1231
18814TIP3    H177933   4.352   1.939   4.359 -0.2460  1.0733 -0.0273
18814TIP3    H277934   4.501   1.958   4.340 -0.1735  0.8834  0.3467
18815TIP3   OH277935   4.365   2.079  11.910  0.4892  0.6213  0.1672
18815TIP3    H177936   4.387   2.099  11.819 -0.2843  1.5804  0.1727
18815TIP3    H277937   4.376   1.984  11.917 -0.1817  0.4204 -1.1497
18816TIP3   OH277938   5.656   0.856   0.796 -0.0504 -0.2929  0.3984
18816TIP3    H177939   5.640   0.888   0.707 -0.3548 -1.9316 -0.1786
18816TIP3    H277940   5.668   0.935   0.848 -0.7673  0.7387 -0.9280
18817TIP3   OH277941   4.507   3.318   1.430 -0.1671  0.1467 -0.2443
18817TIP3    H177942   4.505   3.362   1.345 -1.3539  1.6318  0.4911
18817TIP3    H277943   4.478   3.229   1.412 -2.2312  0.9418 -1.1767
18818TIP3   OH277944   3.436   3.235  16.900 -0.0836 -0.1308 -0.1416
18818TIP3    H177945   3.374   3.290  16.949 -1.0919 -2.0848  0.8825
18818TIP3    H277946   3.501   3.297  16.867 -1.7497  1.8189 -0.0041
18819TIP3   OH277947   6.508   3.620  10.844 -0.8051 -0.6483 -0.0005
18819TIP3    H177948   6.554   3.580  10.770 -1.5789  0.8232 -1.3716
18819TIP3    H277949   6.577   3.642  10.906  0.0188 -1.0035 -0.7620
18820TIP3   OH277950   5.287   5.341   6.097 -0.1145 -0.1412 -0.2110
18820TIP3    H177951   5.335   5.422   6.110  0.4059 -0.7446  1.9399
18820TIP3    H277952   5.271   5.338   6.002  1.7092  1.4012 -0.6363
18821TIP3   OH277953   0.999   5.336   4.849 -0.0224 -0.0674 -0.3865
18821TIP3    H177954   1.073   5.288   4.886 -2.1635 -2.6456  0.9258
18821TIP3    H277955   1.021   5.345   4.756  2.0364 -0.4568  0.0115
18822TIP3   OH277956   2.789   0.501   3.665 -0.9162  0.0429 -0.4137
18822TIP3    H177957   2.729   0.451   3.608  0.5018 -1.6050 -0.5369
18822TIP3    H277958   2.873   0.456   3.656 -0.2863  0.6617  1.8311
18823TIP3   OH277959   1.435   3.525   3.194  0.3264  0.2683 -0.2546
18823TIP3    H177960   1.347   3.508   3.160 -0.6051  0.1446  2.0552
18823TIP3    H277961   1.477   3.439   3.194  0.9671  0.5146 -2.5418
18824TIP3   OH277962   5.253   1.266  11.558 -0.2271 -0.1599  0.2591
18824TIP3    H177963   5.327   1.220  11.597 -0.2435 -0.5832 -0.1932
18824TIP3    H277964   5.275   1.273  11.465 -0.7744 -0.3384  0.1072
18825TIP3   OH277965   1.935   2.930  12.285  0.4399 -0.4222  0.3730
18825TIP3    H177966   1.855   2.978  12.261  1.2123  0.4290 -0.6254
18825TIP3    H277967   1.943   2.944  12.379 -0.8955 -1.0196  0.5993
18826TIP3   OH277968   4.101   0.311  12.631  0.9477  0.0805  0.2089
18826TIP3    H177969   4.059   0.382  12.583  1.5771 -0.2181 -0.8289
18826TIP3    H277970   4.058   0.310  12.716  0.5978  1.3831  0.0692
18827TIP3   OH277971   1.542   6.156   1.465  0.5671 -0.3525  0.4530
18827TIP3    H177972   1.568   6.231   1.411  2.6279 -0.8155  0.7062
18827TIP3    H277973   1.488   6.194   1.534  1.4647  0.9060  0.5107
18828TIP3   OH277974   2.794   4.359   3.699 -0.1986 -0.2313  0.2599
18828TIP3    H177975   2.779   4.372   3.605  1.2660  0.3508  0.0763
18828TIP3    H277976   2.738   4.423   3.742 -1.8050 -1.3183 -0.1425
18829TIP3   OH277977   4.252   4.047  16.843 -0.2108 -0.3083  0.6679
18829TIP3    H177978   4.243   3.974  16.782  1.3781  1.0772 -1.3889
18829TIP3    H277979   4.296   4.010  16.919  0.2208 -1.5612 -0.1648
18830TIP3   OH277980   1.923   1.155  11.979 -0.4948 -0.6223  0.1771
18830TIP3    H177981   1.931   1.069  11.936  0.2762 -1.1197  1.2696
18830TIP3    H277982   1.932   1.136  12.072  0.0804  0.7011  0.4095
18831TIP3   OH277983   5.874   2.618  16.246  0.0510 -0.3764 -0.0410
18831TIP3    H177984   5.920   2.537  16.226  2.0274  0.8029 -0.5091
18831TIP3    H277985   5.790   2.589  16.283 -0.4298 -2.6267 -2.6007
18832TIP3   OH277986   1.283   1.721   4.214 -0.4884 -0.0279 -0.3713
18832TIP3    H177987   1.254   1.705   4.124 -2.4129  1.2705 -0.0339
18832TIP3    H277988   1.369   1.761   4.205 -0.0307 -1.1984 -1.5530
18833TIP3   OH277989   1.332   2.524   0.535  0.4754 -0.3033  0.2688
18833TIP3    H177990   1.345   2.458   0.604  1.0072 -0.4349  0.0504
18833TIP3    H277991   1.242   2.510   0.505 -0.1972  0.5545  1.7689
18834TIP3   OH277992   2.645   4.841  11.294  0.2485 -0.0805 -0.4107
18834TIP3    H177993   2.585   4.871  11.226  0.9170  0.4504 -0.7789
18834TIP3    H277994   2.688   4.921  11.325 -2.3386  0.2780  2.9883
18835TIP3   OH277995   5.197   5.055   2.113  0.8365 -0.0049  0.6142
18835TIP3    H177996   5.135   4.998   2.067  1.8671 -2.1507  1.7033
18835TIP3    H277997   5.142   5.120   2.156 -0.4220 -0.1790 -0.6354
18836TIP3   OH277998   0.231   4.372   0.698 -0.3940 -1.0055 -0.5122
18836TIP3    H177999   0.157   4.366   0.638  0.3326 -1.2281 -1.4055
18836TIP3    H278000   0.307   4.382   0.641  0.1804  0.2163  0.4092
18837TIP3   OH278001   1.591   0.707  15.799 -0.2721 -0.9625  0.1254
18837TIP3    H178002   1.661   0.682  15.860  0.0297 -0.8359 -0.1662
18837TIP3    H278003   1.594   0.640  15.731 -0.8114 -1.2766  0.4041
18838TIP3   OH278004   0.423   4.282  11.123 -0.1045 -0.1895 -0.4788
18838TIP3    H178005   0.391   4.193  11.115  0.8065 -0.4200 -1.7766
18838TIP3    H278006   0.443   4.309  11.034  1.3339  0.6578  0.0672
18839TIP3   OH278007   1.208   1.350   0.849  0.0881 -0.1161 -0.4033
18839TIP3    H178008   1.264   1.325   0.923 -1.0767  1.7228  1.1811
18839TIP3    H278009   1.149   1.275   0.838 -1.8218  0.7302  2.7255
18840TIP3   OH278010   0.617   0.304  12.881  0.2062 -0.0550  0.8456
18840TIP3    H178011   0.561   0.361  12.933  1.3995  1.1173  0.8732
18840TIP3    H278012   0.556   0.241  12.841 -0.9761  0.4386  1.8211
18841TIP3   OH278013   0.038   5.930   2.721  0.3943  0.1316 -0.3997
18841TIP3    H178014  -0.022   5.962   2.789 -0.4034  0.0506 -1.0419
18841TIP3    H278015   0.120   5.976   2.737 -0.1687  1.0781 -0.1606
18842TIP3   OH278016   1.086   1.510   3.449 -0.2561 -0.1839  0.3469
18842TIP3    H178017   1.148   1.466   3.390  0.4148  0.3745  0.6209
18842TIP3    H278018   1.023   1.552   3.390  1.4352  1.8828 -0.0870
18843TIP3   OH278019   6.807   4.719  12.197  0.0944  0.1803  0.5859
18843TIP3    H178020   6.716   4.742  12.216 -0.6720 -2.1700  0.1085
18843TIP3    H278021   6.856   4.749  12.274 -1.0903  1.3243  0.9336
18844TIP3   OH278022   3.496   2.806  15.211  0.1551 -0.0487 -0.4602
18844TIP3    H178023   3.453   2.828  15.128  2.4312  1.8733 -1.2540
18844TIP3    H278024   3.574   2.756  15.184  0.2054 -0.5828  0.6397
18845TIP3   OH278025   5.699   5.564  16.190  0.4987  0.0282  0.5756
18845TIP3    H178026   5.778   5.511  16.188  1.0471  0.8250 -1.6021
18845TIP3    H278027   5.729   5.653  16.173 -0.8238  0.3465 -0.3194
18846TIP3   OH278028   1.793   0.761  12.200  0.3506  0.0505  0.0432
18846TIP3    H178029   1.837   0.812  12.131  0.5779  0.7447  0.6926
18846TIP3    H278030   1.708   0.737  12.161  0.4965  0.3884 -0.4989
18847TIP3   OH278031   4.397   0.472   0.485 -0.2098  0.2657 -0.0466
18847TIP3    H178032   4.341   0.402   0.451  1.4723 -1.6703  0.9400
18847TIP3    H278033   4.410   0.450   0.577  2.8478  0.0774 -0.4259
18848TIP3   OH278034   1.874   6.172  14.325  0.0743 -0.0778 -1.1509
18848TIP3    H178035   1.819   6.205  14.254 -0.8336  0.8283 -0.0753
18848TIP3    H278036   1.873   6.242  14.391  1.8429 -0.4001 -0.7259
18849TIP3   OH278037   4.029   2.233   5.421 -0.7013  0.1022 -0.1019
18849TIP3    H178038   4.042   2.144   5.389  2.2159  0.6613 -0.8353
18849TIP3    H278039   3.962   2.270   5.363 -1.8429 -1.5142  0.1253
18850TIP3   OH278040   6.487   2.039  13.358 -0.8399  0.9457 -0.5567
18850TIP3    H178041   6.460   1.951  13.330 -2.1069  0.7407  1.1225
18850TIP3    H278042   6.582   2.038  13.353 -0.6360 -1.4787  1.9542
18851TIP3   OH278043   2.988   6.342   0.508 -0.7213 -0.6080 -0.2081
18851TIP3    H178044   2.995   6.432   0.541 -0.1258 -1.0277  0.8563
18851TIP3    H278045   2.915   6.304   0.557 -0.1149 -1.1043  0.3301
18852TIP3   OH278046   6.321   6.467  15.524 -1.0416 -0.7108  0.2750
18852TIP3    H178047   6.227   6.449  15.527 -1.3917  0.8266 -0.4754
18852TIP3    H278048   6.329   6.549  15.475  0.7947 -1.4692 -0.8318
18853TIP3   OH278049   6.130   5.892  11.254 -0.2421  0.1851  0.6254
18853TIP3    H178050   6.097   5.813  11.297  0.8983  0.6344  2.4325
18853TIP3    H278051   6.196   5.861  11.193 -1.0185 -0.3663  0.0427
18854TIP3   OH278052   4.238   4.239  13.339  0.5808 -0.2482  0.0292
18854TIP3    H178053   4.208   4.277  13.422 -0.4927  0.0217 -0.4677
18854TIP3    H278054   4.219   4.146  13.347  1.0470 -0.3214  0.3233
18855TIP3   OH278055   5.097   6.761   4.712 -0.0799 -0.0097 -0.4872
18855TIP3    H178056   5.048   6.696   4.762  0.4953  0.8045  1.2114
18855TIP3    H278057   5.084   6.843   4.759  1.8368  0.4751 -0.7067
18856TIP3   OH278058   6.637   6.548  12.358 -0.0709  0.5670  0.2176
18856TIP3    H178059   6.687   6.617  12.401  0.0435  0.3640  0.4128
18856TIP3    H278060   6.548   6.582  12.353  0.4792  1.9311 -2.2305
18857TIP3   OH278061   2.781   0.858   2.851 -0.4467 -0.1720  0.5696
18857TIP3    H178062   2.738   0.865   2.766  2.2646 -0.1651 -0.9406
18857TIP3    H278063   2.714   0.880   2.915 -2.4458  0.3790 -1.5944
18858TIP3   OH278064   0.909   2.984  16.717 -0.2163 -0.0653  0.2399
18858TIP3    H178065   0.893   3.030  16.800  1.3445  0.4616  0.2763
18858TIP3    H278066   0.831   2.931  16.704 -0.5480 -0.0617  1.9843
18859TIP3   OH278067   1.456   5.687   1.257  0.2870 -0.2557 -0.7895
18859TIP3    H178068   1.528   5.630   1.285 -0.0146  0.2491  1.1554
18859TIP3    H278069   1.463   5.764   1.314  0.0310  1.1900 -2.6349
18860TIP3   OH278070   0.476   2.686  15.926  0.0974 -0.6418 -0.2671
18860TIP3    H178071   0.496   2.761  15.983 -1.8496  0.3065 -0.7429
18860TIP3    H278072   0.559   2.667  15.881  0.5125  1.6202 -0.5680
18861TIP3   OH278073   5.947   1.876   3.079  0.0750  0.0889  0.4584
18861TIP3    H178074   5.862   1.911   3.106 -0.1338  0.5318 -0.7412
18861TIP3    H278075   5.934   1.846   2.989  1.6383  1.8518 -0.4255
18862TIP3   OH278076   5.781   1.501  17.130  0.6176  1.1765  0.2599
18862TIP3    H178077   5.835   1.477  17.055 -1.6366  0.1552 -1.1410
18862TIP3    H278078   5.748   1.589  17.109 -1.2171  0.3099 -0.7852
18863TIP3   OH278079   3.818   0.074   5.277 -0.4228 -0.6975 -0.1539
18863TIP3    H178080   3.724   0.087   5.285 -0.7391 -0.8092 -2.6396
18863TIP3    H278081   3.839   0.107   5.189  1.9219 -0.3608  0.4635
18864TIP3   OH278082   2.041   0.073  15.861 -0.0483 -0.1752 -0.2832
18864TIP3    H178083   2.118   0.054  15.915 -1.3347 -1.7527  1.1119
18864TIP3    H278084   2.029   0.167  15.869  0.5508 -0.1915  1.1914
18865TIP3   OH278085   3.738   5.315   2.049 -0.4625  0.3213  0.1214
18865TIP3    H178086   3.726   5.330   2.143 -1.1646 -0.1850  0.1191
18865TIP3    H278087   3.713   5.397   2.008  1.3545  1.0868  0.4585
18866TIP3   OH278088   4.027   1.024   4.307  0.0605  0.0978 -0.0410
18866TIP3    H178089   4.018   0.955   4.371 -0.3133  1.0009  0.9089
18866TIP3    H278090   4.065   0.981   4.230 -0.3197 -1.1713  0.4610
18867TIP3   OH278091   5.913   0.840  16.806 -0.4025  0.4085  0.0571
18867TIP3    H178092   5.903   0.873  16.896 -0.1275 -0.4167  0.4004
18867TIP3    H278093   5.996   0.877  16.776 -1.3512  2.1397 -0.5161
18868TIP3   OH278094   6.450   3.352   5.304  0.2241 -0.5141 -0.0345
18868TIP3    H178095   6.440   3.256   5.301 -0.8232 -0.4048 -0.1851
18868TIP3    H278096   6.370   3.386   5.265  0.0703  0.4576  1.0925
18869TIP3   OH278097   0.483   0.510   5.472  0.2060 -0.3252 -0.3668
18869TIP3    H178098   0.529   0.499   5.556 -0.4411  0.1920  0.0659
18869TIP3    H278099   0.553   0.513   5.407  0.6801 -1.6564  0.0410
18870TIP3   OH278100   4.129   2.777   3.932  0.2825  0.0336  0.1901
18870TIP3    H178101   4.045   2.764   3.977 -0.2785 -0.0973 -0.8490
18870TIP3    H278102   4.195   2.759   3.998 -0.5017  1.2882  1.3703
18871TIP3   OH278103   0.122   4.233  14.175 -0.2897  0.1396 -0.6571
18871TIP3    H178104   0.031   4.227  14.206  0.0754  0.9505  0.6607
18871TIP3    H278105   0.149   4.322  14.196  1.3165 -0.5619  0.4506
18872TIP3   OH278106   4.945   5.288   5.048 -0.0264 -0.3676 -0.4627
18872TIP3    H178107   5.027   5.320   5.010  0.4044 -0.4680  0.3621
18872TIP3    H278108   4.878   5.349   5.015  0.6766  1.0080  0.5184
18873TIP3   OH278109   1.059   6.641   6.443  0.6048 -0.3903  0.4155
18873TIP3    H178110   0.973   6.641   6.484  0.3728  0.9851 -0.0293
18873TIP3    H278111   1.116   6.686   6.506  0.8071 -0.5272  0.3320
18874TIP3   OH278112   6.181   1.811   5.538 -0.2445 -0.2025 -0.5508
18874TIP3    H178113   6.273   1.826   5.561 -0.5662 -0.0807  0.7591
18874TIP3    H278114   6.166   1.866   5.461  0.6917  0.0436 -0.5670
18875TIP3   OH278115   4.299   4.859  11.930 -0.1454 -0.3826 -0.1085
18875TIP3    H178116   4.269   4.891  12.015 -0.2739 -2.7530  0.8121
18875TIP3    H278117   4.218   4.839  11.883 -0.0564  0.1231 -0.4886
18876TIP3   OH278118   6.523   3.335   1.840  0.0911  0.1780  0.0666
18876TIP3    H178119   6.506   3.291   1.923  0.4856 -1.5625 -0.7387
18876TIP3    H278120   6.509   3.428   1.859 -1.1336 -0.3032  1.7325
18877TIP3   OH278121   6.443   1.674   0.331  0.0590 -0.1086  0.2370
18877TIP3    H178122   6.407   1.715   0.410 -1.8157  1.6194 -1.3709
18877TIP3    H278123   6.439   1.744   0.265  0.0710 -1.9116 -1.7603
18878TIP3   OH278124   6.694   4.229   5.476  0.5428 -0.0543 -0.4269
18878TIP3    H178125   6.666   4.267   5.559  2.4638  0.5672  0.0014
18878TIP3    H278126   6.617   4.235   5.419 -0.7091 -0.2068  1.1976
18879TIP3   OH278127   1.744   5.533   0.872  0.3189 -0.3403  0.0255
18879TIP3    H178128   1.698   5.451   0.887 -0.0881  0.2140  2.1631
18879TIP3    H278129   1.754   5.538   0.777 -0.8249 -2.2042 -0.2425
18880TIP3   OH278130   3.198   5.071   1.770  0.0231  0.1702 -0.7920
18880TIP3    H178131   3.178   5.159   1.799  2.6104  0.2577  1.1058
18880TIP3    H278132   3.218   5.023   1.850  0.4812 -1.6247 -1.9228
18881TIP3   OH278133   6.049   0.654   4.026  0.1403 -0.2588  0.3919
18881TIP3    H178134   6.029   0.603   3.948  0.6891 -1.7466  1.1984
18881TIP3    H278135   6.085   0.736   3.993 -1.7147  0.0636 -0.9508
18882TIP3   OH278136   5.538   4.304  11.434  0.0457  0.0701 -0.5245
18882TIP3    H178137   5.615   4.359  11.444  1.1768 -1.7317  1.4052
18882TIP3    H278138   5.539   4.278  11.342  2.8041 -1.3082 -0.2058
18883TIP3   OH278139   1.990   2.487  13.864 -0.2765 -1.1047 -0.1470
18883TIP3    H178140   1.951   2.551  13.923 -2.0663 -0.5356 -1.8689
18883TIP3    H278141   2.022   2.538  13.790 -0.2841 -2.0545 -0.8207
18884TIP3   OH278142   6.708   5.298   5.505  0.0357  0.6434  0.1322
18884TIP3    H178143   6.634   5.238   5.518  0.6770  0.1044  1.4703
18884TIP3    H278144   6.752   5.300   5.589  3.7203 -1.9366 -1.4605
18885TIP3   OH278145   5.830   5.065  17.190  0.3255  0.5420  0.0725
18885TIP3    H178146   5.863   5.005  17.124 -1.0392 -0.5012  0.2962
18885TIP3    H278147   5.795   5.139  17.141 -0.7624 -0.2693 -0.4071
18886TIP3   OH278148   5.712   1.284   0.018  0.3159 -0.6489  0.3193
18886TIP3    H178149   5.688   1.221  -0.050  1.7293 -0.0418 -0.7946
18886TIP3    H278150   5.746   1.359  -0.030  1.0316 -0.0532  1.7004
18887TIP3   OH278151   5.937   5.490   2.284 -0.3786 -0.2673  0.2235
18887TIP3    H178152   6.028   5.493   2.312 -0.8486  1.0903  1.7570
18887TIP3    H278153   5.912   5.582   2.273 -2.1278 -0.4853  1.8739
18888TIP3   OH278154   6.757   0.379  11.434 -0.1671  0.1391  0.3421
18888TIP3    H178155   6.834   0.408  11.385  0.7323  0.0836  1.6580
18888TIP3    H278156   6.730   0.298  11.391  0.1143  0.4891 -0.5214
18889TIP3   OH278157   1.395   4.388  15.350  0.1303 -0.1578  0.3233
18889TIP3    H178158   1.390   4.470  15.302 -1.0130 -0.9042 -0.9202
18889TIP3    H278159   1.306   4.374  15.382 -0.1733 -1.7553 -1.0462
18890TIP3   OH278160   1.944   4.236  13.078 -0.1762 -0.1479 -0.3100
18890TIP3    H178161   1.848   4.235  13.084 -0.1833 -1.4911 -0.2271
18890TIP3    H278162   1.965   4.323  13.046 -1.2788  1.0108  1.8308
18891TIP3   OH278163   0.142   2.225  15.730  0.2523 -0.3422 -0.1900
18891TIP3    H178164   0.124   2.133  15.751  0.0122 -0.2710 -0.0820
18891TIP3    H278165   0.070   2.251  15.673 -1.2948  0.5947  2.0414
18892TIP3   OH278166   1.781   3.988  15.826 -0.6621 -0.5163 -0.4609
18892TIP3    H178167   1.799   4.039  15.906  0.2187  0.1071 -1.0369
18892TIP3    H278168   1.836   3.911  15.834  0.5532  0.2524 -1.1238
18893TIP3   OH278169   2.980   0.424   6.089 -0.1942 -0.2982  0.3590
18893TIP3    H178170   2.990   0.329   6.079 -1.1852 -0.3939  0.2434
18893TIP3    H278171   3.001   0.441   6.181 -0.8810 -0.7525  0.6052
18894TIP3   OH278172   1.589   3.252   1.659 -0.3228  0.2599 -0.1785
18894TIP3    H178173   1.642   3.295   1.726  0.1121 -2.3781  1.2806
18894TIP3    H278174   1.499   3.261   1.691 -0.5566  2.2223 -1.2088
18895TIP3   OH278175   4.175   1.090   1.949 -0.7767 -0.7051  0.1509
18895TIP3    H178176   4.169   1.003   1.909  3.1771 -0.4790 -1.4482
18895TIP3    H278177   4.152   1.151   1.879 -0.5601 -0.4024  0.3387
18896TIP3   OH278178   0.829   1.339  13.786  0.4407  0.0100 -0.2223
18896TIP3    H178179   0.776   1.399  13.838  1.1298  0.6510 -0.2324
18896TIP3    H278180   0.870   1.395  13.720  0.9798 -0.4939 -0.3218
18897TIP3   OH278181   2.837   6.747   5.785  0.0489 -0.6395  0.1304
18897TIP3    H178182   2.748   6.766   5.815 -0.6636 -2.1086 -0.9291
18897TIP3    H278183   2.886   6.827   5.803 -2.3302  1.6748 -2.7013
18898TIP3   OH278184   5.039   5.632  11.740 -0.8008  0.4775 -0.1337
18898TIP3    H178185   5.048   5.542  11.772 -0.3821  0.0990 -1.2810
18898TIP3    H278186   5.016   5.622  11.648  1.5627  1.5473 -0.8976
18899TIP3   OH278187   3.253   2.868  11.892  0.1120  0.0723 -0.5654
18899TIP3    H178188   3.189   2.845  11.959  0.9349 -1.8271 -0.3754
18899TIP3    H278189   3.201   2.901  11.819 -0.8732  1.1088  0.5530
18900TIP3   OH278190   1.540   4.648  10.498  0.8764 -0.1467 -0.2188
18900TIP3    H178191   1.597   4.716  10.461 -0.9654  0.5554 -1.9219
18900TIP3    H278192   1.477   4.696  10.552  0.3874 -0.6542 -0.3283
18901TIP3   OH278193   3.210   1.000  10.825  0.5754  0.0298  0.2130
18901TIP3    H178194   3.251   0.958  10.900  1.4048 -0.9333 -0.7448
18901TIP3    H278195   3.261   1.080  10.811  0.5673  0.0882  0.5126
18902TIP3   OH278196   1.979   2.631  14.396  0.6551 -0.3400 -0.3819
18902TIP3    H178197   1.960   2.711  14.347  2.8974  0.5181 -0.0035
18902TIP3    H278198   1.927   2.563  14.353 -0.5616  1.1326 -1.3319
18903TIP3   OH278199   3.773   2.286  15.092 -0.5006 -0.5092  0.2008
18903TIP3    H178200   3.770   2.191  15.080 -0.2281 -0.6247  0.9458
18903TIP3    H278201   3.734   2.300  15.179 -0.5104  0.0550  0.1064
18904TIP3   OH278202   3.822   6.813   2.191  0.0812 -0.3597  0.4737
18904TIP3    H178203   3.888   6.744   2.196  1.0211  0.5300  0.5258
18904TIP3    H278204   3.794   6.825   2.282 -0.5433 -1.0931  0.3885
18905TIP3   OH278205   4.190   0.783   5.197  0.3340  0.4018 -0.7076
18905TIP3    H178206   4.121   0.725   5.231  1.0686 -0.1875 -0.1977
18905TIP3    H278207   4.247   0.726   5.146  0.6805  0.8042 -0.7743
18906TIP3   OH278208   1.717   4.581   1.416 -0.0721  0.3776  0.0743
18906TIP3    H178209   1.799   4.618   1.450 -0.0839  0.4043  0.0741
18906TIP3    H278210   1.682   4.529   1.489  0.3171 -0.2426 -0.1774
18907TIP3   OH278211   3.358   2.163   5.530 -0.4095 -0.0358 -0.2617
18907TIP3    H178212   3.289   2.117   5.578 -0.3036  1.2427  1.1755
18907TIP3    H278213   3.432   2.166   5.591  0.4873 -0.2076 -1.2935
18908TIP3   OH278214   6.200   5.006  11.741 -0.4967  0.5125  0.7852
18908TIP3    H178215   6.195   5.001  11.645  1.2068 -0.1313  0.6882
18908TIP3    H278216   6.128   4.952  11.772 -0.6199  0.1233 -0.1439
18909TIP3   OH278217   6.111   6.312  11.633 -0.0585 -0.4677 -0.0402
18909TIP3    H178218   6.082   6.377  11.570  1.5945  1.9755  1.5497
18909TIP3    H278219   6.048   6.240  11.625 -1.6022  1.0318 -2.3133
18910TIP3   OH278220   5.394   0.693  15.581  0.0970  0.2402 -0.1070
18910TIP3    H178221   5.388   0.662  15.672  1.2048 -0.7751 -0.3537
18910TIP3    H278222   5.308   0.674  15.543  0.1221 -0.7593  0.3097
18911TIP3   OH278223   5.204   5.691   6.480 -0.1623  0.0821 -0.2472
18911TIP3    H178224   5.176   5.605   6.448 -0.7200  0.4906 -0.8598
18911TIP3    H278225   5.130   5.749   6.463  0.5573  0.8931 -0.7044
18912TIP3   OH278226   4.775   6.552  16.467 -0.1668  0.2562  0.0929
18912TIP3    H178227   4.805   6.587  16.551  0.3550 -1.1242  0.5111
18912TIP3    H278228   4.764   6.458  16.482  0.0796 -0.0498 -1.4062
18913TIP3   OH278229   3.099   4.008  16.661  0.5515 -0.4678  0.0138
18913TIP3    H178230   3.152   3.984  16.737 -0.0091 -0.0045  0.5594
18913TIP3    H278231   3.034   3.938  16.655 -0.7324  0.5539  1.2675
18914TIP3   OH278232   3.638   2.753  14.150  0.3409 -0.4774  0.4463
18914TIP3    H178233   3.726   2.789  14.164 -0.2219  0.6904  1.1405
18914TIP3    H278234   3.653   2.662  14.126  1.7636 -0.1724  0.0732
18915TIP3   OH278235   5.929   3.691   0.773 -0.3885  0.1883  0.2032
18915TIP3    H178236   5.891   3.605   0.791  1.4753 -0.6851  0.1466
18915TIP3    H278237   5.991   3.676   0.702  0.5786  1.4097  0.7415
18916TIP3   OH278238   6.711   5.229  11.984  0.1911  0.1177  0.7399
18916TIP3    H178239   6.624   5.190  11.978  0.1888 -0.0844  1.8580
18916TIP3    H278240   6.740   5.237  11.893 -0.7453 -0.3628  0.3846
18917TIP3   OH278241   1.574   0.179   1.627  0.0080 -0.5326 -0.2506
18917TIP3    H178242   1.588   0.086   1.647 -1.0361 -0.2263  2.3010
18917TIP3    H278243   1.490   0.200   1.669  0.7772  1.8251  0.2341
18918TIP3   OH278244   0.142   6.744  13.843 -0.3516  0.0793 -0.0646
18918TIP3    H178245   0.176   6.808  13.781 -2.2530  1.6038  0.3533
18918TIP3    H278246   0.111   6.672  13.788  0.9178 -0.0809 -0.6121
18919TIP3   OH278247   6.784   5.707   5.881 -0.1610 -0.3622  0.8637
18919TIP3    H178248   6.849   5.768   5.845 -0.9152 -0.1070 -0.1124
18919TIP3    H278249   6.830   5.662   5.952  0.5792  0.9688  1.2641
18920TIP3   OH278250   3.233   4.946  14.431  0.4178 -0.0052  0.2879
18920TIP3    H178251   3.285   4.950  14.511  2.0584 -0.4142 -0.7153
18920TIP3    H278252   3.207   5.037  14.415 -0.6674 -0.0336  1.7235
18921TIP3   OH278253   3.694   0.432   4.654  0.0190  0.4617  0.4945
18921TIP3    H178254   3.715   0.427   4.561 -0.2030  0.4287  0.4457
18921TIP3    H278255   3.611   0.386   4.663  0.5455 -0.4519  0.8755
18922TIP3   OH278256   5.937   0.313  14.151 -0.0063  0.1679  0.0500
18922TIP3    H178257   5.966   0.243  14.210  2.5442  1.9812  1.1511
18922TIP3    H278258   5.916   0.387  14.209 -0.4320  1.0282 -1.1618
18923TIP3   OH278259   6.338   1.778  13.877  0.1496 -0.3712  0.3374
18923TIP3    H178260   6.305   1.866  13.893  0.5863 -0.3831  1.3346
18923TIP3    H278261   6.311   1.759  13.787  0.8018  1.1077 -0.2018
18924TIP3   OH278262   4.276   2.739  13.068 -0.4239 -0.0079  0.3342
18924TIP3    H178263   4.342   2.803  13.042 -1.1661  1.5698  2.0691
18924TIP3    H278264   4.276   2.674  12.998  0.8792  1.5020 -1.1494
18925TIP3   OH278265   4.330   1.255  15.824 -0.4532  0.0550 -0.0521
18925TIP3    H178266   4.411   1.300  15.801  1.4786 -2.5381  1.1050
18925TIP3    H278267   4.279   1.319  15.873  2.0555  1.0755  1.4043
18926TIP3   OH278268   3.719   4.473   2.820 -0.3101  0.1158  0.3847
18926TIP3    H178269   3.794   4.515   2.779 -0.1940  0.7538  1.2136
18926TIP3    H278270   3.712   4.388   2.777 -0.3934  0.8650 -1.1532
18927TIP3   OH278271   1.603   2.775  13.848 -0.3208 -0.0185 -0.0659
18927TIP3    H178272   1.564   2.856  13.816  1.5100  0.7148 -0.5739
18927TIP3    H278273   1.678   2.804  13.901  0.0845 -1.3680  0.1323
18928TIP3   OH278274   2.901   6.332   1.839 -0.3519  0.7319 -0.2779
18928TIP3    H178275   2.993   6.353   1.821 -0.7417  1.8306 -1.1506
18928TIP3    H278276   2.879   6.263   1.777 -0.2423  0.7955 -0.3870
18929TIP3   OH278277   4.256   2.071  16.353 -0.4524  0.2305  0.5421
18929TIP3    H178278   4.261   2.092  16.260  2.4347  0.0588  0.5663
18929TIP3    H278279   4.242   2.155  16.397 -1.2107  0.3915  0.0047
18930TIP3   OH278280   5.568   1.499   4.586  0.6978 -0.4115  0.3677
18930TIP3    H178281   5.511   1.544   4.523  0.5108 -0.7571  0.2896
18930TIP3    H278282   5.645   1.555   4.592 -0.5989  1.3829  2.2745
18931TIP3   OH278283   2.744   1.788   0.255  0.7935 -0.2434  0.3072
18931TIP3    H178284   2.792   1.708   0.234  0.5800 -0.5960  1.1267
18931TIP3    H278285   2.664   1.758   0.298  0.0965  0.3625 -0.5302
18932TIP3   OH278286   0.205   5.275   3.932  0.1736 -0.1609  0.8301
18932TIP3    H178287   0.148   5.335   3.981 -0.7713  0.0872 -0.5352
18932TIP3    H278288   0.146   5.223   3.878  1.2210  0.1945 -0.7269
18933TIP3   OH278289   0.820   0.888  13.378  0.1586 -0.3945 -0.4839
18933TIP3    H178290   0.875   0.882  13.300  1.1456  1.0797  0.0652
18933TIP3    H278291   0.881   0.881  13.451 -0.6896 -1.1999  0.1656
18934TIP3   OH278292   2.045   1.667  10.724 -0.3609  0.4036 -0.1559
18934TIP3    H178293   2.014   1.691  10.637  0.3534  1.0380 -0.2352
18934TIP3    H278294   2.071   1.575  10.715 -3.4769 -0.6406  0.2592
18935TIP3   OH278295   4.361   6.746  16.326 -0.5581  0.1594  0.5173
18935TIP3    H178296   4.446   6.773  16.360  1.5994 -1.9601 -2.6501
18935TIP3    H278297   4.322   6.827  16.291 -0.2108  1.2571  2.5429
18936TIP3   OH278298   1.125   5.408   5.733 -0.1082 -0.4336 -0.0500
18936TIP3    H178299   1.135   5.459   5.652  1.4608 -1.1707 -0.3474
18936TIP3    H278300   1.144   5.318   5.707 -1.3496 -0.9618  0.7946
18937TIP3   OH278301   6.219   2.086   3.040 -0.3784  0.0965 -0.9905
18937TIP3    H178302   6.302   2.133   3.049  0.3032 -1.0666 -1.0013
18937TIP3    H278303   6.244   1.995   3.026 -1.6718 -0.3822 -0.3758
18938TIP3   OH278304   4.850   2.633   1.878  0.4824  0.3824 -0.4094
18938TIP3    H178305   4.903   2.710   1.898 -0.2390  0.7203  0.2403
18938TIP3    H278306   4.770   2.645   1.929  0.2099 -0.6197 -0.5824
18939TIP3   OH278307   3.262   1.819  15.982  0.0941 -0.0856 -0.1703
18939TIP3    H178308   3.245   1.913  15.974 -0.7351 -0.3763 -3.3356
18939TIP3    H278309   3.356   1.810  15.969  0.4339  0.3612  1.7013
18940TIP3   OH278310   2.971   6.064   2.477  0.0510  0.6867  0.2752
18940TIP3    H178311   2.884   6.082   2.441 -0.1193  0.1167  0.3982
18940TIP3    H278312   2.960   6.074   2.572 -0.3443 -1.1696  0.4707
18941TIP3   OH278313   0.712   2.426  12.484  0.0337  0.2195  0.3380
18941TIP3    H178314   0.736   2.415  12.576  3.2226  2.0974 -0.1250
18941TIP3    H278315   0.787   2.394  12.435 -0.0526  2.5019 -1.4629
18942TIP3   OH278316   0.730   4.257  14.734 -0.6328  0.3809  0.4020
18942TIP3    H178317   0.767   4.339  14.766  1.8001 -0.9292  1.1974
18942TIP3    H278318   0.639   4.259  14.762 -1.1894  3.5306 -1.1293
18943TIP3   OH278319   6.371   3.785   1.635 -0.3380  0.0763  0.1809
18943TIP3    H178320   6.381   3.709   1.693  1.1691  1.5745  2.0476
18943TIP3    H278321   6.297   3.834   1.672 -3.1759 -1.7066 -2.6450
18944TIP3   OH278322   5.720   3.907   0.163  0.2234 -0.3377  0.0851
18944TIP3    H178323   5.687   3.979   0.216  0.1901  0.5603 -1.1043
18944TIP3    H278324   5.815   3.915   0.169  0.2394  0.4219 -0.7811
18945TIP3   OH278325   5.463   0.764  14.393 -0.1741 -0.1728  0.1679
18945TIP3    H178326   5.389   0.725  14.346 -1.8350  1.6778  1.0761
18945TIP3    H278327   5.483   0.843  14.343 -2.0747  1.9147  2.4446
18946TIP3   OH278328   0.542   2.537  10.666  0.5910  0.0637  0.1891
18946TIP3    H178329   0.572   2.498  10.748 -0.7830  0.0261  0.6967
18946TIP3    H278330   0.450   2.514  10.661 -0.1415  2.7143  0.1912
18947TIP3   OH278331   5.563   4.128   1.422  0.3759 -0.0566 -0.2350
18947TIP3    H178332   5.514   4.207   1.445  1.3245  0.5547 -0.2991
18947TIP3    H278333   5.521   4.059   1.474  0.2142  0.6635  0.6272
18948TIP3   OH278334   4.915   4.296   3.503 -0.3088 -0.1324  0.0125
18948TIP3    H178335   4.876   4.307   3.590 -1.7752  0.0065 -0.6447
18948TIP3    H278336   4.847   4.323   3.442  0.5022 -0.7635 -1.2144
18949TIP3   OH278337   0.844   2.940   5.295 -0.2471 -0.3170  0.1443
18949TIP3    H178338   0.877   2.850   5.291 -0.9308 -0.7116  2.1834
18949TIP3    H278339   0.911   2.988   5.343 -0.4308 -0.0038  0.0890
18950TIP3   OH278340   6.079   4.204  11.877 -0.1889 -0.4244  0.5826
18950TIP3    H178341   6.094   4.135  11.813  2.8012  0.4909  0.1443
18950TIP3    H278342   5.992   4.238  11.856  0.6562 -0.1510 -3.0676
18951TIP3   OH278343   5.602   4.776   5.728  0.1112 -0.0616  0.0873
18951TIP3    H178344   5.513   4.773   5.692  0.3876 -0.1193 -0.6175
18951TIP3    H278345   5.594   4.741   5.816 -0.3385 -1.4340 -0.4730
18952TIP3   OH278346   5.173   5.898   4.112 -0.2697 -0.0827  0.3106
18952TIP3    H178347   5.198   5.828   4.052  0.3961  0.1179  0.3510
18952TIP3    H278348   5.175   5.977   4.057 -2.4675 -0.2595 -0.1257
18953TIP3   OH278349   4.423   0.136   5.604  0.2815  0.4122 -0.0651
18953TIP3    H178350   4.423   0.231   5.598  0.9916  0.5403  1.3478
18953TIP3    H278351   4.500   0.108   5.555  0.2631  0.5877 -0.1935
18954TIP3   OH278352   2.733   4.736  14.963  0.0598 -0.1479  0.2838
18954TIP3    H178353   2.801   4.770  14.905 -0.7934  0.2832 -0.4835
18954TIP3    H278354   2.726   4.802  15.033 -0.2189  0.2784 -0.1429
18955TIP3   OH278355   5.466   6.391  12.266  0.2729  0.1266  0.0748
18955TIP3    H178356   5.473   6.480  12.301  0.2020 -0.5986  1.9993
18955TIP3    H278357   5.392   6.395  12.206  2.5936  2.2955 -2.9950
18956TIP3   OH278358   4.928   1.698   0.652  0.4245 -0.0294 -0.3054
18956TIP3    H178359   4.895   1.721   0.739  0.2998  0.9656 -0.6106
18956TIP3    H278360   5.023   1.690   0.665  0.5373  1.2046 -0.3009
18957TIP3   OH278361   6.435   3.863   3.292  0.0233 -0.2628  0.6275
18957TIP3    H178362   6.399   3.951   3.298  1.2649  0.7250 -3.3682
18957TIP3    H278363   6.439   3.845   3.198 -0.3264 -4.7076  1.2630
18958TIP3   OH278364   2.953   4.276  16.746  0.3671 -0.1952 -0.0634
18958TIP3    H178365   2.977   4.276  16.653 -0.6954 -0.9368 -0.3624
18958TIP3    H278366   3.032   4.247  16.791  1.6748  2.4202 -0.4676
18959TIP3   OH278367   2.102   1.135   4.012  0.7672  0.2960 -0.2639
18959TIP3    H178368   2.197   1.141   4.027  1.1558 -0.1963 -2.2044
18959TIP3    H278369   2.077   1.223   3.984  0.9518  0.0774 -1.1485
18960TIP3   OH278370   4.691   3.171   3.102  0.1269 -0.2293 -0.2474
18960TIP3    H178371   4.780   3.175   3.138 -0.6458  0.8830  1.6580
18960TIP3    H278372   4.634   3.189   3.176 -1.5914  2.3179 -2.0179
18961TIP3   OH278373   0.305   1.411   4.505  0.2973  0.5223  0.4902
18961TIP3    H178374   0.348   1.465   4.439 -0.5513 -0.5101 -0.9688
18961TIP3    H278375   0.226   1.461   4.528  0.0173  0.3855 -0.1346
18962TIP3   OH278376   3.367   1.152  16.596 -0.2939 -0.0949 -0.3445
18962TIP3    H178377   3.457   1.173  16.572 -0.2053 -0.9403 -0.8025
18962TIP3    H278378   3.353   1.196  16.680  1.3712 -1.8875  0.9714
18963TIP3   OH278379   2.067   6.083  15.957 -0.2803  0.1060 -0.1108
18963TIP3    H178380   2.139   6.136  15.993 -0.3669 -0.2977  0.6699
18963TIP3    H278381   1.988   6.121  15.996 -0.4926  0.4996 -0.9088
18964TIP3   OH278382   0.575   4.446  16.098 -0.1446 -0.2034  0.1220
18964TIP3    H178383   0.495   4.410  16.059 -0.2232  0.4236 -0.3057
18964TIP3    H278384   0.579   4.408  16.186 -1.8173  1.0685  0.7894
18965TIP3   OH278385   2.242   6.805  14.094  0.1727  0.2527 -0.3483
18965TIP3    H178386   2.263   6.714  14.116 -0.6010  0.3756  1.0032
18965TIP3    H278387   2.327   6.850  14.093  0.5509 -0.4570 -0.9461
18966TIP3   OH278388   5.421   4.279   3.205 -0.1280  0.0336  0.2595
18966TIP3    H178389   5.423   4.371   3.230 -1.9997 -0.5395  3.1003
18966TIP3    H278390   5.491   4.238   3.257  2.3543  0.0608 -2.7750
18967TIP3   OH278391   6.254   5.619   1.282 -0.2914  0.2732  0.2996
18967TIP3    H178392   6.326   5.657   1.333  0.2716 -0.5914  0.1700
18967TIP3    H278393   6.282   5.530   1.264 -0.9093  0.2742 -0.7284
18968TIP3   OH278394   6.112   5.131  13.766 -0.0466 -0.6239  0.2477
18968TIP3    H178395   6.107   5.130  13.861  1.9886 -0.4451  0.3980
18968TIP3    H278396   6.021   5.138  13.737 -0.6810 -0.4533  2.1665
18969TIP3   OH278397   2.375   1.558   0.795 -0.1626  0.4115  0.1965
18969TIP3    H178398   2.356   1.501   0.869  0.6254  0.6365  0.5747
18969TIP3    H278399   2.410   1.499   0.728 -0.9678  0.1938 -0.0372
18970TIP3   OH278400   1.055   5.200  10.610 -0.7001  0.1810 -0.3529
18970TIP3    H178401   1.146   5.214  10.584 -0.5840 -0.7196 -0.4745
18970TIP3    H278402   1.006   5.266  10.562 -0.3626 -0.7388 -2.0445
18971TIP3   OH278403   4.967   6.328  13.255 -0.2501 -0.6427 -0.1249
18971TIP3    H178404   5.011   6.331  13.170  1.2698  0.9820  0.6744
18971TIP3    H278405   4.894   6.389  13.246 -1.2590 -1.8677 -0.8012
18972TIP3   OH278406   0.452   5.867  17.208 -0.2557 -0.0773  0.2401
18972TIP3    H178407   0.471   5.956  17.236 -1.6804  0.2425  0.2258
18972TIP3    H278408   0.358   5.858  17.216 -0.3714 -0.9660 -1.5806
18973TIP3   OH278409   6.198   6.622   1.761 -0.3038  0.0048  0.2507
18973TIP3    H178410   6.216   6.604   1.669 -1.1339  0.8066 -0.0835
18973TIP3    H278411   6.275   6.669   1.792  0.2397 -0.7941  0.1347
18974TIP3   OH278412   3.316   4.163   1.184 -0.1001 -0.0587 -0.1131
18974TIP3    H178413   3.311   4.170   1.089 -1.7159  0.9721  0.0096
18974TIP3    H278414   3.407   4.141   1.202  0.3918  0.4271 -1.8590
18975TIP3   OH278415   4.438   4.398  15.647  0.4572 -0.2557  0.0293
18975TIP3    H178416   4.503   4.462  15.618  1.5004 -0.4959  1.6767
18975TIP3    H278417   4.475   4.313  15.620  1.4298 -0.4786  1.9277
18976TIP3   OH278418   2.607   5.302  12.463  0.2371 -0.0376 -0.2516
18976TIP3    H178419   2.525   5.330  12.422  0.2590  1.4859  0.6503
18976TIP3    H278420   2.583   5.224  12.514 -0.9135  0.9228  0.7677
18977TIP3   OH278421   5.342   2.374  12.614 -0.3984 -0.6407 -0.0795
18977TIP3    H178422   5.429   2.405  12.590 -0.3748 -2.0207 -1.9450
18977TIP3    H278423   5.285   2.408  12.545 -1.1033 -0.9740  0.3289
18978TIP3   OH278424   1.066   1.851  15.539 -0.9081  0.5779 -0.2520
18978TIP3    H178425   1.127   1.881  15.472  1.2584  1.3270  1.8867
18978TIP3    H278426   0.982   1.886  15.513  0.0360  1.6058 -2.0823
18979TIP3   OH278427   4.912   2.607  11.665 -0.4065  0.0854  0.3247
18979TIP3    H178428   4.930   2.686  11.715 -1.2645  0.2584  0.3660
18979TIP3    H278429   4.994   2.589  11.618  0.4265 -0.0895  1.7735
18980TIP3   OH278430   3.374   1.223   0.062  0.3687 -0.0158 -0.1631
18980TIP3    H178431   3.323   1.302   0.042 -0.5209 -0.2658  1.0071
18980TIP3    H278432   3.384   1.224   0.157  1.8160 -0.4496 -0.2855
18981TIP3   OH278433   0.218   0.470  10.685  0.3064  0.0113  0.4067
18981TIP3    H178434   0.309   0.494  10.700  0.7965 -1.8661  0.6025
18981TIP3    H278435   0.219   0.412  10.610 -0.5291 -1.1884  1.2760
18982TIP3   OH278436   6.230   4.895  12.794  0.1435 -0.1205  0.0891
18982TIP3    H178437   6.314   4.869  12.756 -0.2089  1.0254 -1.5654
18982TIP3    H278438   6.251   4.970  12.849  0.4429 -0.9510  1.1564
18983TIP3   OH278439   2.464   1.393   0.579 -0.1045  0.2457 -0.3788
18983TIP3    H178440   2.439   1.474   0.534 -0.2991 -0.1526 -0.9993
18983TIP3    H278441   2.557   1.382   0.560  0.1883  0.8832  0.6036
18984TIP3   OH278442   2.863   5.541  11.585 -0.4340  0.1372 -0.3855
18984TIP3    H178443   2.958   5.545  11.586 -0.3743 -1.1096 -0.2225
18984TIP3    H278444   2.836   5.566  11.673 -0.1560 -1.5078  0.1827
18985TIP3   OH278445   3.252   0.578   3.479  0.5133 -0.1390  0.2391
18985TIP3    H178446   3.202   0.546   3.555  2.1016 -0.2334  1.2837
18985TIP3    H278447   3.253   0.504   3.419 -0.2580 -0.2718  0.3814
18986TIP3   OH278448   1.398   0.469   2.590 -0.5200  0.2248  0.2312
18986TIP3    H178449   1.338   0.395   2.602  0.2040 -0.8613 -2.1159
18986TIP3    H278450   1.392   0.489   2.497  1.1564  1.4983  0.3569
18987TIP3   OH278451   2.167   4.014   4.000 -0.0214  0.2715  0.3651
18987TIP3    H178452   2.230   3.949   4.031 -0.0893 -0.2366 -0.5152
18987TIP3    H278453   2.195   4.033   3.910 -0.2938  1.0977  0.4474
18988TIP3   OH278454   0.905   4.498  11.937 -0.0294 -0.8982  0.1478
18988TIP3    H178455   0.985   4.500  11.885 -0.4581  1.0194 -0.5586
18988TIP3    H278456   0.842   4.548  11.884 -0.7292  0.3927  2.0996
18989TIP3   OH278457   3.395   3.007  15.613  0.5508 -0.9137  0.1366
18989TIP3    H178458   3.373   3.100  15.615 -0.5187 -1.1298 -0.3681
18989TIP3    H278459   3.375   2.980  15.523  0.1736 -1.7770  0.4648
18990TIP3   OH278460   2.190   0.949   3.302 -0.3069 -0.1782  0.3002
18990TIP3    H178461   2.286   0.949   3.306 -0.2628  2.2975  0.9795
18990TIP3    H278462   2.170   0.914   3.216  1.4298  2.7882 -1.4800
18991TIP3   OH278463   1.733   5.469  13.200  0.1874  0.3173 -0.6536
18991TIP3    H178464   1.808   5.492  13.254 -0.0001  1.1972 -0.7508
18991TIP3    H278465   1.764   5.396  13.146  0.0714 -1.2298  1.2984
18992TIP3   OH278466   5.082   0.817   0.108 -0.4453  0.6220  0.0771
18992TIP3    H178467   5.125   0.880   0.050 -1.2363 -0.2478 -1.5292
18992TIP3    H278468   5.133   0.737   0.098 -0.5212  0.4928  0.6985
18993TIP3   OH278469   5.993   2.901   3.845  0.3705 -0.5216 -0.2931
18993TIP3    H178470   5.933   2.959   3.800  0.2826 -1.1202 -0.9587
18993TIP3    H278471   6.036   2.851   3.776 -0.1898 -1.8651  0.2819
18994TIP3   OH278472   3.884   1.000  15.774 -0.3313  0.1780  0.0550
18994TIP3    H178473   3.948   0.999  15.703  1.7831  0.1155  1.8547
18994TIP3    H278474   3.887   0.911  15.810 -0.9747  0.3525  0.5535
18995TIP3   OH278475   2.981   5.325   4.201 -0.8151 -0.2135  0.2809
18995TIP3    H178476   2.944   5.237   4.194  0.9487 -0.8854 -2.1060
18995TIP3    H278477   2.986   5.356   4.110 -1.2682  2.3318  1.0461
18996TIP3   OH278478   5.457   1.313   0.125 -0.2792  0.4481 -0.0608
18996TIP3    H178479   5.546   1.319   0.090  1.2692 -0.2023  3.3617
18996TIP3    H278480   5.412   1.253   0.065  1.7009  0.4218 -1.6287
18997TIP3   OH278481   5.104   5.561   4.721  0.4304  0.1786  0.3869
18997TIP3    H178482   5.026   5.597   4.678  1.6367  2.1288 -0.2829
18997TIP3    H278483   5.133   5.491   4.663  0.3893  0.8702 -0.4807
18998TIP3   OH278484   3.446   4.210  14.262  0.2233  0.8258 -1.3999
18998TIP3    H178485   3.437   4.303  14.245 -0.7683  0.7964 -1.1051
18998TIP3    H278486   3.374   4.189  14.322  1.6823  0.2864  0.2443
18999TIP3   OH278487   0.819   0.142  12.202  0.0314  0.4973  0.2018
18999TIP3    H178488   0.850   0.199  12.131  1.0402 -0.3350 -0.0454
18999TIP3    H278489   0.896   0.128  12.257  0.2599 -1.8986 -0.6061
19000TIP3   OH278490   3.755   5.578  14.958  1.2293  0.1418 -0.2091
19000TIP3    H178491   3.842   5.586  14.997 -0.0120 -0.2733  2.9669
19000TIP3    H278492   3.739   5.483  14.957  0.6678  0.2361 -0.3353
19001TIP3   OH278493   6.089   3.410  13.642 -0.5623  0.0013  0.3009
19001TIP3    H178494   6.135   3.439  13.564 -1.2017 -0.4291 -0.2487
19001TIP3    H278495   6.147   3.433  13.714  0.3550 -0.2402 -0.3465
19002TIP3   OH278496   6.783   4.906  11.606  0.0486  0.8031  0.2451
19002TIP3    H178497   6.744   4.828  11.645  1.3196 -0.2912 -0.5470
19002TIP3    H278498   6.712   4.945  11.554 -0.3954 -0.3148 -0.0208
19003TIP3   OH278499   6.354   4.969   4.732 -0.3810 -0.3413  0.0508
19003TIP3    H178500   6.283   5.027   4.704 -1.0145 -1.1272  0.0054
19003TIP3    H278501   6.401   5.021   4.797  0.0438  0.8277 -1.1421
19004TIP3   OH278502   2.339   4.641  11.412  0.0692  0.1019  0.3254
19004TIP3    H178503   2.402   4.590  11.362  0.8598  1.1550  0.2120
19004TIP3    H278504   2.307   4.707  11.351  0.8470  1.2372  1.0866
19005TIP3   OH278505   6.413   5.099  14.284  0.7107  0.1482 -0.2261
19005TIP3    H178506   6.426   5.027  14.346  0.7715 -0.0408 -0.4556
19005TIP3    H278507   6.443   5.063  14.200 -0.6330 -0.0588 -0.6307
19006TIP3   OH278508   6.460   1.874   1.973  0.4303 -0.1993 -0.2623
19006TIP3    H178509   6.415   1.790   1.984  2.2193 -1.0934  0.5076
19006TIP3    H278510   6.508   1.865   1.891 -0.0728  0.4331 -0.6391
19007TIP3   OH278511   3.261   2.509  17.026 -0.1383 -0.4748  0.0857
19007TIP3    H178512   3.263   2.572  17.099 -2.1436  0.5795 -0.6828
19007TIP3    H278513   3.231   2.427  17.066  0.9576 -0.5408  0.8165
19008TIP3   OH278514   2.004   5.550  16.119 -0.2706 -0.2580  0.5139
19008TIP3    H178515   2.011   5.645  16.118  0.0978 -0.2813 -0.0577
19008TIP3    H278516   2.020   5.524  16.028  0.0579 -0.8949  0.7452
19009TIP3   OH278517   3.040   3.070  11.297 -0.5474 -0.7499 -0.0165
19009TIP3    H178518   3.011   3.148  11.345  1.7158  0.9626 -1.2377
19009TIP3    H278519   3.118   3.041  11.344 -0.1482 -0.9760 -0.7990
19010TIP3   OH278520   2.488   5.817   3.981  0.2838 -0.0217  0.2611
19010TIP3    H178521   2.402   5.856   3.967  0.4872  0.3588  0.0512
19010TIP3    H278522   2.474   5.749   4.047  0.1335  1.1652  1.4889
19011TIP3   OH278523   2.244   3.225   5.758  0.7482 -0.4590  0.1015
19011TIP3    H178524   2.149   3.230   5.741  0.9802 -0.1295 -1.1936
19011TIP3    H278525   2.256   3.272   5.841 -0.1438  0.0299 -0.0326
19012TIP3   OH278526   3.639   0.873  15.501  0.4380  0.0534 -0.1163
19012TIP3    H178527   3.669   0.792  15.541 -0.0768 -0.2207 -0.2766
19012TIP3    H278528   3.613   0.929  15.574 -0.2161 -0.3331 -0.0409
19013TIP3   OH278529   3.097   4.615  15.554 -0.5852  0.2809  0.1744
19013TIP3    H178530   3.088   4.623  15.459  1.1879 -0.7662 -0.1408
19013TIP3    H278531   3.073   4.524  15.573  0.0930  0.1763  0.5566
19014TIP3   OH278532   5.280   0.141   5.521  0.0423  0.2902  0.1437
19014TIP3    H178533   5.193   0.110   5.546 -0.2178 -0.1148 -1.1863
19014TIP3    H278534   5.274   0.236   5.529 -1.8691  0.6721 -3.7168
19015TIP3   OH278535   3.610   2.031   5.299  0.1717 -0.0575  0.0239
19015TIP3    H178536   3.546   2.023   5.227 -0.7544 -2.5219  0.9830
19015TIP3    H278537   3.623   2.125   5.309 -2.4263  0.5179 -1.0073
19016TIP3   OH278538   1.897   5.946  14.660  0.1480 -0.3883 -0.3660
19016TIP3    H178539   1.826   5.947  14.724 -1.3705 -0.4776 -1.9720
19016TIP3    H278540   1.977   5.960  14.711 -0.9887 -0.6266  1.5302
19017TIP3   OH278541   6.747   2.479   4.310 -0.2767  0.4025  0.2694
19017TIP3    H178542   6.699   2.396   4.309 -0.7252  0.6492  0.8896
19017TIP3    H278543   6.679   2.546   4.319  0.2545  0.6895  2.5612
19018TIP3   OH278544   3.683   0.285   5.525 -0.3398 -0.3881 -0.6213
19018TIP3    H178545   3.624   0.336   5.581  0.6475 -0.9734  1.0363
19018TIP3    H278546   3.626   0.242   5.462 -1.5798 -0.1652  0.3124
19019TIP3   OH278547   1.147   0.998  10.778  0.6697  0.1579 -0.0832
19019TIP3    H178548   1.085   1.035  10.841 -0.2715  2.0325 -1.9557
19019TIP3    H278549   1.217   1.063  10.771  0.3972  0.3405 -1.4515
19020TIP3   OH278550   3.684   1.467   2.551  0.0659  0.3558 -0.3086
19020TIP3    H178551   3.718   1.379   2.568  0.1288  0.4536  0.0988
19020TIP3    H278552   3.596   1.467   2.589  0.2571  0.6198  0.1488
19021TIP3   OH278553   0.036   4.503  11.305 -0.1964 -0.0769 -0.5068
19021TIP3    H178554   0.083   4.574  11.261  1.9383 -1.2962 -0.3379
19021TIP3    H278555   0.039   4.526  11.398 -1.2357  0.5476 -0.6140
19022TIP3   OH278556   3.303   1.505   0.100 -0.0042  0.0423 -0.2946
19022TIP3    H178557   3.352   1.547   0.171 -0.1199  1.1986 -0.8660
19022TIP3    H278558   3.294   1.574   0.034  0.4505 -1.1298 -1.6142
19023TIP3   OH278559   2.699   3.378   4.535  0.5853 -0.6550 -0.3514
19023TIP3    H178560   2.784   3.392   4.493  1.3569 -0.9202  1.0744
19023TIP3    H278561   2.675   3.464   4.570  1.2265 -0.9874  0.9528
19024TIP3   OH278562   3.385   6.726  13.972 -0.2559 -0.1378  0.0688
19024TIP3    H178563   3.465   6.673  13.968 -0.5019 -0.7931  2.6128
19024TIP3    H278564   3.334   6.696  13.897  0.4957 -2.0545  0.2619
19025TIP3   OH278565   2.173   4.390   1.408 -0.5483  0.3149  0.6363
19025TIP3    H178566   2.119   4.354   1.339  0.8736 -0.4187 -0.1341
19025TIP3    H278567   2.128   4.471   1.435 -1.5857  0.1338 -0.4990
19026TIP3   OH278568   6.488   2.325  13.673 -0.2245 -0.1305  0.4764
19026TIP3    H178569   6.518   2.235  13.664 -0.2705 -0.1412  0.4360
19026TIP3    H278570   6.557   2.377  13.631 -2.1399 -0.3864 -3.3456
19027TIP3   OH278571   5.224   1.197   4.617  0.5596  0.1808  0.7089
19027TIP3    H178572   5.262   1.120   4.575 -1.0775  1.4427 -3.5746
19027TIP3    H278573   5.158   1.162   4.676  0.7104 -1.7519 -0.1742
19028TIP3   OH278574   2.101   5.731   0.465  0.1733 -0.4048  0.0859
19028TIP3    H178575   2.014   5.741   0.503 -0.3369 -1.5027 -0.7432
19028TIP3    H278576   2.086   5.685   0.383  1.4757 -0.0040 -0.4034
19029TIP3   OH278577   3.414   4.405   6.047  0.2021 -0.4055  0.5043
19029TIP3    H178578   3.454   4.443   6.125 -0.9744  0.4341  0.7354
19029TIP3    H278579   3.370   4.326   6.078  0.2114 -0.3760  0.5929
19030TIP3   OH278580   5.624   3.161  13.446 -0.9469  0.0513  0.7677
19030TIP3    H178581   5.661   3.072  13.444 -0.4575  0.2179  1.9338
19030TIP3    H278582   5.671   3.205  13.517 -1.9075  0.9288  0.8732
19031TIP3   OH278583   0.837   5.135  15.170  0.3908  0.1491 -0.2596
19031TIP3    H178584   0.842   5.183  15.253 -0.6848 -1.3536  0.7268
19031TIP3    H278585   0.766   5.072  15.183  1.2482 -1.1927 -1.7564
19032TIP3   OH278586   0.248   2.057  13.714  0.0989  0.4289  0.8034
19032TIP3    H178587   0.249   1.978  13.660 -1.2255  0.8590  0.0943
19032TIP3    H278588   0.194   2.034  13.789  0.6522  0.3181  1.1730
19033TIP3   OH278589   6.465   1.382  11.430 -0.4993  0.6849  0.0322
19033TIP3    H178590   6.468   1.457  11.489 -0.5924  0.4940  0.2792
19033TIP3    H278591   6.377   1.383  11.393 -1.0267 -0.2163  1.2239
19034TIP3   OH278592   6.242   5.436  12.587  0.1854  0.1326 -0.2077
19034TIP3    H178593   6.243   5.431  12.492  0.9518  0.2394 -0.2108
19034TIP3    H278594   6.205   5.352  12.615  0.5441 -0.1538 -0.5833
19035TIP3   OH278595   5.099   1.632   4.021  0.4931 -0.4380  0.1328
19035TIP3    H178596   5.075   1.595   4.106  0.6942 -0.4610  0.1780
19035TIP3    H278597   5.066   1.722   4.025  1.2415 -0.1706  0.5605
19036TIP3   OH278598   2.274   3.785   2.374  0.5028  0.1317  0.0016
19036TIP3    H178599   2.200   3.731   2.400  0.5250 -0.2286 -0.6411
19036TIP3    H278600   2.328   3.793   2.453 -0.4934  0.8795  0.6318
19037TIP3   OH278601   2.569   4.217   6.001  0.0020  0.8132 -0.2687
19037TIP3    H178602   2.644   4.169   6.037 -0.0619  1.5715  0.8955
19037TIP3    H278603   2.494   4.162   6.018  0.5239 -1.5015 -4.1988
19038TIP3   OH278604   6.776   6.220   0.683  0.3277 -0.3679 -0.0174
19038TIP3    H178605   6.721   6.176   0.747 -0.1895 -0.2503 -0.3719
19038TIP3    H278606   6.797   6.305   0.723  0.8248 -0.6884  0.4081
19039TIP3   OH278607   6.794   2.834   4.300 -0.3970  0.2246 -0.2125
19039TIP3    H178608   6.746   2.900   4.249  1.9042  2.2931  0.0584
19039TIP3    H278609   6.760   2.842   4.389 -0.1763  1.0611 -0.1925
19040TIP3   OH278610   0.865   1.336  13.216 -0.2313 -0.5236 -0.4611
19040TIP3    H178611   0.921   1.259  13.220 -1.0868 -1.1278  0.4513
19040TIP3    H278612   0.912   1.403  13.266 -0.0613 -0.8445 -0.1906
19041TIP3   OH278613   4.446   0.264   3.163  0.7846  0.2147 -0.7458
19041TIP3    H178614   4.423   0.269   3.070  1.5450  0.3021 -0.9354
19041TIP3    H278615   4.437   0.171   3.185 -1.4494  0.4752 -0.3531
19042TIP3   OH278616   5.993   5.496   0.194  0.5091  0.7218 -0.0212
19042TIP3    H178617   6.057   5.486   0.123  0.8400  1.1738  0.2096
19042TIP3    H278618   5.952   5.410   0.201  0.6629  0.5942 -0.5784
19043TIP3   OH278619   2.401   4.053   2.284 -0.6765 -0.0049 -0.4175
19043TIP3    H178620   2.335   3.999   2.326 -0.9276  0.1280 -0.6364
19043TIP3    H278621   2.362   4.140   2.280  1.1323  1.1932  3.3477
19044TIP3   OH278622   1.587   0.470   3.785 -0.1677 -0.6301 -0.0385
19044TIP3    H178623   1.675   0.501   3.762 -1.0629  1.8351 -0.4357
19044TIP3    H278624   1.602   0.405   3.853  1.9434 -0.0092  0.1796
19045TIP3   OH278625   4.814   2.804   5.320  0.3153  0.7440  0.1968
19045TIP3    H178626   4.883   2.835   5.379  0.9050  0.3398 -0.2641
19045TIP3    H278627   4.783   2.883   5.276  0.0219  1.0198  0.8725
19046TIP3   OH278628   4.093   2.227   5.071 -0.0650  0.5679 -0.1493
19046TIP3    H178629   4.131   2.312   5.047 -1.5652  0.8481 -1.7258
19046TIP3    H278630   4.005   2.248   5.100 -0.4529 -0.4538 -0.5599
19047TIP3   OH278631   5.117   4.104  11.732 -0.2651  0.8235  0.4368
19047TIP3    H178632   5.201   4.064  11.711 -0.2180  1.2963 -0.3112
19047TIP3    H278633   5.140   4.185  11.779 -0.3052  0.8350  0.4374
19048TIP3   OH278634   2.037   0.152  13.570 -0.0224  0.0064 -0.0909
19048TIP3    H178635   1.979   0.173  13.644 -0.4031  0.0741 -0.4077
19048TIP3    H278636   1.978   0.125  13.500  0.4107 -1.2902  0.0248
19049TIP3   OH278637   5.559   4.286   1.738 -0.5354 -0.2974 -0.3604
19049TIP3    H178638   5.545   4.379   1.721  0.8343 -0.0635 -0.2786
19049TIP3    H278639   5.651   4.279   1.761 -0.6610 -1.6567 -0.1846
19050TIP3   OH278640   3.365   1.271  13.566 -0.5912  0.7923  0.3457
19050TIP3    H178641   3.457   1.293  13.577 -0.5360  0.4285  0.6103
19050TIP3    H278642   3.344   1.302  13.477 -0.6219  2.2549  0.8267
19051TIP3   OH278643   2.277   2.594   5.470 -0.1259 -0.5488  0.6006
19051TIP3    H178644   2.295   2.547   5.551 -0.0445 -1.0454  0.2964
19051TIP3    H278645   2.284   2.687   5.494 -0.2573 -0.6887  1.1917
19052TIP3   OH278646   0.799   2.665  10.334 -0.2786  0.1228  0.0781
19052TIP3    H178647   0.796   2.578  10.373  0.5588 -0.4966 -1.1768
19052TIP3    H278648   0.851   2.717  10.395 -2.9487  0.5142  2.1871
19053TIP3   OH278649   4.197   2.889   3.500  0.2554 -0.0339  0.7436
19053TIP3    H178650   4.187   2.921   3.410 -1.1163  0.3468  1.0047
19053TIP3    H278651   4.200   2.969   3.553  1.4991 -0.2447  1.0082
19054TIP3   OH278652   4.991   5.862   3.219 -0.2767 -0.0331  0.0652
19054TIP3    H178653   4.966   5.770   3.219 -1.9716  0.4081 -0.6561
19054TIP3    H278654   4.960   5.895   3.304 -0.1283  0.0064  0.1051
19055TIP3   OH278655   0.831   5.356  14.242  0.0171 -0.2037 -0.5946
19055TIP3    H178656   0.741   5.346  14.273  0.3935  0.7459  0.9346
19055TIP3    H278657   0.880   5.289  14.290  0.6835  1.5632  1.3706
19056TIP3   OH278658   3.352   5.631   1.740  0.1367  0.0039  0.1533
19056TIP3    H178659   3.380   5.718   1.766 -0.8967  0.3084  0.2959
19056TIP3    H278660   3.432   5.587   1.713  0.8426  0.6016  1.2012
19057TIP3   OH278661   6.242   1.387   3.691 -0.0158  0.6852  0.1351
19057TIP3    H178662   6.220   1.451   3.622 -0.2138 -0.0871 -0.5327
19057TIP3    H278663   6.241   1.438   3.772 -1.1534  1.3336 -0.2601
19058TIP3   OH278664   1.385   0.551   2.333  0.4785 -0.1421  0.2445
19058TIP3    H178665   1.434   0.620   2.288  1.0445  0.6003  1.9012
19058TIP3    H278666   1.299   0.552   2.291  0.8452  0.7856 -0.5388
19059TIP3   OH278667   4.229   4.343   5.110  0.1562  0.1738 -0.2423
19059TIP3    H178668   4.286   4.366   5.036 -0.6060  0.1206 -0.8570
19059TIP3    H278669   4.239   4.248   5.119  1.1081  0.3292  0.4540
19060TIP3   OH278670   4.421   0.897  17.212 -0.1218 -0.2484  0.1469
19060TIP3    H178671   4.379   0.920  17.294 -0.0027 -1.7395  0.6623
19060TIP3    H278672   4.514   0.908  17.228 -0.1781  2.8133 -0.9198
19061TIP3   OH278673   6.581   0.054   3.616  0.0315 -0.3771 -0.3459
19061TIP3    H178674   6.641  -0.009   3.576 -0.3921 -0.1909 -1.3147
19061TIP3    H278675   6.521   0.079   3.545  0.3714  1.3444 -0.0900
19062TIP3   OH278676   2.293   5.246  10.458  0.0019  0.4864  0.3061
19062TIP3    H178677   2.198   5.240  10.467  0.0269  1.2152  1.1591
19062TIP3    H278678   2.306   5.292  10.375 -0.4963  3.1585  1.6039
19063TIP3   OH278679   1.064   4.766  13.775 -0.4088 -0.0646 -0.3549
19063TIP3    H178680   1.108   4.844  13.742  0.9097 -0.0619  1.2769
19063TIP3    H278681   1.076   4.770  13.870 -0.4610 -2.1553 -0.2186
19064TIP3   OH278682   0.020   1.897   6.320 -0.1806  0.8229  0.7382
19064TIP3    H178683  -0.041   1.963   6.353  0.8056  1.4798  1.2982
19064TIP3    H278684  -0.034   1.820   6.303 -1.0608  1.1624  1.8870
19065TIP3   OH278685   3.707   2.114   1.581  0.8700  0.3079 -0.2871
19065TIP3    H178686   3.772   2.082   1.643  0.0250 -1.1464 -0.1009
19065TIP3    H278687   3.629   2.130   1.634  0.4261 -0.0472 -0.8191
19066TIP3   OH278688   3.692   2.117  12.516 -0.1413  0.4213 -0.1863
19066TIP3    H178689   3.650   2.202  12.525 -1.4119  0.5300 -4.5562
19066TIP3    H278690   3.676   2.092  12.425  1.0059 -4.0820  0.5732
19067TIP3   OH278691   0.455   3.160   1.557  0.1089  0.1315 -0.4630
19067TIP3    H178692   0.501   3.123   1.632  2.9652  0.7979 -1.7741
19067TIP3    H278693   0.509   3.233   1.528 -1.2011  0.2736 -2.8171
19068TIP3   OH278694   3.260   0.400   1.028 -0.4822  0.0840  0.3513
19068TIP3    H178695   3.253   0.489   1.063  1.0338  0.2822  0.2014
19068TIP3    H278696   3.300   0.411   0.942 -1.3560 -0.6635 -0.1741
19069TIP3   OH278697   1.697   5.701   3.997 -0.3227  0.2166 -0.0675
19069TIP3    H178698   1.651   5.624   3.964  0.3014 -0.0955 -0.2273
19069TIP3    H278699   1.725   5.677   4.085  2.6935 -1.0345 -1.2058
19070TIP3   OH278700   4.535   6.471  12.534  0.5475  0.4709 -0.2942
19070TIP3    H178701   4.459   6.434  12.578  1.0038 -0.5366 -0.3400
19070TIP3    H278702   4.499   6.510  12.454  0.1456 -0.4586 -0.5787
19071TIP3   OH278703   3.696   6.697   0.336  0.0878 -0.1359  0.0743
19071TIP3    H178704   3.655   6.627   0.285  0.0274 -0.0112 -0.0479
19071TIP3    H278705   3.626   6.731   0.392  0.0222  0.0753 -0.1325
19072TIP3   OH278706   1.298   3.367  12.355  0.2762 -0.0595  0.0998
19072TIP3    H178707   1.239   3.441  12.365 -0.1532 -0.4212  0.2837
19072TIP3    H278708   1.241   3.291  12.350  0.6005 -0.2429 -1.8340
19073TIP3   OH278709   0.557   0.788  11.671  0.5979  0.3015  0.2533
19073TIP3    H178710   0.632   0.730  11.655  1.6116  1.6247  0.0774
19073TIP3    H278711   0.596   0.867  11.708 -0.6455  1.2739 -0.4731
19074TIP3   OH278712   6.280   0.741   5.287  0.3648 -0.4028 -0.3593
19074TIP3    H178713   6.270   0.749   5.382 -2.3508  0.2357 -0.6142
19074TIP3    H278714   6.341   0.810   5.263 -0.8023  1.0607  0.6996
19075TIP3   OH278715   0.773   3.362   5.384 -0.5302  0.0666  0.1897
19075TIP3    H178716   0.823   3.315   5.450  0.3006 -0.2293 -0.6325
19075TIP3    H278717   0.839   3.400   5.325 -1.2517 -0.7871 -1.2313
19076TIP3   OH278718   1.527   0.106   2.798  0.4986 -0.0369  0.4212
19076TIP3    H178719   1.597   0.165   2.771 -0.2467  0.3519 -0.7653
19076TIP3    H278720   1.492   0.071   2.716 -2.4619  1.8727  0.7034
19077TIP3   OH278721   4.219   5.195   4.142 -0.7406  0.1227 -0.3047
19077TIP3    H178722   4.292   5.194   4.205  0.9336 -1.1806 -2.1487
19077TIP3    H278723   4.221   5.284   4.105 -0.6946  0.3790  0.2924
19078TIP3   OH278724   6.098   4.352  16.923  0.0001 -0.0636 -0.3082
19078TIP3    H178725   6.154   4.400  16.985 -0.9923  0.6038  0.0877
19078TIP3    H278726   6.150   4.276  16.898  1.3670  0.8715 -0.4443
19079TIP3   OH278727   2.506   3.952   3.836 -0.0178  0.0558 -0.7343
19079TIP3    H178728   2.530   4.037   3.872 -1.1306 -0.2034  0.7235
19079TIP3    H278729   2.589   3.908   3.819  0.5577  1.1394 -0.7892
19080TIP3   OH278730   2.030   2.397  17.237 -0.6115 -0.4021 -0.1391
19080TIP3    H178731   2.035   2.309  17.199  2.2612 -0.6695  0.6536
19080TIP3    H278732   2.045   2.455  17.163 -1.8515 -0.5797 -0.5502
19081TIP3   OH278733   5.888   4.689   1.251 -1.1070 -0.5373 -0.0559
19081TIP3    H178734   5.807   4.639   1.255 -1.6978  0.3921 -0.0359
19081TIP3    H278735   5.861   4.780   1.268 -0.3626  0.1061 -1.9862
19082TIP3   OH278736   6.172   0.697   1.536 -0.5920 -0.4189  0.2066
19082TIP3    H178737   6.153   0.654   1.452 -3.2139 -0.2756  0.6359
19082TIP3    H278738   6.203   0.627   1.593  1.9730 -0.3878 -1.0392
19083TIP3   OH278739   4.466   2.749  12.705  0.2344 -0.0285 -0.6951
19083TIP3    H178740   4.465   2.793  12.790 -0.9255 -1.3243  0.0015
19083TIP3    H278741   4.375   2.723  12.690  0.5625 -0.5174 -1.9711
19084TIP3   OH278742   2.369   5.276   0.772  0.4885 -0.1086  0.1135
19084TIP3    H178743   2.376   5.197   0.720  1.3652 -0.1414  0.2667
19084TIP3    H278744   2.288   5.318   0.742  0.0741 -1.0011 -0.0379
19085TIP3   OH278745   5.116   5.761  14.893  0.5874  0.0111 -0.2567
19085TIP3    H178746   5.191   5.707  14.870  0.2341 -0.4916 -0.2363
19085TIP3    H278747   5.083   5.794  14.809  0.1399 -0.6982 -0.3662
19086TIP3   OH278748   1.411   3.776  15.603  0.0318 -0.3637 -0.7349
19086TIP3    H178749   1.385   3.774  15.695 -1.0405 -1.4265 -1.0346
19086TIP3    H278750   1.495   3.728  15.601  0.9575  1.1511 -0.0896
19087TIP3   OH278751   1.314   1.443  15.315 -1.0147 -0.0892  0.3758
19087TIP3    H178752   1.394   1.466  15.266 -0.3067  1.4772  2.1467
19087TIP3    H278753   1.345   1.425  15.403 -2.7102  1.5355  1.3705
19088TIP3   OH278754   0.523   6.758   4.599  0.3913 -0.8869 -0.5664
19088TIP3    H178755   0.558   6.833   4.551 -0.5591  0.1642  0.3262
19088TIP3    H278756   0.593   6.692   4.596  2.0403  0.7499  0.2621
19089TIP3   OH278757   3.425   3.762  11.648  0.2437 -0.3268 -0.3321
19089TIP3    H178758   3.405   3.741  11.557 -1.3008 -1.2336  0.1775
19089TIP3    H278759   3.516   3.736  11.659  0.3932 -0.4009 -1.5455
19090TIP3   OH278760   6.432   0.283  11.461 -0.3415  0.2576 -0.1061
19090TIP3    H178761   6.507   0.234  11.494  0.4754  0.4201 -1.5946
19090TIP3    H278762   6.423   0.255  11.370 -0.2138  2.3894 -0.8406
19091TIP3   OH278763   3.391   5.235   0.140 -0.3224  0.2804  0.2703
19091TIP3    H178764   3.361   5.307   0.084  1.4353  0.8265 -0.0307
19091TIP3    H278765   3.437   5.175   0.081  1.0236  0.5564  0.9844
19092TIP3   OH278766   5.197   5.098  12.665  0.0978 -0.0664  0.7681
19092TIP3    H178767   5.291   5.104  12.650  0.0525  1.3196  0.8893
19092TIP3    H278768   5.188   5.064  12.754  0.5032  0.6834  1.1022
19093TIP3   OH278769   2.150   4.351   0.962 -0.3721  0.3927 -0.0288
19093TIP3    H178770   2.215   4.376   1.028 -0.3866 -0.7471  0.4347
19093TIP3    H278771   2.173   4.404   0.885  1.1181  0.0258  0.1320
19094TIP3   OH278772   3.401   5.028   2.740 -0.3697  0.2998  0.1093
19094TIP3    H178773   3.324   5.053   2.689 -0.6624 -0.1544  0.3210
19094TIP3    H278774   3.443   4.958   2.689 -0.9369 -0.5030  0.7086
19095TIP3   OH278775   0.916   1.404   1.257  0.4751  0.4001  0.3193
19095TIP3    H178776   0.992   1.461   1.260  0.1612  0.7854  1.3835
19095TIP3    H278777   0.880   1.407   1.346 -0.5609 -0.0695 -0.0682
19096TIP3   OH278778   5.240   0.079  17.166 -0.7177  0.1253  0.4326
19096TIP3    H178779   5.182   0.041  17.232  0.9062  0.1613  1.9461
19096TIP3    H278780   5.239   0.173  17.184 -0.8708  0.2318 -0.1127
19097TIP3   OH278781   4.530   5.361  15.036  0.3184 -0.0235  0.1926
19097TIP3    H178782   4.556   5.451  15.056  0.7886 -0.0128 -0.4572
19097TIP3    H278783   4.531   5.316  15.121  2.0014  0.0900  0.2542
19098TIP3   OH278784   0.821   6.209  16.497  0.1213  0.4556  0.7188
19098TIP3    H178785   0.872   6.129  16.510  1.1170  0.9881  0.2008
19098TIP3    H278786   0.730   6.179  16.493  0.3681 -0.4995  1.7901
19099TIP3   OH278787   0.785   4.667   2.165  0.0950  0.0930  0.2344
19099TIP3    H178788   0.744   4.750   2.142  1.2632  0.4027 -0.8576
19099TIP3    H278789   0.784   4.616   2.084 -1.0903 -1.1954  1.0152
19100TIP3   OH278790   6.084   5.754  16.699 -0.0812  0.2385  0.1123
19100TIP3    H178791   6.114   5.772  16.788  1.6948  0.0582 -0.4137
19100TIP3    H278792   6.088   5.659  16.690  0.7266  0.3248 -0.4793
19101TIP3   OH278793   2.559   0.327  12.063 -0.6785  0.0027 -0.1774
19101TIP3    H178794   2.542   0.233  12.057  0.3391 -0.1918 -0.1556
19101TIP3    H278795   2.485   0.362  12.113  0.0087 -1.1154  1.7277
19102TIP3   OH278796   5.839   5.606   1.501 -0.3379  0.0464 -0.0095
19102TIP3    H178797   5.893   5.638   1.430  0.1357 -1.9385 -0.5908
19102TIP3    H278798   5.825   5.683   1.557  2.0790  0.8883 -0.4467
19103TIP3   OH278799   6.636   4.572   5.515 -0.3550 -0.4709 -0.5965
19103TIP3    H178800   6.709   4.588   5.576  0.1606  0.8930 -1.5120
19103TIP3    H278801   6.678   4.560   5.430 -1.0637 -2.4377 -0.7101
19104TIP3   OH278802   2.386   4.521   1.320  0.0463 -0.3710  0.4502
19104TIP3    H178803   2.303   4.481   1.347 -1.5965  1.9846 -0.8077
19104TIP3    H278804   2.419   4.462   1.252 -0.0435 -1.8869  1.6816
19105TIP3   OH278805   2.557   6.778   3.873 -0.7904 -0.5206 -0.0383
19105TIP3    H178806   2.522   6.867   3.882 -1.9259 -0.9940  0.3133
19105TIP3    H278807   2.482   6.721   3.889 -0.0389 -1.5502 -0.1354
19106TIP3   OH278808   2.803   4.103  16.538 -0.0558 -0.1989  0.4223
19106TIP3    H178809   2.724   4.149  16.510  0.2179  0.9690  1.4848
19106TIP3    H278810   2.851   4.167  16.591  1.1805 -1.1679  0.5199
19107TIP3   OH278811   4.424   4.476  13.576 -0.0760 -0.8609  0.7402
19107TIP3    H178812   4.334   4.466  13.544  0.5739 -3.0770 -0.5710
19107TIP3    H278813   4.423   4.434  13.662 -0.3735 -0.5272  0.9039
19108TIP3   OH278814   6.252   3.146   5.930  0.4786  0.5203  0.1027
19108TIP3    H178815   6.192   3.219   5.944 -3.3719 -2.1907 -0.6173
19108TIP3    H278816   6.255   3.101   6.014 -0.8415 -0.8337 -0.5127
19109TIP3   OH278817   3.706   2.958   5.770  0.4316 -1.2611 -0.5098
19109TIP3    H178818   3.726   3.051   5.781 -2.8642 -0.7355  2.9950
19109TIP3    H278819   3.664   2.953   5.684 -0.9986  0.9229 -0.0138
19110TIP3   OH278820   1.597   2.565  16.003  0.4246  0.1961 -0.2212
19110TIP3    H178821   1.678   2.515  16.010 -1.1372 -3.0227 -2.8075
19110TIP3    H278822   1.616   2.634  15.939  1.5105  0.5952  0.4925
19111TIP3   OH278823   3.220   0.702  15.217  0.1637  1.0422 -0.2031
19111TIP3    H178824   3.149   0.721  15.279  0.0305  1.4014 -0.4585
19111TIP3    H278825   3.282   0.774  15.229  0.0987  1.1559 -0.5417
19112TIP3   OH278826   2.160   3.668  10.811  0.4124 -0.3626 -0.3090
19112TIP3    H178827   2.243   3.625  10.828  0.8157 -0.7377 -2.8566
19112TIP3    H278828   2.147   3.660  10.716 -1.7389  1.1065 -0.2223
19113TIP3   OH278829   4.951   1.474   2.369  0.5887  0.1368 -0.1741
19113TIP3    H178830   5.018   1.541   2.369  1.6863 -0.8795  1.8061
19113TIP3    H278831   4.969   1.422   2.290 -0.8739  2.6095 -2.2770
19114TIP3   OH278832   6.674   5.154   4.843 -0.4847  0.1381 -0.2252
19114TIP3    H178833   6.705   5.242   4.823 -1.5285  0.4040 -0.7649
19114TIP3    H278834   6.645   5.159   4.935 -1.1826  0.5616 -0.4589
19115TIP3   OH278835   3.509   2.206  13.570 -0.2032 -0.4894 -0.2682
19115TIP3    H178836   3.598   2.179  13.590  0.0737 -1.1629 -2.1709
19115TIP3    H278837   3.481   2.146  13.500 -1.2813  1.1857 -1.3439
19116TIP3   OH278838   2.193   1.649  14.784  0.1035  0.4193 -0.5262
19116TIP3    H178839   2.100   1.626  14.785  0.3801 -0.9957 -2.0415
19116TIP3    H278840   2.203   1.713  14.855 -1.6734 -0.7231  0.8625
19117TIP3   OH278841   5.382   1.002   0.844 -0.1362  0.4279 -0.5065
19117TIP3    H178842   5.384   1.027   0.751  0.8238 -2.0484 -1.2279
19117TIP3    H278843   5.450   1.055   0.885  0.8759  0.0770 -1.6648
19118TIP3   OH278844   5.528   2.641  14.707  0.6969  0.7015  0.3738
19118TIP3    H178845   5.516   2.735  14.718  1.0111  0.8932 -0.7757
19118TIP3    H278846   5.507   2.604  14.793 -3.1026  1.4182 -0.0810
19119TIP3   OH278847   6.587   2.297  15.355 -0.6141 -0.6003  0.5080
19119TIP3    H178848   6.605   2.253  15.439  3.1705  0.6455  0.5532
19119TIP3    H278849   6.633   2.244  15.290  0.0841  0.7011 -0.1008
19120TIP3   OH278850   1.185   2.996  12.881 -0.7486 -0.2161  0.1022
19120TIP3    H178851   1.203   2.903  12.868 -0.7612  0.0471 -2.2239
19120TIP3    H278852   1.244   3.022  12.952  2.4616 -1.1244 -1.9962
19121TIP3   OH278853   0.953   4.104  12.879 -0.0129 -0.1927  0.2835
19121TIP3    H178854   0.873   4.126  12.831 -0.1155 -0.3880  0.3608
19121TIP3    H278855   0.940   4.012  12.904  1.8894 -1.5406 -3.0711
19122TIP3   OH278856   0.141   5.401   5.639 -0.2698  0.1764  0.2517
19122TIP3    H178857   0.211   5.370   5.583  0.1306  0.8559  0.3618
19122TIP3    H278858   0.166   5.375   5.728  0.8111  2.0357  0.5429
19123TIP3   OH278859   5.306   5.566  15.071  0.1540 -0.0499  0.2329
19123TIP3    H178860   5.369   5.554  15.000 -0.0251  0.1499  0.0358
19123TIP3    H278861   5.349   5.626  15.132 -0.4922  1.4588 -0.7374
19124TIP3   OH278862   4.918   3.893   3.415  0.8166 -0.3703 -0.2858
19124TIP3    H178863   4.975   3.967   3.434  0.9646 -1.1239  2.8237
19124TIP3    H278864   4.832   3.919   3.450  0.4113 -0.9619 -0.8158
19125TIP3   OH278865   4.758   3.351   4.703 -0.2339 -0.0921  0.0289
19125TIP3    H178866   4.836   3.354   4.647  0.1055  1.1140  0.5364
19125TIP3    H278867   4.770   3.423   4.765 -0.7075 -1.2348  1.5193
19126TIP3   OH278868   4.130   2.301   1.254  0.0220  0.2549  0.0525
19126TIP3    H178869   4.124   2.390   1.288  1.1125  0.0883  0.7152
19126TIP3    H278870   4.222   2.290   1.231  0.8181 -1.9129  3.5259
19127TIP3   OH278871   1.241   2.872  15.255  0.4229 -0.0922 -0.0966
19127TIP3    H178872   1.175   2.823  15.303  0.1084  0.3708 -0.0564
19127TIP3    H278873   1.200   2.955  15.234  0.9267  0.1272 -0.2394
19128TIP3   OH278874   0.310   5.820   2.650  0.4825 -0.1751 -0.0435
19128TIP3    H178875   0.294   5.760   2.723 -0.1574 -0.1807 -0.1846
19128TIP3    H278876   0.313   5.907   2.691 -0.2591 -0.1405 -0.0582
19129TIP3   OH278877   2.914   0.405  11.507  0.1899  0.0468  0.2036
19129TIP3    H178878   2.980   0.473  11.493  0.1591 -0.2855 -2.0158
19129TIP3    H278879   2.926   0.378  11.598  2.1552  1.0024  0.2866
19130TIP3   OH278880   2.358   1.163   5.018  0.0398  0.0699 -0.8856
19130TIP3    H178881   2.414   1.146   5.094 -2.5227  1.9492  1.6383
19130TIP3    H278882   2.337   1.076   4.985  1.8524 -0.7880  0.0571
19131TIP3   OH278883   2.295   5.842  11.469 -0.5431 -0.1635 -0.1915
19131TIP3    H178884   2.354   5.888  11.528 -0.2172  1.7315 -1.8742
19131TIP3    H278885   2.218   5.899  11.462  0.2674  0.7510 -3.0859
19132TIP3   OH278886   1.844   2.027  13.028 -0.1936  0.0722 -0.3455
19132TIP3    H178887   1.824   2.082  13.104  0.5567  1.8227 -1.3609
19132TIP3    H278888   1.862   1.941  13.066 -2.8611  0.0625  1.1800
19133TIP3   OH278889   4.625   6.069   6.326 -0.5669 -0.3452  0.3411
19133TIP3    H178890   4.540   6.086   6.366 -0.6477 -0.1060  0.0700
19133TIP3    H278891   4.683   6.051   6.400 -0.7905 -0.2426  0.5419
19134TIP3   OH278892   0.440   2.008  15.639 -0.3545 -0.3081 -0.1085
19134TIP3    H178893   0.459   2.030  15.730 -2.3949 -0.6126  0.4506
19134TIP3    H278894   0.459   2.088  15.590 -0.7608  0.3804  0.8411
19135TIP3   OH278895   0.619   1.018  13.211 -0.2738 -0.4063 -0.2859
19135TIP3    H178896   0.571   1.068  13.276  1.8031  0.3456  0.7772
19135TIP3    H278897   0.686   0.972  13.261  0.4417 -0.9921 -1.7161
19136TIP3   OH278898   2.077   4.721  13.491  0.4416  0.1698  0.5883
19136TIP3    H178899   1.984   4.740  13.507 -0.2719 -3.0460  0.8387
19136TIP3    H278900   2.111   4.693  13.576  1.4889  0.6822  0.3575
19137TIP3   OH278901   2.940   2.711  13.715 -0.2483 -0.1486 -0.0578
19137TIP3    H178902   2.919   2.749  13.800 -0.1260 -0.6822  0.2211
19137TIP3    H278903   2.965   2.621  13.736 -1.4227 -0.6574 -0.7980
19138TIP3   OH278904   5.384   4.498  15.173 -0.0568  0.1017 -0.1188
19138TIP3    H178905   5.400   4.413  15.131 -0.9340  0.5124 -1.3082
19138TIP3    H278906   5.466   4.546  15.161 -1.1111  1.2816 -3.9915
19139TIP3   OH278907   6.021   1.637  14.452 -0.7580 -0.3661  0.3586
19139TIP3    H178908   6.006   1.731  14.446 -2.9181 -0.6544  0.2922
19139TIP3    H278909   6.047   1.622  14.543 -0.6836  0.2693  0.4441
19140TIP3   OH278910   1.959   1.058  14.491 -0.0237  0.1467  0.3604
19140TIP3    H178911   1.942   1.119  14.420 -0.8309 -1.5084 -0.9277
19140TIP3    H278912   2.054   1.047  14.492 -0.0699 -0.7646 -1.3558
19141TIP3   OH278913   2.240   1.922   3.147  0.1317 -0.0302  0.0526
19141TIP3    H178914   2.300   1.853   3.120  3.1357  2.0163  1.0495
19141TIP3    H278915   2.270   2.000   3.101 -2.8071  0.8177 -0.6148
19142TIP3   OH278916   4.939   3.727   0.614 -0.3288 -0.2074 -0.4797
19142TIP3    H178917   5.003   3.711   0.684  1.7443 -0.1005 -2.2380
19142TIP3    H278918   4.858   3.688   0.646  0.5275 -0.1260  1.9739
19143TIP3   OH278919   0.637   1.635   3.949 -0.4803  0.3231 -0.2024
19143TIP3    H178920   0.729   1.619   3.927 -0.3409 -1.5340  1.4326
19143TIP3    H278921   0.640   1.708   4.011 -0.2508  1.1006 -1.1142
19144TIP3   OH278922   5.509   4.709   0.634 -0.3749 -0.1152 -0.5590
19144TIP3    H178923   5.556   4.793   0.632 -1.7735  0.6905 -1.8722
19144TIP3    H278924   5.571   4.646   0.596  0.1549  0.6362 -0.9774
19145TIP3   OH278925   0.786   6.319   0.568  0.1198  0.1759 -0.4380
19145TIP3    H178926   0.698   6.358   0.569  0.4735  1.0129  0.7127
19145TIP3    H278927   0.835   6.372   0.506  0.3651  1.0560  0.4850
19146TIP3   OH278928   5.943   3.409   1.913  1.0396  0.1777  0.3542
19146TIP3    H178929   6.027   3.362   1.910  1.8209  1.5842 -0.7389
19146TIP3    H278930   5.891   3.359   1.976  2.1328 -1.6419 -0.0897
19147TIP3   OH278931   2.703   3.477   3.793  0.1052  0.2877 -0.1273
19147TIP3    H178932   2.623   3.429   3.772  0.5424  0.4701 -2.4820
19147TIP3    H278933   2.701   3.553   3.735  1.9093  0.3702 -0.1387
19148TIP3   OH278934   0.248   5.262   3.582 -0.6168 -0.4449  0.2271
19148TIP3    H178935   0.239   5.233   3.491  1.6696 -0.0209 -0.1985
19148TIP3    H278936   0.176   5.219   3.628 -3.0471  0.8387 -2.0869
19149TIP3   OH278937   6.393   1.618  14.617 -0.2409 -0.3949  0.1579
19149TIP3    H178938   6.462   1.551  14.621 -0.6574 -0.8349  0.0677
19149TIP3    H278939   6.375   1.638  14.709 -0.1770 -0.4710  0.1878
19150TIP3   OH278940   4.945   6.044   3.767 -0.3769  0.7224 -0.3479
19150TIP3    H178941   4.907   6.115   3.716 -1.5994  0.0359 -0.4262
19150TIP3    H278942   4.928   6.067   3.858 -2.0517 -0.1189 -0.4092
19151TIP3   OH278943   5.544   4.415   2.994  0.6809 -0.1952  0.4835
19151TIP3    H178944   5.468   4.376   3.035 -0.2478  0.0577 -0.9330
19151TIP3    H278945   5.548   4.504   3.029 -0.5841  0.2885 -0.5383
19152TIP3   OH278946   6.043   4.222   3.563  0.4173 -0.1407 -0.1140
19152TIP3    H178947   6.030   4.314   3.537  0.0531 -0.3616 -0.7419
19152TIP3    H278948   6.030   4.173   3.482 -2.1601 -0.9718  0.7224
19153TIP3   OH278949   2.409   4.719   6.710 -0.3420 -0.8413  0.2243
19153TIP3    H178950   2.407   4.710   6.614  0.3311 -2.3525  0.3202
19153TIP3    H278951   2.502   4.709   6.733 -0.3703  0.4013  0.9870
19154TIP3   OH278952   3.363   4.389   2.536 -0.0464 -0.8431  0.9717
19154TIP3    H178953   3.452   4.367   2.506  0.2463 -1.5354  2.2313
19154TIP3    H278954   3.338   4.465   2.484  1.1230 -0.8918  0.2933
19155TIP3   OH278955   0.508   0.349   2.822  0.3675  0.2329  0.2397
19155TIP3    H178956   0.435   0.291   2.845 -0.3736  0.8503 -0.4666
19155TIP3    H278957   0.540   0.315   2.738 -0.5941  1.2830 -0.5877
19156TIP3   OH278958   0.031   1.777  16.582  0.0920 -0.4370 -0.0339
19156TIP3    H178959   0.039   1.695  16.533  0.5058  0.2841 -1.2183
19156TIP3    H278960   0.121   1.805  16.595 -0.0696  0.2837 -0.4363
19157TIP3   OH278961   2.318   4.204  14.769 -0.1609 -0.7982  0.4681
19157TIP3    H178962   2.322   4.111  14.748  0.8424 -0.4052 -1.2662
19157TIP3    H278963   2.239   4.213  14.823  0.0485 -2.7243  1.1649
19158TIP3   OH278964   3.474   6.105   4.983  0.1013 -0.1892 -0.3754
19158TIP3    H178965   3.558   6.081   5.023  1.0608  0.9947 -1.5937
19158TIP3    H278966   3.437   6.169   5.044 -0.5336 -1.5939  0.7800
19159TIP3   OH278967   2.135   2.226  16.221 -0.2774  0.4861 -0.1623
19159TIP3    H178968   2.192   2.271  16.283 -1.9195  0.9150  1.0798
19159TIP3    H278969   2.075   2.175  16.276 -2.0921  1.2574 -1.3427
19160TIP3   OH278970   2.745   0.913   0.955  0.0979  0.3098  0.3581
19160TIP3    H178971   2.677   0.847   0.969 -0.3298  0.0655 -2.3342
19160TIP3    H278972   2.787   0.923   1.040 -1.4928 -1.5697  1.4376
19161TIP3   OH278973   6.349   5.910   5.516 -0.6087 -0.0413  0.4619
19161TIP3    H178974   6.281   5.969   5.483  1.1178  2.6238  1.3555
19161TIP3    H278975   6.414   5.905   5.445 -0.2483 -0.0454  0.7903
19162TIP3   OH278976   0.509   2.661   4.049 -0.1097  0.5538  0.6251
19162TIP3    H178977   0.469   2.728   4.104 -0.3529 -0.3284  1.5415
19162TIP3    H278978   0.529   2.589   4.109  1.0800  0.2009 -0.1594
19163TIP3   OH278979   0.311   2.876   0.856 -0.2822  0.0828  0.3728
19163TIP3    H178980   0.367   2.877   0.934  1.3832 -1.7964 -0.7149
19163TIP3    H278981   0.283   2.785   0.847  1.5144 -0.3304 -2.4534
19164TIP3   OH278982   6.010   0.042  13.505  0.3310 -0.4759  0.2428
19164TIP3    H178983   5.977   0.132  13.511 -1.6851 -1.1562  0.2171
19164TIP3    H278984   6.102   0.049  13.528  1.1232  2.0714 -2.9625
19165TIP3   OH278985   4.419   1.583  16.205  0.2850 -0.0998  0.6310
19165TIP3    H178986   4.401   1.673  16.179  1.9558 -0.2522 -1.2822
19165TIP3    H278987   4.509   1.585  16.239  1.0409 -1.3037 -1.1654
19166TIP3   OH278988   0.649   5.292   2.193  0.2287  0.3854 -0.5153
19166TIP3    H178989   0.599   5.221   2.152 -1.2688  0.7891  0.5270
19166TIP3    H278990   0.644   5.364   2.130 -0.2577  0.3250 -0.5492
19167TIP3   OH278991   2.808   1.800   5.263  0.3367 -0.2265 -0.0121
19167TIP3    H178992   2.714   1.815   5.267  0.0249 -1.4733 -1.5711
19167TIP3    H278993   2.837   1.853   5.189  0.9248  0.3461  0.6132
19168TIP3   OH278994   5.589   1.430   5.733  0.7837 -0.2859 -0.6317
19168TIP3    H178995   5.624   1.452   5.820 -2.5925 -0.6246  0.9439
19168TIP3    H278996   5.512   1.485   5.723 -1.4283 -3.2772 -1.4468
19169TIP3   OH278997   2.900   5.194  13.385 -0.6582 -0.1760  0.4981
19169TIP3    H178998   2.808   5.218  13.375 -0.4489  0.4265 -0.0304
19169TIP3    H278999   2.936   5.261  13.444  0.0738  1.2495 -1.4636
19170TIP3   OH279000   2.392   5.456  14.861  0.0564 -0.2460 -0.3400
19170TIP3    H179001   2.311   5.411  14.885 -0.4574  0.3382 -0.9426
19170TIP3    H279002   2.363   5.537  14.820  0.9559  0.2877  0.0453
19171TIP3   OH279003   6.736   0.955   6.651 -0.4674 -0.5962 -0.1180
19171TIP3    H179004   6.777   0.882   6.697 -1.5130  0.1525  2.1202
19171TIP3    H279005   6.803   1.023   6.649 -0.9936  0.0749  2.1708
19172TIP3   OH279006   4.171   5.218  11.379  0.1540  0.3910 -0.6434
19172TIP3    H179007   4.080   5.225  11.406 -0.2269 -0.7404 -1.5785
19172TIP3    H279008   4.170   5.231  11.285  1.1423  1.6365 -0.5101
19173TIP3   OH279009   2.525   5.772  14.799  0.1427  0.0582 -0.0717
19173TIP3    H179010   2.543   5.702  14.735  1.6098  0.7267 -0.4352
19173TIP3    H279011   2.469   5.833  14.751 -0.8149 -0.6502  0.1149
19174TIP3   OH279012   6.251   3.400   3.579 -0.1971  0.5663  0.0826
19174TIP3    H179013   6.290   3.444   3.504 -0.8461  0.2921 -0.4265
19174TIP3    H279014   6.308   3.325   3.594 -0.6665  0.0020 -0.8418
19175TIP3   OH279015   0.518   6.542  12.339  0.0099  0.3338 -0.5308
19175TIP3    H179016   0.539   6.633  12.317 -1.0262  1.0300  1.1356
19175TIP3    H279017   0.433   6.527  12.298  0.5405 -0.1736 -1.4750
19176TIP3   OH279018   2.396   3.297   3.266  0.0576  0.3162  0.3807
19176TIP3    H179019   2.469   3.340   3.222 -0.9780  1.8485  0.0652
19176TIP3    H279020   2.341   3.265   3.194  0.1327 -0.3109  0.6028
19177TIP3   OH279021   0.453   5.088   5.594  0.6206 -0.0621  0.3104
19177TIP3    H179022   0.361   5.082   5.622  0.2327  0.3903 -0.7970
19177TIP3    H279023   0.472   5.002   5.555  0.9509 -0.4600  1.3363
19178TIP3   OH279024   4.069   0.866   5.622 -0.1046 -0.1884  0.0791
19178TIP3    H179025   4.065   0.927   5.696  1.5488  0.5220 -0.3580
19178TIP3    H279026   3.999   0.804   5.638 -0.7327  0.8285  1.4585
19179TIP3   OH279027   4.451   4.682   0.950 -0.2119  0.0635  0.1385
19179TIP3    H179028   4.478   4.691   1.042  0.3069 -0.2459  0.0206
19179TIP3    H279029   4.398   4.603   0.949  1.2060 -0.9303 -0.1227
19180TIP3   OH279030   6.467   2.522  13.214  0.2247 -0.0331 -0.1756
19180TIP3    H179031   6.478   2.581  13.139  1.2031  0.8609  0.6280
19180TIP3    H279032   6.548   2.533  13.264 -0.8956  0.3164  1.6504
19181TIP3   OH279033   5.246   3.512  16.109  0.1272 -0.2216 -0.1106
19181TIP3    H179034   5.240   3.582  16.044 -0.4329 -0.5382 -0.4050
19181TIP3    H279035   5.337   3.517  16.141  0.7333 -0.7088 -1.6466
19182TIP3   OH279036   0.614   6.418   0.305 -0.0645 -0.1333 -0.2934
19182TIP3    H179037   0.618   6.513   0.301 -0.5301 -0.1405 -1.6702
19182TIP3    H279038   0.665   6.389   0.229  1.4653 -1.0404  1.0322
19183TIP3   OH279039   2.515   3.571  12.423 -0.5054 -0.5277 -0.3043
19183TIP3    H179040   2.467   3.632  12.479 -0.6887 -0.4011 -0.5923
19183TIP3    H279041   2.467   3.573  12.340  1.2467  1.2452 -1.3317
19184TIP3   OH279042   2.481   3.510   5.745 -0.0758  0.6400  0.1966
19184TIP3    H179043   2.505   3.421   5.718 -2.8871  0.5847 -2.7487
19184TIP3    H279044   2.403   3.498   5.799 -0.2163  1.2945  0.1460
19185TIP3   OH279045   4.598   0.543  14.549  0.5116  0.3055  0.0268
19185TIP3    H179046   4.665   0.474  14.553  1.2450  0.9513 -0.7457
19185TIP3    H279047   4.607   0.590  14.631  0.3454 -0.2090  0.3437
19186TIP3   OH279048   5.268   6.308  14.077 -0.5335 -0.7390  0.2301
19186TIP3    H179049   5.334   6.278  14.014 -1.2929 -0.1174 -0.9040
19186TIP3    H279050   5.242   6.395  14.045 -0.5776 -0.1743  1.7013
19187TIP3   OH279051   5.450   3.460  14.534 -0.2319 -0.2659 -0.0403
19187TIP3    H179052   5.522   3.404  14.563  0.0899  0.3764  0.4196
19187TIP3    H279053   5.409   3.490  14.615 -1.4642 -1.1897 -0.3029
19188TIP3   OH279054   1.162   3.616   1.342 -0.1689  1.0948 -0.0036
19188TIP3    H179055   1.122   3.545   1.393 -0.3237  1.4397  0.3535
19188TIP3    H279056   1.132   3.600   1.252 -0.2439  0.7357  0.0831
19189TIP3   OH279057   4.387   2.397   2.084  0.1911  0.4749  0.2003
19189TIP3    H179058   4.367   2.475   2.135  0.4225  0.0545  0.9516
19189TIP3    H279059   4.480   2.382   2.096 -0.1498 -0.8663  1.4588
19190TIP3   OH279060   1.926   4.834  14.782  0.2191 -0.3850 -0.7778
19190TIP3    H179061   1.934   4.930  14.785  1.7137 -0.4840 -0.6016
19190TIP3    H279062   1.904   4.810  14.872  0.8776 -0.2575 -0.5711
19191TIP3   OH279063   1.149   5.293   4.615  0.0010  0.1161  0.0543
19191TIP3    H179064   1.074   5.234   4.603 -1.8031  1.9980  1.2520
19191TIP3    H279065   1.115   5.379   4.588  2.1517  0.8485 -0.4976
19192TIP3   OH279066   2.913   1.105  16.927 -0.1438  0.0297 -0.1327
19192TIP3    H179067   2.957   1.168  16.984  0.8115  0.7861 -1.6156
19192TIP3    H279068   2.958   1.115  16.842 -0.4030 -2.2073 -0.5861
19193TIP3   OH279069   1.886   6.469   0.691 -0.1021  0.2391  0.4220
19193TIP3    H179070   1.869   6.455   0.598  1.6289 -0.1859  0.1348
19193TIP3    H279071   1.979   6.448   0.702 -0.5002 -0.7533  2.4437
19194TIP3   OH279072   6.174   5.842  13.640 -0.5567 -0.1015  0.0915
19194TIP3    H179073   6.097   5.843  13.697 -0.7003 -2.1474  0.0217
19194TIP3    H279074   6.241   5.889  13.689 -1.9126  2.0470  0.0022
19195TIP3   OH279075   0.377   1.626  15.174 -0.6554 -0.4606 -0.1679
19195TIP3    H179076   0.313   1.557  15.163  0.2815 -1.4819  0.5562
19195TIP3    H279077   0.458   1.590  15.138 -0.3901  0.6584 -0.7316
19196TIP3   OH279078   1.429   4.352  13.290 -0.2166  0.0136  0.2600
19196TIP3    H179079   1.434   4.268  13.334 -0.9966 -0.5504 -0.6841
19196TIP3    H279080   1.355   4.396  13.331 -0.2961 -0.0870  0.2248
19197TIP3   OH279081   2.492   5.431   6.307 -0.1194 -0.8262  0.0138
19197TIP3    H179082   2.437   5.393   6.376 -0.6542 -0.6389 -0.3098
19197TIP3    H279083   2.431   5.468   6.244  0.3678 -0.9007 -0.5151
19198TIP3   OH279084   3.566   3.820  15.996 -0.3920 -0.1271 -0.3703
19198TIP3    H179085   3.584   3.818  16.090 -0.0101 -2.8918 -0.3998
19198TIP3    H279086   3.644   3.782  15.956 -1.0551 -0.1650 -1.6889
19199TIP3   OH279087   4.679   1.958  11.810 -0.0729 -0.3422  0.1734
19199TIP3    H179088   4.749   1.893  11.814 -0.0406 -0.3778 -0.7556
19199TIP3    H279089   4.716   2.030  11.759  0.0973  0.6824  1.6900
19200TIP3   OH279090   6.389   5.326  11.063  0.1850 -0.3065 -0.1219
19200TIP3    H179091   6.309   5.377  11.078  0.2069 -0.1667 -0.4855
19200TIP3    H279092   6.399   5.325  10.968  0.6958 -0.2038 -0.0692
19201TIP3   OH279093   5.940   3.636   0.429 -0.3808  0.3030 -0.2218
19201TIP3    H179094   5.867   3.604   0.376 -0.0607  1.0439 -1.1317
19201TIP3    H279095   5.917   3.726   0.451  1.0008  1.1728 -2.0192
19202TIP3   OH279096   6.783   0.532   6.603 -0.3360 -0.1932  0.0967
19202TIP3    H179097   6.863   0.481   6.591  1.1415  2.0604 -0.4087
19202TIP3    H279098   6.761   0.562   6.514 -2.4591 -1.6963  0.0474
19203TIP3   OH279099   5.078   1.734   1.526  0.3680 -0.0330 -0.0331
19203TIP3    H179100   5.057   1.645   1.554 -1.8051 -0.0208 -1.4249
19203TIP3    H279101   4.999   1.765   1.482  1.2498  2.4160 -0.0525
19204TIP3   OH279102   3.879   5.899  11.755 -0.2876 -0.2654  0.2456
19204TIP3    H179103   3.905   5.819  11.802 -2.0756 -1.2624 -0.3757
19204TIP3    H279104   3.844   5.867  11.672 -1.0551  1.1862 -0.0099
19205TIP3   OH279105   0.959   3.385   2.037  0.1810 -0.6557 -0.0382
19205TIP3    H179106   0.989   3.346   1.954  2.6580  3.8881 -1.6700
19205TIP3    H279107   0.911   3.464   2.010 -0.4146  0.0907  2.8674
19206TIP3   OH279108   6.108   3.163   4.567  0.0244  0.2805 -0.1166
19206TIP3    H179109   6.023   3.204   4.555 -1.0832 -1.7455  0.3675
19206TIP3    H279110   6.102   3.120   4.652  1.7111  0.4818  0.1344
19207TIP3   OH279111   1.493   2.746  11.182 -0.7144  0.5962  0.2132
19207TIP3    H179112   1.416   2.760  11.126 -1.4042  0.3704  1.0723
19207TIP3    H279113   1.457   2.711  11.263  0.4188 -0.6724  0.2000
19208TIP3   OH279114   5.840   6.077  13.946  0.1169  0.0038 -0.2641
19208TIP3    H179115   5.803   5.991  13.967 -0.4437  0.8384  2.4838
19208TIP3    H279116   5.931   6.072  13.973 -0.3276  0.7302  1.5225
19209TIP3   OH279117   1.998   0.177  11.993 -0.2908 -0.5208  0.2777
19209TIP3    H179118   1.937   0.243  12.028 -2.4145 -1.7247 -0.9451
19209TIP3    H279119   1.944   0.122  11.937  2.3391 -0.4749 -2.5748
19210TIP3   OH279120   4.379   4.279  12.110  0.2079  0.1158 -0.2663
19210TIP3    H179121   4.359   4.306  12.021  1.0939 -0.0226 -0.5104
19210TIP3    H279122   4.463   4.320  12.130  0.3839 -0.4702  0.2275
19211TIP3   OH279123   1.364   3.393  14.434 -0.1190  0.4807  0.4314
19211TIP3    H179124   1.281   3.359  14.466 -1.0672 -0.7660 -2.9030
19211TIP3    H279125   1.350   3.407  14.340  3.7457 -0.9805 -0.5813
19212TIP3   OH279126   3.999   3.954  12.685  0.4764 -0.3515  0.0877
19212TIP3    H179127   4.061   3.920  12.749 -1.5129 -0.6707  1.9590
19212TIP3    H279128   4.032   4.041  12.663  0.9765 -0.0207  1.9546
19213TIP3   OH279129   3.998   3.777   4.906 -0.3078  0.1683 -0.7994
19213TIP3    H179130   3.966   3.819   4.826 -0.8497  0.1369 -0.5983
19213TIP3    H279131   4.086   3.747   4.883 -0.7979 -0.6504 -1.6866
19214TIP3   OH279132   1.528   1.334   3.912  0.4609  0.5341 -0.4813
19214TIP3    H179133   1.609   1.288   3.932  0.0549  0.7103  1.8953
19214TIP3    H279134   1.528   1.409   3.971 -0.8002  1.2839 -1.3942
19215TIP3   OH279135   5.890   6.767   0.582 -0.3913 -0.0374  0.0829
19215TIP3    H179136   5.961   6.819   0.544  1.6202  0.2978  3.8001
19215TIP3    H279137   5.904   6.679   0.549  0.7181  0.3776 -0.5837
19216TIP3   OH279138   0.788   0.312  11.088 -0.2332 -0.4504  0.7305
19216TIP3    H179139   0.827   0.385  11.136  0.1472 -0.1247 -0.0486
19216TIP3    H279140   0.723   0.276  11.147 -1.1288  1.1390  0.7818
19217TIP3   OH279141   3.728   1.717  16.387  0.0526  0.1774 -0.0934
19217TIP3    H179142   3.798   1.761  16.435 -0.5251  1.4279 -0.3601
19217TIP3    H279143   3.655   1.714  16.448  0.2478 -0.9151  0.1019
19218TIP3   OH279144   5.631   1.935   3.633 -0.1804  0.4384  0.2249
19218TIP3    H179145   5.712   1.979   3.608  1.2418 -1.6076  0.9292
19218TIP3    H279146   5.631   1.854   3.582 -0.1836 -1.0142  2.3961
19219TIP3   OH279147   0.533   2.603  11.652 -0.1772 -0.5042  0.1004
19219TIP3    H179148   0.477   2.527  11.670 -0.0406 -1.5687 -3.2366
19219TIP3    H279149   0.475   2.668  11.613  0.2959 -0.3487 -0.3715
19220TIP3   OH279150   1.880   3.173   1.254 -0.1242 -0.5046 -0.3620
19220TIP3    H179151   1.907   3.081   1.248  0.4974 -0.3685  0.1738
19220TIP3    H279152   1.872   3.202   1.163 -2.0534 -1.5548 -0.5845
19221TIP3   OH279153   1.694   5.690  14.365  0.2594  0.0682  0.1403
19221TIP3    H179154   1.678   5.667  14.274 -0.5312  2.2150 -0.3429
19221TIP3    H279155   1.694   5.786  14.366  1.9090  0.1313  2.1307
19222TIP3   OH279156   6.047   0.961  15.579  0.0353  0.4690 -0.7106
19222TIP3    H179157   5.993   1.027  15.537 -1.2385 -0.9660 -1.4358
19222TIP3    H279158   6.096   1.009  15.646 -0.2745  2.2451 -1.6904
19223TIP3   OH279159   5.215   6.496  17.232 -0.6134 -0.2713 -0.3605
19223TIP3    H179160   5.159   6.444  17.175 -1.7774  0.2936  0.2297
19223TIP3    H279161   5.184   6.586  17.220  1.8951  0.4986 -2.0168
19224TIP3   OH279162   1.424   6.325   6.092 -0.1888  0.1246  0.3818
19224TIP3    H179163   1.491   6.264   6.124  0.8484  0.7358 -0.5535
19224TIP3    H279164   1.474   6.400   6.059 -1.2174 -0.1660 -2.0111
19225TIP3   OH279165   4.655   2.610  13.836  0.0789 -0.0168 -0.3086
19225TIP3    H179166   4.562   2.591  13.849  0.3572 -0.5535  1.0297
19225TIP3    H279167   4.656   2.692  13.786 -1.1129  0.5547  0.5632
19226TIP3   OH279168   0.470   6.611   3.013  0.0850 -0.2416 -0.3135
19226TIP3    H179169   0.544   6.666   2.987 -0.1644  0.0670 -0.3849
19226TIP3    H279170   0.416   6.606   2.934  0.9869 -2.0603 -0.8567
19227TIP3   OH279171   4.953   2.054   1.415 -0.7726  0.3827 -0.1953
19227TIP3    H179172   5.047   2.034   1.423 -0.5005  1.7670  0.3238
19227TIP3    H279173   4.950   2.150   1.408 -2.1150  0.3056 -0.8490
19228TIP3   OH279174   4.115   0.819   3.892  0.2909 -0.1070  0.4454
19228TIP3    H179175   4.074   0.768   3.823 -0.9189 -1.2754  1.9419
19228TIP3    H279176   4.170   0.883   3.846 -2.1168  0.6260 -1.6779
19229TIP3   OH279177   1.717   1.869   0.945  0.1114 -0.5986 -0.1765
19229TIP3    H179178   1.749   1.920   0.870  0.5767  0.1545  0.5049
19229TIP3    H279179   1.786   1.805   0.960  2.5023  2.2498  2.5066
19230TIP3   OH279180   0.587   5.264  14.327  0.0592 -0.0373 -0.1871
19230TIP3    H179181   0.592   5.187  14.384  1.5725  0.0960 -0.1023
19230TIP3    H279182   0.500   5.258  14.287 -0.1865 -1.3172  0.4704
19231TIP3   OH279183   6.056   0.419  15.801  0.7328  0.0645 -0.3339
19231TIP3    H179184   6.041   0.340  15.749  3.1488 -1.1052  0.6331
19231TIP3    H279185   5.981   0.475  15.780 -1.3206 -2.6137 -0.7128
19232TIP3   OH279186   2.402   0.176  16.238 -0.2887 -0.2567 -0.3247
19232TIP3    H179187   2.419   0.207  16.149 -0.3554 -0.9955 -0.6024
19232TIP3    H279188   2.337   0.107  16.228 -2.5968  1.6527  0.6033
19233TIP3   OH279189   6.287   2.600   3.846 -0.3331 -0.1192  0.1106
19233TIP3    H179190   6.275   2.561   3.933  0.2165  2.1399  1.2708
19233TIP3    H279191   6.314   2.527   3.791 -2.1809 -1.9311  1.4371
19234TIP3   OH279192   2.463   3.356  12.206 -0.3651  0.2478  0.2987
19234TIP3    H179193   2.396   3.375  12.141  0.0069 -1.2365 -0.5809
19234TIP3    H279194   2.440   3.269  12.239  0.4892  0.2064  0.8208
19235TIP3   OH279195   5.751   3.829  15.925  0.4642 -0.4268 -0.4102
19235TIP3    H179196   5.818   3.790  15.981  0.2877 -0.8384 -0.4841
19235TIP3    H279197   5.778   3.807  15.836  1.9957  2.1582 -0.6703
19236TIP3   OH279198   1.924   2.703   5.223 -0.7229 -0.2361  0.0199
19236TIP3    H179199   1.939   2.787   5.179  0.2965 -1.3165 -1.8569
19236TIP3    H279200   2.012   2.666   5.233 -1.1341 -0.9462  1.1099
19237TIP3   OH279201   5.143   4.579   1.794  0.3658 -1.0622 -0.2153
19237TIP3    H179202   5.193   4.637   1.736  0.9018 -0.3362  0.9180
19237TIP3    H279203   5.208   4.516   1.826  1.2114  1.1096  2.8726
19238TIP3   OH279204   6.506   4.593   3.567 -0.1801  0.1805 -0.0411
19238TIP3    H179205   6.589   4.569   3.525 -0.4453  1.3529 -1.3138
19238TIP3    H279206   6.525   4.673   3.615 -0.7923  1.1127 -1.2804
19239TIP3   OH279207   2.797   5.394   0.132  0.0603 -0.1137 -0.3627
19239TIP3    H179208   2.785   5.302   0.158 -2.3455  0.1535 -0.2529
19239TIP3    H279209   2.779   5.444   0.212  1.3120  0.4740 -0.4334
19240TIP3   OH279210   5.943   6.490   3.491 -0.5580  0.3789  0.0089
19240TIP3    H179211   5.963   6.397   3.476  0.2925  0.6646 -0.7723
19240TIP3    H279212   6.014   6.520   3.548 -1.0063  0.4815  0.5155
19241TIP3   OH279213   5.378   0.211   0.265 -0.0709  0.1980 -0.6162
19241TIP3    H179214   5.310   0.174   0.322  0.7690 -0.4494 -0.0013
19241TIP3    H279215   5.451   0.150   0.272  0.9769  1.4294 -0.3978
19242TIP3   OH279216   3.982   2.968   0.820  0.1720 -0.2725 -0.2101
19242TIP3    H179217   4.032   2.900   0.775  0.3767  0.1783 -0.6693
19242TIP3    H279218   3.892   2.957   0.788  0.6529  1.2641 -2.2345
19243TIP3   OH279219   2.558   1.246  17.121 -0.2327  0.4417  0.0729
19243TIP3    H179220   2.624   1.184  17.090 -3.0499 -1.3568 -3.0767
19243TIP3    H279221   2.523   1.207  17.201 -0.3391 -0.8229 -0.5718
19244TIP3   OH279222   0.785   4.633  15.494 -0.6234 -0.1933 -0.1844
19244TIP3    H179223   0.708   4.611  15.548  0.0012 -0.0926  0.7694
19244TIP3    H279224   0.807   4.550  15.451 -0.3829 -0.5986  0.6888
19245TIP3   OH279225   4.002   0.918   0.261 -0.4546 -0.4122 -0.0360
19245TIP3    H179226   3.965   1.002   0.234  2.0501 -0.2352 -3.5035
19245TIP3    H279227   3.992   0.917   0.356  1.3776  4.8532  0.5145
19246TIP3   OH279228   0.297   5.734   0.751  0.0526 -0.5176  0.0689
19246TIP3    H179229   0.266   5.649   0.719 -1.3379 -0.1524  0.4141
19246TIP3    H279230   0.234   5.759   0.818 -0.0930  1.2500 -0.6923
19247TIP3   OH279231   2.436   3.471  16.068  0.0024 -0.1125  0.1363
19247TIP3    H179232   2.475   3.482  15.981 -1.1317 -0.6324 -0.4612
19247TIP3    H279233   2.466   3.548  16.117  1.5392 -0.3646 -0.3597
19248TIP3   OH279234   1.842   6.791   1.537  0.4114 -0.3076  0.5444
19248TIP3    H179235   1.867   6.842   1.614 -3.3423  2.2481  0.3106
19248TIP3    H279236   1.873   6.842   1.463 -0.8828  0.1960  0.3354
19249TIP3   OH279237   6.041   5.282  16.432  0.1940 -0.0444 -0.0371
19249TIP3    H179238   6.041   5.246  16.521  0.7388  0.5013  0.1955
19249TIP3    H279239   6.067   5.210  16.376  1.3459 -0.0066  0.4255
19250TIP3   OH279240   4.891   3.015   4.964 -0.3642 -0.7494  0.0506
19250TIP3    H179241   4.955   2.947   4.944 -0.5259 -0.7445 -0.4981
19250TIP3    H279242   4.825   3.006   4.895  0.0127  0.4658 -0.4922
19251TIP3   OH279243   5.763   2.017   5.739 -0.1378 -0.1650 -0.3060
19251TIP3    H179244   5.702   2.022   5.813  2.4853 -0.8758  2.0939
19251TIP3    H279245   5.816   1.939   5.757  0.7828 -0.2225 -2.8555
19252TIP3   OH279246   0.982   2.570  14.031 -0.7096 -0.5168 -0.0003
19252TIP3    H179247   0.967   2.476  14.033 -0.9250 -0.5875 -2.3027
19252TIP3    H279248   0.896   2.607  14.012 -0.7543  0.2347  1.5029
19253TIP3   OH279249   0.474   2.167   2.597  0.1096 -0.4059 -0.1653
19253TIP3    H179250   0.486   2.261   2.605 -1.0511 -0.2561 -0.0688
19253TIP3    H279251   0.424   2.155   2.516 -0.2333 -0.8828  0.1096
19254TIP3   OH279252   6.817   5.032  16.589 -0.4062 -0.5572 -0.3783
19254TIP3    H179253   6.751   4.986  16.538 -0.6108  0.0520 -0.6745
19254TIP3    H279254   6.818   5.121  16.553 -0.4552 -0.1470  0.5793
19255TIP3   OH279255   5.421   4.799  15.575  0.1528  0.3714  0.3311
19255TIP3    H179256   5.397   4.715  15.614 -0.7020 -0.0817 -1.1210
19255TIP3    H279257   5.496   4.828  15.626  0.7028 -1.4528  0.6179
19256TIP3   OH279258   5.704   0.720   3.521  0.1143 -0.2772 -0.1990
19256TIP3    H179259   5.722   0.748   3.611 -0.7432  2.9538 -0.8767
19256TIP3    H279260   5.788   0.728   3.477  0.1020  0.3292 -0.1324
19257TIP3   OH279261   4.523   0.573  16.182 -0.4903  0.3173  0.2034
19257TIP3    H179262   4.437   0.548  16.216 -1.1690  2.8174  0.5324
19257TIP3    H279263   4.504   0.634  16.111  0.9740  2.6162  1.6717
19258TIP3   OH279264   5.887   2.370   4.981  0.7583  1.0177 -0.4979
19258TIP3    H179265   5.867   2.373   5.074 -0.0422 -0.6314 -0.5671
19258TIP3    H279266   5.924   2.282   4.968  0.3403  1.0116 -1.8083
19259TIP3   OH279267   1.224   4.270  14.097  0.1306 -0.1073  0.2521
19259TIP3    H179268   1.279   4.323  14.039  0.3257 -0.8921 -0.3072
19259TIP3    H279269   1.149   4.326  14.117 -0.1656  0.0292 -1.1434
19260TIP3   OH279270   1.428   0.384  11.740  0.3235  0.6463  0.5314
19260TIP3    H179271   1.377   0.320  11.689 -0.6990  0.5986  1.5895
19260TIP3    H279272   1.514   0.384  11.698  0.2527 -1.2050  0.3221
19261TIP3   OH279273   0.812   2.662   3.206 -0.0961 -0.1110 -0.2464
19261TIP3    H179274   0.856   2.684   3.124  1.5072  0.3181  0.6916
19261TIP3    H279275   0.737   2.608   3.180 -1.1498  2.1297 -2.2103
19262TIP3   OH279276   0.300   2.253  12.077 -0.0173  0.4377 -0.1423
19262TIP3    H179277   0.371   2.312  12.101 -0.3385  0.2883  1.3049
19262TIP3    H279278   0.223   2.289  12.123 -0.3448 -0.7357  0.2674
19263TIP3   OH279279   2.600   1.721  17.160  0.5071 -0.3100 -0.3628
19263TIP3    H179280   2.522   1.755  17.203 -0.3838 -0.9064 -1.4552
19263TIP3    H279281   2.608   1.631  17.191  1.9380  0.3343  1.2813
19264TIP3   OH279282   3.490   1.603   1.650 -0.0639 -0.6669 -0.2141
19264TIP3    H179283   3.474   1.653   1.731  0.9543 -1.3197  0.4157
19264TIP3    H279284   3.566   1.646   1.611  2.2017 -2.9223  1.4333
19265TIP3   OH279285   1.675   6.605   4.332  0.1767 -0.0033  0.0189
19265TIP3    H179286   1.593   6.614   4.382  0.1176  0.1778 -0.1103
19265TIP3    H279287   1.743   6.604   4.399  0.0207 -0.9740  0.1898
19266TIP3   OH279288   4.489   3.413   1.704  0.1905 -0.4424  0.4841
19266TIP3    H179289   4.506   3.380   1.616 -0.1101 -1.9079  0.9546
19266TIP3    H279290   4.396   3.436   1.704  0.7216  2.0965 -0.3354
19267TIP3   OH279291   4.962   6.756  14.117 -1.0854 -0.3281  0.1499
19267TIP3    H179292   4.944   6.832  14.062 -0.6354 -0.9707 -0.9162
19267TIP3    H279293   4.881   6.744  14.167 -0.6329  1.7687  1.5167
19268TIP3   OH279294   1.518   5.165   0.709 -0.0160  0.1887  0.1432
19268TIP3    H179295   1.484   5.078   0.729  0.8461 -0.4612 -1.0857
19268TIP3    H279296   1.546   5.200   0.793 -2.2967  0.1727  0.9959
19269TIP3   OH279297   5.746   3.632  12.122  0.1869  0.7866 -0.3368
19269TIP3    H179298   5.764   3.715  12.166  0.0624  1.5187 -1.6339
19269TIP3    H279299   5.798   3.568  12.171  1.2031  1.8106 -0.0354
19270TIP3   OH279300   0.680   2.725   5.583  1.1259  0.4107 -0.3445
19270TIP3    H179301   0.701   2.651   5.527 -0.1627  0.6834 -1.2477
19270TIP3    H279302   0.690   2.802   5.527  0.6104  0.7559  0.0210
19271TIP3   OH279303   0.044   4.776   1.397 -0.1681 -0.1913  0.2049
19271TIP3    H179304   0.108   4.777   1.326  0.3396 -1.1585  0.6364
19271TIP3    H279305  -0.039   4.755   1.354 -0.0693  0.3012 -0.2441
19272TIP3   OH279306   6.397   1.066   5.357  0.4942  0.6063 -0.8258
19272TIP3    H179307   6.340   1.000   5.397 -0.9149  1.1555 -1.8735
19272TIP3    H279308   6.483   1.023   5.352 -0.1725 -0.8030 -0.6434
19273TIP3   OH279309   6.034   6.604   1.041  0.6895 -0.2494  0.6475
19273TIP3    H179310   6.068   6.636   0.958  0.1865  1.2295  0.9717
19273TIP3    H279311   5.942   6.632   1.041  0.1401 -1.9786  0.8497
19274TIP3   OH279312   4.707   6.098  14.368  0.6465  0.1501  0.0394
19274TIP3    H179313   4.800   6.083  14.383  1.1267  0.8749 -1.9080
19274TIP3    H279314   4.703   6.178  14.315 -0.9424 -0.6912 -1.2226
19275TIP3   OH279315   0.253   0.174  14.443  0.7859  0.3265 -0.6263
19275TIP3    H179316   0.333   0.168  14.495  0.6282  2.0824 -0.1145
19275TIP3    H279317   0.278   0.226  14.366  0.1868  0.7772 -0.5268
19276TIP3   OH279318   3.350   5.481   0.255  0.1009 -0.3448  0.1884
19276TIP3    H179319   3.358   5.455   0.163 -0.0956  1.7614 -0.4981
19276TIP3    H279320   3.287   5.553   0.253 -0.4184 -0.7052  2.0913
19277TIP3   OH279321   4.342   6.451  17.121 -0.3891 -0.0472  0.1613
19277TIP3    H179322   4.422   6.493  17.089 -1.4449  0.8539 -1.3838
19277TIP3    H279323   4.311   6.400  17.046  0.0097 -2.4149  1.4977
19278TIP3   OH279324   4.513   5.213  10.802 -0.2041 -0.1368 -0.0620
19278TIP3    H179325   4.531   5.125  10.835  1.0745  0.0238 -0.2869
19278TIP3    H279326   4.598   5.257  10.802 -0.7079  0.8765 -0.6207
19279TIP3   OH279327   2.415   6.214   0.452  0.1920 -0.1029  0.2019
19279TIP3    H179328   2.510   6.208   0.447  0.1502 -3.7570  1.4668
19279TIP3    H279329   2.382   6.133   0.414 -2.5130  1.2930 -0.7575
19280TIP3   OH279330   5.131   0.342  15.051 -0.0224 -0.2048 -0.2063
19280TIP3    H179331   5.167   0.362  15.138 -0.4282 -0.0091 -0.0830
19280TIP3    H279332   5.190   0.385  14.990 -1.8311  2.9636  0.0964
19281TIP3   OH279333   4.758   4.089   0.124 -0.0800 -0.1881  0.8818
19281TIP3    H179334   4.670   4.051   0.129 -1.0655  1.9513  1.1945
19281TIP3    H279335   4.808   4.044   0.192 -0.8162 -1.6674  0.4777
19282TIP3   OH279336   2.807   3.581   1.960  0.0074 -0.3910  0.0500
19282TIP3    H179337   2.885   3.624   1.996 -0.4496 -0.7592  1.5777
19282TIP3    H279338   2.780   3.637   1.887  0.5256  0.8829  0.8021
19283TIP3   OH279339   2.380   5.366  13.099  0.3877  0.2733  0.5718
19283TIP3    H179340   2.444   5.334  13.163  0.4330  0.4987  0.6404
19283TIP3    H279341   2.341   5.443  13.141  1.6870  1.5074 -0.3984
19284TIP3   OH279342   1.470   3.240   0.816  0.6350  0.6494  0.1564
19284TIP3    H179343   1.412   3.243   0.892 -0.1576  2.3365 -0.4713
19284TIP3    H279344   1.459   3.152   0.780 -0.0177  0.2953  1.1856
19285TIP3   OH279345   0.045   5.025   0.482 -0.0437 -0.1431 -0.3624
19285TIP3    H179346   0.111   4.969   0.440 -0.5741 -1.1883  0.1609
19285TIP3    H279347   0.004   5.072   0.410  1.6380  0.9575 -0.6543
19286TIP3   OH279348   5.354   2.333  15.236  0.0306  0.1501 -0.6255
19286TIP3    H179349   5.366   2.387  15.314 -1.1840  0.5761 -0.7193
19286TIP3    H279350   5.424   2.361  15.177 -1.0827  2.3091 -1.0326
19287TIP3   OH279351   3.274   5.531  11.166 -0.4471  0.4030  0.2543
19287TIP3    H179352   3.282   5.482  11.085 -1.9062 -0.8019  0.7720
19287TIP3    H279353   3.306   5.471  11.234  1.5456  1.6933  0.5330
19288TIP3   OH279354   2.837   3.953  14.070  0.4370  0.2875 -0.0262
19288TIP3    H179355   2.929   3.949  14.041  0.8399 -0.7781  1.2720
19288TIP3    H279356   2.841   3.939  14.164 -1.2341 -3.4621 -0.3053
19289TIP3   OH279357   3.291   0.308   3.358 -0.0539 -0.2369 -0.1412
19289TIP3    H179358   3.220   0.342   3.304 -1.1670 -0.8999  0.8628
19289TIP3    H279359   3.363   0.293   3.296 -1.5466 -1.7765 -1.6221
19290TIP3   OH279360   4.713   0.992  15.649  0.0865  0.0549 -0.3120
19290TIP3    H179361   4.720   0.916  15.592  0.0940 -0.9249  0.9408
19290TIP3    H279362   4.658   0.962  15.722 -0.5419  1.4853 -0.1629
19291TIP3   OH279363   3.697   6.345   5.027 -0.1552  0.1077  1.0689
19291TIP3    H179364   3.649   6.376   4.951  0.0228  0.7927  1.2314
19291TIP3    H279365   3.754   6.276   4.993 -1.0540 -0.5434  0.8309
19292TIP3   OH279366   0.055   4.495   2.265  0.2242  0.6380  0.5787
19292TIP3    H179367   0.063   4.568   2.325  0.2830  0.1112  1.2264
19292TIP3    H279368  -0.039   4.478   2.260  0.2777  0.0952  1.2568
19293TIP3   OH279369   4.154   1.227  15.293  0.4200 -0.0192  0.2372
19293TIP3    H179370   4.087   1.252  15.357  1.7937 -0.2090  1.8452
19293TIP3    H279371   4.233   1.274  15.321  0.1330  3.5520 -4.0268
19294TIP3   OH279372   6.085   2.821   1.728 -0.3653 -0.9748  0.5392
19294TIP3    H179373   6.001   2.855   1.696 -0.4582 -2.4775 -0.9080
19294TIP3    H279374   6.064   2.784   1.814 -0.5770  1.0758  1.4488
19295TIP3   OH279375   2.457   6.301   1.907  0.0455 -0.2650 -0.1839
19295TIP3    H179376   2.427   6.296   1.817 -0.0142  0.8132 -0.2357
19295TIP3    H279377   2.543   6.343   1.902 -0.2715  0.4724  0.3105
19296TIP3   OH279378   0.816   5.956   4.232  0.0037  0.3274  0.5876
19296TIP3    H179379   0.779   6.043   4.249  0.7546  0.5394  1.2370
19296TIP3    H279380   0.762   5.896   4.284 -1.2532  0.2289 -0.7718
19297TIP3   OH279381   6.787   1.790  12.084 -0.5905  0.0520  0.4323
19297TIP3    H179382   6.842   1.868  12.077 -3.0116  1.7638 -1.4171
19297TIP3    H279383   6.771   1.780  12.178  3.2687 -0.9839  1.1447
19298TIP3   OH279384   0.188   4.263  15.142  0.4100  0.2981 -0.5203
19298TIP3    H179385   0.136   4.341  15.125  0.2076  0.0088 -1.2595
19298TIP3    H279386   0.244   4.287  15.216  0.4690  1.1953 -0.8454
19299TIP3   OH279387   3.614   1.394  13.627  0.1428 -0.4879 -0.5009
19299TIP3    H179388   3.611   1.471  13.684  0.7592 -0.1848 -0.8746
19299TIP3    H279389   3.655   1.425  13.547  0.0613 -1.1242 -0.7929
19300TIP3   OH279390   1.255   2.195   0.540 -0.1127 -0.4815 -0.3621
19300TIP3    H179391   1.185   2.241   0.495 -1.6981 -2.5434 -0.1210
19300TIP3    H279392   1.276   2.121   0.483  0.6634 -0.8554  0.3881
19301TIP3   OH279393   4.952   5.801   6.465 -0.1007  0.1188 -0.5318
19301TIP3    H179394   4.918   5.831   6.380  0.6760 -1.0232 -1.2763
19301TIP3    H279395   4.874   5.772   6.512 -0.2783 -2.6767 -2.3000
19302TIP3   OH279396   6.769   5.433   0.236  0.3854 -0.2947  0.1054
19302TIP3    H179397   6.849   5.465   0.277  0.3000  0.1102 -0.0332
19302TIP3    H279398   6.796   5.356   0.186  1.8431  2.6987 -4.3252
19303TIP3   OH279399   2.629   1.966   1.365  0.0103 -0.5008  0.1054
19303TIP3    H179400   2.701   2.025   1.388  0.5731 -1.8517  2.0914
19303TIP3    H279401   2.556   2.025   1.344  0.7900  0.9201  1.1956
19304TIP3   OH279402   3.790   0.517   6.850 -0.4251  0.0663  0.1606
19304TIP3    H179403   3.728   0.573   6.897 -0.0204 -0.1138  0.9363
19304TIP3    H279404   3.736   0.452   6.806 -0.7755 -0.5353  1.4202
19305TIP3   OH279405   0.463   1.162  16.210 -0.0750 -0.0368 -0.0138
19305TIP3    H179406   0.430   1.221  16.142  0.1469 -0.7686 -0.7744
19305TIP3    H279407   0.556   1.151  16.190 -0.0823 -0.5294  0.1935
19306TIP3   OH279408   5.977   0.852  15.841  0.1393 -0.1429  0.2421
19306TIP3    H179409   5.907   0.797  15.875 -2.5423  2.8376  0.0810
19306TIP3    H279410   5.977   0.836  15.747  0.9866 -1.4667  0.4487
19307TIP3   OH279411   1.382   0.104   1.840  0.1505  0.2164 -0.5391
19307TIP3    H179412   1.368   0.198   1.850  1.1659  0.2961  0.2657
19307TIP3    H279413   1.296   0.070   1.816 -1.0756  0.9096  2.4417
19308TIP3   OH279414   1.879   4.227  12.006 -0.0845  0.2350  0.6282
19308TIP3    H179415   1.889   4.224  12.101  1.2325  0.1779  0.5177
19308TIP3    H279416   1.969   4.229  11.973 -0.5247  0.7230 -0.6042
19309TIP3   OH279417   1.057   4.922  11.985  0.3566 -0.2196 -0.2810
19309TIP3    H179418   1.062   4.830  12.013 -1.1449  0.0339  0.9433
19309TIP3    H279419   1.149   4.951  11.982  0.9130 -1.9386 -1.4121
19310TIP3   OH279420   4.705   5.011  11.719 -0.2352  0.9385 -0.5488
19310TIP3    H179421   4.753   4.930  11.734  0.4976  1.1026 -1.8542
19310TIP3    H279422   4.613   4.985  11.716 -0.2249  0.5345  1.3849
19311TIP3   OH279423   3.027   0.753   6.181 -0.0414  0.2953 -0.2597
19311TIP3    H179424   2.981   0.731   6.100 -1.1276  2.3628 -0.2588
19311TIP3    H279425   3.087   0.823   6.156  2.4188 -1.5691 -0.0131
19312TIP3   OH279426   2.645   0.855  10.896 -1.0615 -0.5072 -0.3280
19312TIP3    H179427   2.562   0.816  10.871 -1.3835 -0.0778  0.0346
19312TIP3    H279428   2.712   0.795  10.863 -1.5173 -0.8931 -0.5551
19313TIP3   OH279429   2.289   1.407   1.267  0.1010 -0.6642  0.2686
19313TIP3    H179430   2.227   1.342   1.299 -1.1230 -0.2507 -1.1814
19313TIP3    H279431   2.337   1.434   1.345 -1.4790 -1.0695  1.4302
19314TIP3   OH279432   4.887   2.156  13.892 -0.4870  0.0680  0.3588
19314TIP3    H179433   4.858   2.103  13.967 -1.1124 -0.1221 -0.0064
19314TIP3    H279434   4.982   2.147  13.891 -0.5512 -0.6860  0.5795
19315TIP3   OH279435   5.027   3.809   4.928 -0.2107  0.3001  0.1599
19315TIP3    H179436   5.033   3.822   4.833 -1.1682 -0.9441 -0.0963
19315TIP3    H279437   5.116   3.785   4.954 -0.3334 -1.2520 -0.7581
19316TIP3   OH279438   5.878   4.562   2.490 -0.3022 -0.0331 -0.1759
19316TIP3    H179439   5.813   4.560   2.421  1.7960 -3.4651 -2.3514
19316TIP3    H279440   5.859   4.485   2.544  1.2113 -0.4300 -0.1564
19317TIP3   OH279441   4.992   2.536  11.305 -0.1786 -0.2660  0.0784
19317TIP3    H179442   5.055   2.584  11.251  1.0692  0.1779  1.8221
19317TIP3    H279443   5.015   2.560  11.395 -2.0422 -1.1162  0.8305
19318TIP3   OH279444   2.961   3.571   5.253 -0.1435 -0.1437  0.2322
19318TIP3    H179445   2.964   3.499   5.316  0.6287 -1.1020 -0.8556
19318TIP3    H279446   2.896   3.632   5.289 -1.6689 -1.9081  0.6079
19319TIP3   OH279447   1.726   5.711   3.727 -0.1415 -0.3925  0.2343
19319TIP3    H179448   1.771   5.627   3.719 -0.3573 -0.4921  0.0521
19319TIP3    H279449   1.727   5.730   3.821  2.1138  0.6263  0.0608
19320TIP3   OH279450   1.318   1.204  15.113 -0.2071  0.2703  0.0865
19320TIP3    H179451   1.308   1.294  15.145 -1.0426  1.1020 -2.2739
19320TIP3    H279452   1.287   1.208  15.022  1.6311 -1.9799 -0.7317
19321TIP3   OH279453   3.635   5.280   1.752 -0.0250 -0.4194 -0.1738
19321TIP3    H179454   3.572   5.323   1.693 -0.0832  0.2770  0.3793
19321TIP3    H279455   3.592   5.282   1.838 -0.1656 -1.8859 -0.1822
19322TIP3   OH279456   5.700   1.017   6.014  0.1140  0.0420  0.1097
19322TIP3    H179457   5.605   1.003   6.012  0.0112  0.8030 -1.0857
19322TIP3    H279458   5.710   1.110   6.035  0.6600 -0.4052  2.0555
19323TIP3   OH279459   4.011   1.389   2.823  0.4211  0.0051 -0.2327
19323TIP3    H179460   3.992   1.483   2.827 -1.8105 -0.3630 -0.6469
19323TIP3    H279461   3.926   1.348   2.803  0.7005 -2.3266  2.5906
19324TIP3   OH279462   6.780   5.865   0.755  0.0650 -0.3707  0.2377
19324TIP3    H179463   6.756   5.924   0.827  3.1380  1.7930 -0.2942
19324TIP3    H279464   6.732   5.899   0.679 -0.2555 -0.2892  0.4737
19325TIP3   OH279465   4.131   5.959   6.338  0.2418  1.0135  0.2162
19325TIP3    H179466   4.139   6.041   6.288  0.8001  1.8097  1.5472
19325TIP3    H279467   4.198   5.902   6.302  2.0365  2.2996  1.3347
19326TIP3   OH279468   4.802   0.194   4.412  0.5294 -0.4432 -0.2118
19326TIP3    H179469   4.822   0.156   4.327 -0.2068 -0.6890 -0.2898
19326TIP3    H279470   4.727   0.252   4.396 -0.2859 -1.2727  0.4268
19327TIP3   OH279471   3.970   6.258  14.829  0.2623  0.0854 -0.0365
19327TIP3    H179472   3.957   6.324  14.761 -1.9299  0.1685  0.3735
19327TIP3    H279473   4.045   6.288  14.879  1.6715  0.2526 -2.1119
19328TIP3   OH279474   4.601   4.084   0.414 -0.3661 -0.2110  0.2865
19328TIP3    H179475   4.548   4.022   0.465  1.5992 -1.6776  0.6879
19328TIP3    H279476   4.587   4.057   0.323  0.4959 -1.3080  0.4599
19329TIP3   OH279477   1.341   2.755   4.964  0.5329  0.7072  0.3822
19329TIP3    H179478   1.292   2.703   4.900  0.3144  0.3124  0.8586
19329TIP3    H279479   1.372   2.690   5.028  0.6718  1.1007  0.7171
19330TIP3   OH279480   0.224   0.167  13.762 -0.4888 -0.1433 -0.3248
19330TIP3    H179481   0.289   0.208  13.704  0.0813  0.4701  0.7104
19330TIP3    H279482   0.270   0.156  13.845 -1.6741  0.2192  0.4035
19331TIP3   OH279483   6.022   5.967  15.709  0.1566  0.2583  0.4727
19331TIP3    H179484   6.031   5.886  15.760 -0.1637  2.1289  3.8032
19331TIP3    H279485   6.107   5.978  15.667  1.6138  0.0817  3.1611
19332TIP3   OH279486   0.752   4.466   0.457  0.0773 -1.3577  0.2767
19332TIP3    H179487   0.835   4.454   0.503  0.5721 -0.4487 -0.3426
19332TIP3    H279488   0.775   4.519   0.380 -0.9838 -1.5635 -0.1940
19333TIP3   OH279489   5.646   0.965   1.900 -0.2751 -0.1902  0.0755
19333TIP3    H179490   5.658   0.944   1.992  0.6317 -1.0047 -0.2082
19333TIP3    H279491   5.659   0.881   1.854  1.8728  0.6207 -0.9673
19334TIP3   OH279492   4.874   2.099  12.098 -0.2882 -0.2550  0.5549
19334TIP3    H179493   4.864   2.190  12.072 -0.0834 -0.5383 -0.5832
19334TIP3    H279494   4.785   2.068  12.111 -0.3924 -0.0840  0.2529
19335TIP3   OH279495   0.668   1.067  16.803  0.2618 -0.1868  0.0749
19335TIP3    H179496   0.692   0.992  16.858  0.3727  0.0721  0.3886
19335TIP3    H279497   0.752   1.107  16.781  0.1203  1.1288  1.7514
19336TIP3   OH279498   4.310   1.160   4.411  0.2441 -0.0250  0.0661
19336TIP3    H179499   4.324   1.066   4.425  0.7567 -0.1658 -1.2253
19336TIP3    H279500   4.271   1.166   4.323  2.0147  1.0731 -0.7027
19337TIP3   OH279501   0.405   2.763  16.789 -0.1773  0.1319 -0.0834
19337TIP3    H179502   0.348   2.814  16.846 -0.3626 -1.9093  1.6926
19337TIP3    H279503   0.467   2.720  16.849  0.6125 -0.9089 -1.5682
19338TIP3   OH279504   6.255   5.251   2.142 -0.2567 -0.1248 -0.4181
19338TIP3    H179505   6.269   5.321   2.206 -0.3298  1.0020 -1.5834
19338TIP3    H279506   6.224   5.296   2.063  1.7570 -1.1876 -1.9364
19339TIP3   OH279507   2.504   3.794  14.374 -0.0045 -0.6263 -0.3238
19339TIP3    H179508   2.498   3.753  14.288  0.4654 -1.4224  0.0115
19339TIP3    H279509   2.599   3.803  14.388  0.0325  3.7732 -1.8673
19340TIP3   OH279510   1.890   4.813   4.293 -0.5360  0.2602 -0.1324
19340TIP3    H179511   1.838   4.778   4.221  0.1521 -2.7866  0.7007
19340TIP3    H279512   1.864   4.760   4.369 -1.3055  3.3647  2.0086
19341TIP3   OH279513   0.773   4.239   5.580  0.4183 -0.3317 -0.4681
19341TIP3    H179514   0.786   4.263   5.487  3.0453 -0.5631 -0.2482
19341TIP3    H279515   0.812   4.312   5.628 -1.1650 -0.0929  0.4886
19342TIP3   OH279516   2.223   6.170   4.712 -0.0595 -0.5934 -0.0908
19342TIP3    H179517   2.164   6.101   4.681 -0.7585 -0.6709  1.3433
19342TIP3    H279518   2.273   6.195   4.634 -1.1075 -1.4012 -1.0607
19343TIP3   OH279519   1.199   5.211  12.560  0.0809  0.1311  0.6217
19343TIP3    H179520   1.147   5.274  12.509  0.3956 -0.7331 -0.8274
19343TIP3    H279521   1.135   5.165  12.614 -0.6686 -0.7257 -0.9349
19344TIP3   OH279522   4.511   5.262   3.610 -0.2927  0.1425  0.0498
19344TIP3    H179523   4.497   5.266   3.516  0.7594  1.4002 -0.0918
19344TIP3    H279524   4.602   5.232   3.620 -0.3357  0.1926  0.6543
19345TIP3   OH279525   0.941   0.322   2.693 -0.1304 -0.4741  0.3282
19345TIP3    H179526   0.900   0.396   2.738 -0.3641 -0.1740 -0.3548
19345TIP3    H279527   0.954   0.354   2.604  0.2959 -1.0652  0.1784
19346TIP3   OH279528   6.021   1.466  11.581 -0.0989 -0.3311 -0.0603
19346TIP3    H179529   6.042   1.558  11.563  0.1149 -0.0999  1.2855
19346TIP3    H279530   5.985   1.434  11.498 -2.1573  1.5361 -0.0120
19347TIP3   OH279531   2.192   0.334  11.237  0.3994 -0.1403 -0.1934
19347TIP3    H179532   2.212   0.353  11.145  0.9999 -0.7585 -0.1986
19347TIP3    H279533   2.267   0.368  11.285  0.4371 -0.4825 -0.0057
19348TIP3   OH279534   3.243   6.176  14.933  0.3918 -0.2808 -0.1990
19348TIP3    H179535   3.297   6.098  14.946 -0.7978 -2.0209 -4.1050
19348TIP3    H279536   3.245   6.191  14.838 -2.0350  2.5135  0.0433
19349TIP3   OH279537   3.843   6.280   0.760 -0.3725 -0.2176 -0.0671
19349TIP3    H179538   3.754   6.260   0.790 -0.7883 -0.8188 -1.6027
19349TIP3    H279539   3.830   6.320   0.674  0.8585 -0.6702 -0.4767
19350TIP3   OH279540   1.775   0.377  12.099  0.1480  0.4646  0.2984
19350TIP3    H179541   1.713   0.342  12.035  0.8299 -0.9903  0.4074
19350TIP3    H279542   1.751   0.336  12.181  1.7770 -0.8321  0.1741
19351TIP3   OH279543   2.207   5.478   4.834 -0.3568  0.3374 -0.5549
19351TIP3    H179544   2.148   5.428   4.779 -0.9965  0.1526  0.2859
19351TIP3    H279545   2.294   5.440   4.817 -0.6680 -0.2825 -0.7739
19352TIP3   OH279546   5.267   4.468   4.820 -0.0028  0.0520  0.3418
19352TIP3    H179547   5.187   4.422   4.846  0.6012 -1.3570 -0.1757
19352TIP3    H279548   5.337   4.404   4.833  0.7968  0.5983 -1.0407
19353TIP3   OH279549   2.783   2.708   1.671  0.0033  0.4186  0.2001
19353TIP3    H179550   2.810   2.799   1.655  0.1722  0.2327 -0.6404
19353TIP3    H279551   2.709   2.694   1.612 -0.8089  0.3731  1.2074
19354TIP3   OH279552   2.683   1.548  12.577  0.2426 -0.2808 -0.1588
19354TIP3    H179553   2.674   1.534  12.672  1.3597 -0.5359 -0.0798
19354TIP3    H279554   2.646   1.469  12.538 -1.6932  0.4904 -0.0196
19355TIP3   OH279555   2.868   0.892   2.045  0.1665 -0.0510 -0.0519
19355TIP3    H179556   2.920   0.832   1.992  1.8468 -0.0945  1.5693
19355TIP3    H279557   2.905   0.978   2.027 -1.1069  0.3349 -1.0340
19356TIP3   OH279558   1.876   0.585   1.558 -0.7607  0.1364 -0.0905
19356TIP3    H179559   1.901   0.516   1.496 -0.7392  0.9982 -1.0805
19356TIP3    H279560   1.870   0.541   1.642  3.0659 -0.4014  0.0739
19357TIP3   OH279561   5.616   0.610  11.498  0.3217  0.4991 -0.2159
19357TIP3    H179562   5.687   0.611  11.433 -0.5095 -0.7707 -1.1782
19357TIP3    H279563   5.570   0.692  11.482  1.4636  1.2817  0.3324
19358TIP3   OH279564   0.014   0.301   3.171  0.1055  0.1961  0.2794
19358TIP3    H179565  -0.059   0.300   3.110  0.0026 -0.2924  0.4067
19358TIP3    H279566   0.092   0.301   3.115  0.0191  1.8543  0.1315
19359TIP3   OH279567   3.062   3.361   2.020 -0.8112 -0.3896  0.1207
19359TIP3    H179568   2.997   3.354   1.950 -0.6581  0.5067 -0.1317
19359TIP3    H279569   3.070   3.456   2.035  2.5992 -0.1818 -1.9332
19360TIP3   OH279570   3.717   6.184   1.854  0.0241  0.4507 -0.3861
19360TIP3    H179571   3.694   6.121   1.785 -0.0776  1.1449 -0.9892
19360TIP3    H279572   3.635   6.230   1.873 -0.5775 -1.3557  1.9306
19361TIP3   OH279573   4.405   2.555  11.705 -0.4668 -0.1295  0.1283
19361TIP3    H179574   4.402   2.606  11.624 -0.3243  0.0009  0.2041
19361TIP3    H279575   4.327   2.581  11.753 -0.9603 -0.7693 -0.3012
19362TIP3   OH279576   3.576   1.687  14.543  0.5266  0.0415 -0.1279
19362TIP3    H179577   3.487   1.657  14.564  0.6783  0.3784  1.0330
19362TIP3    H279578   3.633   1.617  14.573  0.7602  0.6379  0.8670
19363TIP3   OH279579   1.190   0.217  16.419 -0.0195  0.6884 -0.3479
19363TIP3    H179580   1.186   0.254  16.507  0.3190 -0.2216  0.0637
19363TIP3    H279581   1.126   0.268  16.368  2.0736  3.3947 -0.4440
19364TIP3   OH279582   5.723   5.546  16.743  0.2831 -0.0771  1.0734
19364TIP3    H179583   5.813   5.525  16.769  0.3516 -0.1506  0.7840
19364TIP3    H279584   5.731   5.577  16.653 -0.2842 -2.7927 -0.0325
19365TIP3   OH279585   6.662   1.451   6.151  0.3830  0.2372 -0.0359
19365TIP3    H179586   6.674   1.541   6.181 -1.0114  0.3311  0.3308
19365TIP3    H279587   6.627   1.405   6.227  2.0030 -0.8846  0.0881
19366TIP3   OH279588   0.041   3.713   0.876  0.0347  0.4964 -0.4444
19366TIP3    H179589   0.121   3.720   0.824  0.7811  0.0554  0.6095
19366TIP3    H279590   0.052   3.632   0.926 -0.8221  0.7208  0.1284
19367TIP3   OH279591   3.942   1.708   3.240  0.0827  0.1399  0.0801
19367TIP3    H179592   3.884   1.779   3.266 -0.8876 -1.2556  2.0202
19367TIP3    H279593   3.890   1.656   3.179  0.2225  0.2637 -0.1440
19368TIP3   OH279594   4.043   2.715  15.716  0.1220 -0.0399 -0.0220
19368TIP3    H179595   4.107   2.779  15.686 -0.4517  0.3462 -0.4456
19368TIP3    H279596   4.089   2.665  15.784  1.3900 -0.7823 -1.3506
19369TIP3   OH279597   6.716   3.703   6.693 -0.1244 -0.0574 -0.5487
19369TIP3    H179598   6.685   3.612   6.689 -2.6914  0.6918  0.4866
19369TIP3    H279599   6.644   3.755   6.659  1.5236  1.6062 -1.6624
19370TIP3   OH279600   3.906   5.117  15.061  0.2456 -0.2732 -0.5247
19370TIP3    H179601   3.938   5.076  15.141 -0.9530  0.6323  0.4631
19370TIP3    H279602   3.866   5.046  15.011  2.0204 -1.0601 -0.9000
19371TIP3   OH279603   3.896   2.750   6.064 -0.6033 -0.5665  0.3506
19371TIP3    H179604   3.961   2.806   6.107 -2.0540  1.8928 -0.4217
19371TIP3    H279605   3.851   2.706   6.136 -0.0534  0.0044  1.0603
19372TIP3   OH279606   2.816   4.634   5.994 -0.3320 -0.1490  0.2879
19372TIP3    H179607   2.728   4.605   6.018  0.1455 -1.1439  0.8990
19372TIP3    H279608   2.874   4.589   6.056  0.6473  0.0394 -0.4673
19373TIP3   OH279609   2.657   3.133  13.352 -0.0745  0.1781 -0.1422
19373TIP3    H179610   2.665   3.126  13.257 -0.3952 -1.1372 -0.0907
19373TIP3    H279611   2.696   3.218  13.373 -0.0298  0.5021 -1.4438
19374TIP3   OH279612   6.335   4.897  15.403  0.2887  0.0709  0.2698
19374TIP3    H179613   6.317   4.832  15.471  1.0106 -0.1053  0.3104
19374TIP3    H279614   6.421   4.870  15.368  0.2982  0.6358 -0.1450
19375TIP3   OH279615   0.542   4.865  14.086  0.3336 -0.3637  0.1880
19375TIP3    H179616   0.456   4.842  14.121  0.3133  1.4333  1.4708
19375TIP3    H279617   0.528   4.875  13.992 -0.5482 -1.4059  0.1952
19376TIP3   OH279618   3.723   6.648  11.425 -0.0080  0.5654 -0.9587
19376TIP3    H179619   3.670   6.592  11.368 -1.7760  0.1286  0.9693
19376TIP3    H279620   3.690   6.736  11.410 -1.7749  0.2460  0.5668
19377TIP3   OH279621   0.736   2.186  12.910 -0.2948 -0.7935 -0.0052
19377TIP3    H179622   0.777   2.216  12.991 -0.2862 -1.9026  0.4113
19377TIP3    H279623   0.750   2.092  12.909 -0.3805 -0.8093 -1.2568
19378TIP3   OH279624   4.119   4.278  13.101 -0.2548  0.4621 -0.4013
19378TIP3    H179625   4.046   4.300  13.159  0.2037 -0.4867  0.5577
19378TIP3    H279626   4.195   4.270  13.159  0.1065 -1.0384 -1.0405
19379TIP3   OH279627   0.978   3.135  12.550  0.3695  0.1517 -0.8347
19379TIP3    H179628   1.051   3.164  12.604  0.9366 -1.0673 -0.9339
19379TIP3    H279629   0.911   3.202  12.564 -0.3305 -1.0964  3.0279
19380TIP3   OH279630   5.204   0.865   5.443 -0.5286  0.0529  0.1623
19380TIP3    H179631   5.112   0.872   5.417 -0.6379  0.8154  0.7139
19380TIP3    H279632   5.252   0.859   5.360 -0.9909  0.8494 -0.1732
19381TIP3   OH279633   5.869   1.516  15.321 -0.3100  0.4552  0.6271
19381TIP3    H179634   5.902   1.605  15.336  0.8275 -0.0898  1.5171
19381TIP3    H279635   5.811   1.525  15.245  1.0150  1.6924 -0.3070
19382TIP3   OH279636   1.510   3.909   2.316  0.0122 -0.2473 -0.4847
19382TIP3    H179637   1.563   3.950   2.383  2.2135 -1.2916 -1.4886
19382TIP3    H279638   1.485   3.981   2.257  0.6375  0.2117 -0.1954
19383TIP3   OH279639   5.198   2.383  14.975  0.1543 -0.3627  0.0207
19383TIP3    H179640   5.124   2.430  14.936  0.0023 -0.4250  0.2323
19383TIP3    H279641   5.184   2.390  15.069  0.4042 -0.3996  0.0620
19384TIP3   OH279642   1.076   4.157  15.201 -0.7200  0.3884  0.3916
19384TIP3    H179643   1.094   4.118  15.286  1.6805  1.0998  0.2754
19384TIP3    H279644   1.154   4.207  15.180 -1.1702  0.1150 -2.3254
19385TIP3   OH279645   6.654   1.088  11.866  0.0691  0.6553  0.5502
19385TIP3    H179646   6.618   1.156  11.808  1.0042 -0.6258 -1.6753
19385TIP3    H279647   6.701   1.138  11.933  0.0489  2.2525 -0.5393
19386TIP3   OH279648   4.527   1.518  17.044 -0.2881  0.4599  0.5507
19386TIP3    H179649   4.620   1.539  17.048 -0.0200 -0.9180  2.8204
19386TIP3    H279650   4.522   1.444  16.984 -0.0985  1.2036 -0.4128
19387TIP3   OH279651   0.094   5.836  15.862 -0.6707 -0.2367  0.4173
19387TIP3    H179652   0.062   5.800  15.779 -0.5989 -1.3403  0.8491
19387TIP3    H279653   0.061   5.926  15.863 -0.5277 -0.1403 -0.8799
19388TIP3   OH279654   1.175   3.931  14.334 -0.2143  0.2480 -0.2362
19388TIP3    H179655   1.234   3.968  14.399 -0.3180 -0.4636  0.2845
19388TIP3    H279656   1.091   3.973  14.351  0.0294  0.9279 -0.6831
19389TIP3   OH279657   3.929   3.487   6.534  0.4300  0.3817 -0.5214
19389TIP3    H179658   3.934   3.410   6.478  0.4936  0.0399 -0.0539
19389TIP3    H279659   3.925   3.561   6.474  2.4605  0.1638 -0.9750
19390TIP3   OH279660   2.308   1.108   5.498 -0.3166  0.0257  0.0496
19390TIP3    H179661   2.377   1.047   5.523 -1.2983 -1.3327 -0.4567
19390TIP3    H279662   2.283   1.152   5.579 -0.7021 -1.4172  0.7270
19391TIP3   OH279663   0.377   3.528  15.073  0.3539  0.2068  0.1143
19391TIP3    H179664   0.353   3.439  15.046 -0.2659  0.3864  0.0599
19391TIP3    H279665   0.293   3.573  15.084  0.6672  0.8123  0.0544
19392TIP3   OH279666   5.173   6.631  14.485  0.7119  0.0058  0.2466
19392TIP3    H179667   5.267   6.625  14.502  0.8124  1.4359  0.3164
19392TIP3    H279668   5.158   6.572  14.412  2.0725  1.3161 -1.1751
19393TIP3   OH279669   3.850   6.603  12.987  0.4829 -0.1479  0.2766
19393TIP3    H179670   3.775   6.548  12.962  2.9428 -3.6313 -0.1477
19393TIP3    H279671   3.863   6.660  12.911 -2.1480  1.1766  0.7053
19394TIP3   OH279672   4.808   5.124  10.896 -0.0395 -0.2996  0.0727
19394TIP3    H179673   4.836   5.164  10.814  1.9539 -2.1313 -0.2513
19394TIP3    H279674   4.755   5.049  10.870  0.4969 -0.8170  0.4277
19395TIP3   OH279675   6.474   1.071  12.379 -0.5071 -0.5562  0.3434
19395TIP3    H179676   6.474   1.000  12.443 -0.8687 -1.4608 -0.6325
19395TIP3    H279677   6.391   1.061  12.332 -0.4940  0.4201  0.0853
19396TIP3   OH279678   4.383   4.203  11.723 -0.2471 -0.7715 -0.4652
19396TIP3    H179679   4.436   4.202  11.643  0.8726  1.6408  0.1453
19396TIP3    H279680   4.293   4.195  11.692  0.1375  0.4239 -2.0424
19397TIP3   OH279681   0.175   0.612  15.614  0.1403  0.0979  0.3169
19397TIP3    H179682   0.134   0.615  15.700 -0.5226  1.1983 -0.0130
19397TIP3    H279683   0.154   0.525  15.580 -3.5280  1.1491 -0.5558
19398TIP3   OH279684   5.989   0.833  13.061 -0.9865 -0.4334 -0.0459
19398TIP3    H179685   5.926   0.845  12.989  1.7846  0.8263 -2.4933
19398TIP3    H279686   6.048   0.908  13.054 -0.2140 -0.5701  3.2861
19399TIP3   OH279687   6.039   3.424   3.341  0.3588  0.5515  0.2658
19399TIP3    H179688   6.034   3.507   3.295 -0.8984  0.1736 -0.3452
19399TIP3    H279689   6.118   3.430   3.395  0.9053  1.6778 -0.6269
19400TIP3   OH279690   1.554   3.161   5.809 -0.9112  0.3809 -0.1152
19400TIP3    H179691   1.464   3.193   5.815 -1.5919 -1.5713  1.5544
19400TIP3    H279692   1.552   3.098   5.737 -1.2299 -0.5342  0.6677
19401TIP3   OH279693   1.879   1.180  15.692  0.0299 -0.3021  0.2886
19401TIP3    H179694   1.848   1.168  15.602 -0.8493 -0.1969  0.5620
19401TIP3    H279695   1.854   1.099  15.737 -0.2852 -0.0188  0.6335
19402TIP3   OH279696   0.172   4.294   4.206 -0.0625 -0.1770  0.6068
19402TIP3    H179697   0.087   4.319   4.241 -0.0814  0.9440 -0.2038
19402TIP3    H279698   0.154   4.260   4.118  0.3382  0.1889  0.3781
19403TIP3   OH279699   6.043   4.078   3.325  0.0396 -0.0826 -0.0307
19403TIP3    H179700   5.991   4.065   3.246 -1.4944 -0.2357  0.9537
19403TIP3    H279701   6.059   3.989   3.357 -0.3975  0.0047  0.4552
19404TIP3   OH279702   4.195   2.227   2.212  0.0823 -0.2650 -0.1447
19404TIP3    H179703   4.265   2.270   2.163  0.9864  0.3205  1.5891
19404TIP3    H279704   4.212   2.134   2.203  0.1550 -0.1712 -1.0327
19405TIP3   OH279705   4.686   1.604   0.315 -0.4472 -0.0105  0.2046
19405TIP3    H179706   4.741   1.539   0.358 -0.9055 -0.8684 -0.4754
19405TIP3    H279707   4.679   1.676   0.378  1.3044  0.0482  0.3634
19406TIP3   OH279708   3.222   6.123  10.757  0.2700 -0.0147 -0.4342
19406TIP3    H179709   3.142   6.076  10.731  0.2855 -1.6738  2.1458
19406TIP3    H279710   3.197   6.215  10.756 -1.4069 -0.4297 -0.6206
19407TIP3   OH279711   3.439   1.322   1.638 -0.0451  0.2913  0.2756
19407TIP3    H179712   3.359   1.315   1.689 -0.3610  0.6808 -0.1558
19407TIP3    H279713   3.462   1.415   1.643  1.6850 -0.1696  2.3324
19408TIP3   OH279714   0.223   1.112   5.753  0.4200 -0.2782 -0.4315
19408TIP3    H179715   0.177   1.102   5.670  1.1769 -0.6875 -0.8036
19408TIP3    H279716   0.204   1.202   5.780  1.2490  0.2948 -1.6978
19409TIP3   OH279717   2.903   1.576   0.166 -0.3636  0.1668  0.4898
19409TIP3    H179718   2.934   1.492   0.203 -0.8409  0.7884  2.4165
19409TIP3    H279719   2.957   1.588   0.088 -1.5447 -2.8257 -0.9414
19410TIP3   OH279720   3.951   1.703   1.260 -0.5616  0.0078  0.4859
19410TIP3    H179721   3.902   1.690   1.178  2.1118 -0.5328 -1.1549
19410TIP3    H279722   4.041   1.716   1.232  0.8228 -2.1119  3.4180
19411TIP3   OH279723   1.308   3.421   3.495 -0.0735 -0.2482  0.0852
19411TIP3    H179724   1.323   3.387   3.407 -1.9975 -0.6039 -0.1458
19411TIP3    H279725   1.389   3.402   3.542  0.5500 -1.1185 -1.2797
19412TIP3   OH279726   4.993   5.725  16.020 -0.4543  0.2610  0.3387
19412TIP3    H179727   4.980   5.642  16.067  0.1967 -0.3659 -0.5336
19412TIP3    H279728   4.948   5.790  16.073  0.1150 -0.4419  1.7452
19413TIP3   OH279729   1.557   4.836  12.920 -0.5880 -0.2274 -0.4215
19413TIP3    H179730   1.638   4.884  12.934 -0.2636 -0.5914 -0.9891
19413TIP3    H279731   1.523   4.818  13.009 -1.5804  2.4097 -0.1952
19414TIP3   OH279732   1.781   0.759   2.884  0.6556 -0.1289  0.0108
19414TIP3    H179733   1.720   0.715   2.943  0.9491 -1.1451 -0.4320
19414TIP3    H279734   1.843   0.691   2.858  2.6503  1.0959  1.2711
19415TIP3   OH279735   2.898   1.631   0.879 -0.1397 -0.0273  0.3381
19415TIP3    H179736   2.891   1.599   0.969  0.1156 -0.4586  0.2050
19415TIP3    H279737   2.811   1.615   0.841  0.4426 -2.1059 -0.2297
19416TIP3   OH279738   1.326   3.163  14.654 -0.3648 -0.5709  0.0729
19416TIP3    H179739   1.248   3.217  14.670  0.2040  0.0623  0.7625
19416TIP3    H279740   1.316   3.088  14.713 -0.6248 -0.6717 -0.0982
19417TIP3   OH279741   0.501   5.035   1.749 -0.5602 -0.1182  0.2414
19417TIP3    H179742   0.585   5.071   1.778 -0.6765 -0.7666  1.4247
19417TIP3    H279743   0.469   5.098   1.684  1.5465 -0.6437 -1.3891
19418TIP3   OH279744   6.347   1.226  11.108 -0.1205 -0.3197 -0.4325
19418TIP3    H179745   6.308   1.292  11.050 -2.2281  1.4279  2.6934
19418TIP3    H279746   6.305   1.144  11.082 -2.3502  0.7099 -0.3372
19419TIP3   OH279747   6.748   3.961   2.715  0.2555 -0.2767 -0.7499
19419TIP3    H179748   6.792   3.926   2.638  0.1679 -0.0368 -0.9096
19419TIP3    H279749   6.803   3.933   2.789  0.8290  0.2460 -0.9643
19420TIP3   OH279750   6.428   5.489  15.612 -0.4735 -0.0386 -0.2862
19420TIP3    H179751   6.397   5.577  15.635 -1.4456 -0.2965 -0.5944
19420TIP3    H279752   6.433   5.489  15.517  0.0069 -0.1686 -0.2665
19421TIP3   OH279753   5.205   0.331  10.892 -0.2576 -0.0415 -0.0702
19421TIP3    H179754   5.132   0.298  10.944  0.9424 -0.6113  1.2994
19421TIP3    H279755   5.174   0.416  10.859 -1.5103 -0.2460  0.5152
19422TIP3   OH279756   1.504   5.571  15.680 -1.2081 -0.0912  0.2987
19422TIP3    H179757   1.590   5.538  15.654 -1.2879 -0.9115  1.0254
19422TIP3    H279758   1.442   5.507  15.645 -1.5458  0.5402 -0.2963
19423TIP3   OH279759   6.439   3.072   2.804 -0.0267  0.3133  0.5126
19423TIP3    H179760   6.420   3.152   2.756  0.1444 -0.2689 -0.5503
19423TIP3    H279761   6.535   3.065   2.803  0.0171  0.5570  1.4051
19424TIP3   OH279762   2.981   2.429  10.415 -0.0294  0.2139 -0.5647
19424TIP3    H179763   2.989   2.341  10.452 -0.8394 -0.2659 -1.5132
19424TIP3    H279764   2.905   2.425  10.357 -0.8731  1.8809  0.3379
19425TIP3   OH279765   6.335   1.822   5.097 -0.2501  0.0338  0.2821
19425TIP3    H179766   6.264   1.868   5.142 -0.8599  0.1501 -0.7761
19425TIP3    H279767   6.331   1.733   5.132  0.0160  0.3925  1.2784
19426TIP3   OH279768   0.448   1.612  13.445  0.2961 -0.3191  0.1924
19426TIP3    H179769   0.461   1.567  13.362 -1.2260 -1.7585  0.6877
19426TIP3    H279770   0.475   1.549  13.512 -0.0531  0.2063  0.8441
19427TIP3   OH279771   6.043   5.499  15.714 -0.1177 -0.5608 -0.2725
19427TIP3    H179772   6.058   5.502  15.620  0.0197  0.4786 -0.2345
19427TIP3    H279773   6.061   5.588  15.744  1.6943 -1.2891  1.0243
19428TIP3   OH279774   3.060   0.296  13.410  0.0947  0.0294  0.1438
19428TIP3    H179775   3.062   0.304  13.505 -0.3360  1.3446  0.0539
19428TIP3    H279776   3.147   0.266  13.386  0.1438 -0.5218  0.9578
19429TIP3   OH279777   2.987   5.687  13.095  0.3214  0.3137 -0.3227
19429TIP3    H179778   3.040   5.732  13.029  0.1201 -0.7446 -1.2352
19429TIP3    H279779   2.949   5.758  13.147  2.5173  1.1198  0.3080
19430TIP3   OH279780   3.487   2.983   1.043 -0.1959 -0.2293  0.1962
19430TIP3    H179781   3.532   3.055   1.086  1.9627 -1.6093  0.3749
19430TIP3    H279782   3.444   2.936   1.114  3.9005 -2.8919  1.2371
19431TIP3   OH279783   6.455   0.087   4.661  0.5121  0.6309 -0.1382
19431TIP3    H179784   6.451   0.075   4.566  0.8744  0.2921 -0.1127
19431TIP3    H279785   6.490   0.004   4.694 -0.5777  0.3504  0.3833
19432TIP3   OH279786   3.186   6.224  15.288  0.0485 -0.0807  0.4567
19432TIP3    H179787   3.193   6.142  15.337  0.0366 -0.5243 -0.2642
19432TIP3    H279788   3.125   6.204  15.217  1.2460  0.0600 -0.6685
19433TIP3   OH279789   1.136   1.683   6.555  0.6292  0.0511 -0.3611
19433TIP3    H179790   1.058   1.702   6.502 -0.3959  1.4332  1.5482
19433TIP3    H279791   1.110   1.607   6.608  0.0952  1.2107  1.1090
19434TIP3   OH279792   4.926   5.083   2.219  0.0555 -0.1275  0.6179
19434TIP3    H179793   4.970   5.001   2.242  0.9713 -0.0261 -0.6175
19434TIP3    H279794   4.916   5.078   2.124  0.8441  1.5152  0.4190
19435TIP3   OH279795   0.688   6.121  13.714  0.0010  0.5362 -0.1596
19435TIP3    H179796   0.604   6.101  13.755  1.2122 -2.8340  0.9994
19435TIP3    H279797   0.679   6.089  13.624 -0.6415  2.3010 -0.7600
19436TIP3   OH279798   6.709   5.438  15.029 -0.1418  0.1762 -0.2777
19436TIP3    H179799   6.748   5.521  15.002 -0.7702 -0.0717 -2.1036
19436TIP3    H279800   6.781   5.375  15.025  0.4494  0.6916  1.5908
19437TIP3   OH279801   4.297   4.848  12.244 -0.3443 -0.2169 -0.4863
19437TIP3    H179802   4.381   4.804  12.229 -0.4629 -0.1023 -1.5381
19437TIP3    H279803   4.317   4.920  12.304  0.4281  0.1877 -1.2172
19438TIP3   OH279804   5.161   6.063  14.133  0.4642 -0.0860  0.0351
19438TIP3    H179805   5.136   6.059  14.041 -1.3508  1.7297  0.3871
19438TIP3    H279806   5.191   6.153  14.147  0.0862 -0.1371  1.3511
19439TIP3   OH279807   5.793   0.621  13.920  0.5277 -0.4480 -0.0542
19439TIP3    H179808   5.867   0.586  13.971  1.6799  0.3586 -1.1174
19439TIP3    H279809   5.746   0.677  13.982  2.3532  1.1493 -0.0250
19440TIP3   OH279810   2.034   6.204  13.388 -0.5511  0.7325  0.0275
19440TIP3    H179811   2.036   6.235  13.298  0.2246  1.0848  0.1532
19440TIP3    H279812   2.120   6.228  13.424 -0.5617 -0.0627  0.6332
19441TIP3   OH279813   2.489   0.747  13.934  0.3188 -0.3359 -0.5392
19441TIP3    H179814   2.414   0.712  13.886 -2.4068  0.9431  2.4508
19441TIP3    H279815   2.526   0.671  13.979 -1.1859 -0.5498  0.4029
19442TIP3   OH279816   4.712   5.906   4.773  0.2653 -0.4894 -0.0573
19442TIP3    H179817   4.669   5.940   4.694  0.2535  0.1208  0.2079
19442TIP3    H279818   4.760   5.981   4.808  0.7266 -0.9049  0.2086
19443TIP3   OH279819   3.849   5.720   6.266 -0.2565 -0.1087 -0.1043
19443TIP3    H179820   3.820   5.776   6.337  3.2196 -0.0018  1.4181
19443TIP3    H279821   3.881   5.640   6.308  0.4383 -0.7182 -1.6699
19444TIP3   OH279822   5.553   1.981  12.439 -0.7472 -0.1436  0.0803
19444TIP3    H179823   5.474   1.984  12.493 -2.5023  1.9128 -2.3276
19444TIP3    H279824   5.561   1.890  12.411 -2.9446 -0.2270 -0.4439
19445TIP3   OH279825   4.938   4.005   2.364  0.0852  0.1239 -0.0402
19445TIP3    H179826   4.951   4.026   2.456 -1.2286  1.3373 -0.1106
19445TIP3    H279827   4.871   3.937   2.363  0.8367 -0.6486 -0.0821
19446TIP3   OH279828   2.851   3.830  15.759 -0.0917 -0.1677  0.6758
19446TIP3    H179829   2.875   3.923  15.755  1.3349 -0.5580 -1.1272
19446TIP3    H279830   2.885   3.800  15.844 -0.0745  0.8265  1.0315
19447TIP3   OH279831   3.526   5.525   2.272 -0.1289 -0.1623 -0.3029
19447TIP3    H179832   3.600   5.475   2.306  0.7506  2.2827  1.6417
19447TIP3    H279833   3.558   5.560   2.189  0.3796 -0.2327 -0.1406
19448TIP3   OH279834   4.228   2.600   2.797 -0.6912  0.0807 -0.2207
19448TIP3    H179835   4.185   2.628   2.716  0.7348  1.4767 -0.5512
19448TIP3    H279836   4.192   2.658   2.864 -1.4143 -0.6634  0.0455
19449TIP3   OH279837   3.970   6.118   2.950  0.0579  0.0241  0.8636
19449TIP3    H179838   3.999   6.205   2.978  2.1776 -0.9985  2.1171
19449TIP3    H279839   4.051   6.066   2.946 -0.9775 -1.5585 -1.1863
19450TIP3   OH279840   4.400   0.841   6.365 -0.6729 -0.0120  0.5723
19450TIP3    H179841   4.393   0.754   6.404  0.1363 -0.5995 -0.5140
19450TIP3    H279842   4.309   0.866   6.345 -0.9360 -0.4607  1.1755
19451TIP3   OH279843   1.371   0.150  15.913 -0.0209 -0.2443  0.3296
19451TIP3    H179844   1.400   0.214  15.978 -0.9323  1.0092 -0.4621
19451TIP3    H279845   1.284   0.179  15.887  0.4948 -0.4537 -1.7701
19452TIP3   OH279846   3.777   6.753   2.458 -0.1376  0.1912 -0.1712
19452TIP3    H179847   3.738   6.678   2.505  0.5303 -0.3185 -0.4195
19452TIP3    H279848   3.813   6.808   2.527 -0.6982  0.3268  0.0194
19453TIP3   OH279849   3.368   4.669   2.850  0.5405 -0.1385 -0.1961
19453TIP3    H179850   3.304   4.738   2.832  1.0279 -0.1257 -2.0046
19453TIP3    H279851   3.320   4.606   2.904 -0.0725  1.3109  1.0569
19454TIP3   OH279852   0.229   2.255   6.037 -0.1883  0.2988  0.1963
19454TIP3    H179853   0.297   2.308   5.995 -0.3493  0.0993 -0.3364
19454TIP3    H279854   0.268   2.227   6.119  0.0409  0.9200  0.3050
19455TIP3   OH279855   3.677   6.417  11.634  0.1802 -0.0958  0.1537
19455TIP3    H179856   3.731   6.383  11.705  1.3214  1.1847 -0.0719
19455TIP3    H279857   3.739   6.443  11.566 -0.6447  1.7947  0.0504
19456TIP3   OH279858   0.525   0.694  14.137 -0.4300 -0.8114  0.5831
19456TIP3    H179859   0.617   0.709  14.118 -0.3577 -0.6384  1.0579
19456TIP3    H279860   0.506   0.607  14.100 -0.2327 -0.5929 -0.0367
19457TIP3   OH279861   5.506   3.437  10.376 -0.2133 -0.3175 -0.0025
19457TIP3    H179862   5.458   3.358  10.350 -2.9039  1.8955 -2.3563
19457TIP3    H279863   5.493   3.442  10.471 -0.6975 -2.2336  0.0741
19458TIP3   OH279864   2.304   0.724  11.359 -0.2691  0.4907 -0.4163
19458TIP3    H179865   2.215   0.694  11.374 -0.2056  0.5393  0.0889
19458TIP3    H279866   2.359   0.650  11.385 -0.1641  0.4257 -0.8194
19459TIP3   OH279867   4.510   2.169   5.061  0.4580 -0.1909  0.1020
19459TIP3    H179868   4.564   2.201   5.133  0.5856  0.6628 -0.3616
19459TIP3    H279869   4.433   2.131   5.104  1.2751 -1.1697  0.7542
19460TIP3   OH279870   1.933   2.740   5.597 -0.4830 -0.0134  0.2243
19460TIP3    H179871   1.948   2.688   5.675 -0.4536 -2.2511 -1.1983
19460TIP3    H279872   2.018   2.780   5.578 -0.3420  0.0534  0.9688
19461TIP3   OH279873   6.047   5.543   3.226  0.1287 -0.2272 -0.5401
19461TIP3    H179874   6.125   5.504   3.188 -0.9900 -1.2251 -1.9356
19461TIP3    H279875   6.055   5.637   3.208  0.6477 -0.4227 -1.3648
19462TIP3   OH279876   2.543   5.101  12.642 -0.7548  0.3477  0.2222
19462TIP3    H179877   2.574   5.019  12.680  0.1713  0.6413  0.1483
19462TIP3    H279878   2.495   5.144  12.713 -1.9325 -0.5949  0.0234
19463TIP3   OH279879   4.713   5.490  11.298 -0.3374  0.6443  0.4916
19463TIP3    H179880   4.746   5.420  11.241  0.3529 -1.1423  2.9053
19463TIP3    H279881   4.634   5.453  11.338  0.7051  0.6499  2.7318
19464TIP3   OH279882   2.819   2.780   5.416  0.4688  0.8794 -0.5727
19464TIP3    H179883   2.729   2.803   5.436  0.4402 -1.4352  2.7452
19464TIP3    H279884   2.814   2.728   5.336 -1.1946  0.4836 -0.2357
19465TIP3   OH279885   1.011   5.434  13.476  0.0634 -0.5870  0.3103
19465TIP3    H179886   0.932   5.404  13.520 -3.0542  5.6009 -0.0761
19465TIP3    H279887   0.987   5.438  13.384  1.1844  0.4504  0.0418
19466TIP3   OH279888   4.018   3.613   3.599  0.3610  0.0241  0.4430
19466TIP3    H179889   4.018   3.699   3.640  1.6914 -0.0314  0.5982
19466TIP3    H279890   4.005   3.630   3.506  0.5371  0.3866  0.4842
19467TIP3   OH279891   5.145   1.182   2.346 -0.4901  0.5696  0.0637
19467TIP3    H179892   5.050   1.190   2.345 -0.5121  0.6048  1.0608
19467TIP3    H279893   5.177   1.258   2.299 -0.9895 -0.5544 -2.1966
19468TIP3   OH279894   6.154   0.730   4.647 -0.2140  0.7817 -0.1635
19468TIP3    H179895   6.148   0.678   4.567 -1.3978  1.9520 -0.9057
19468TIP3    H279896   6.083   0.697   4.703 -0.1558  0.7446 -0.1131
19469TIP3   OH279897   0.343   6.364   2.592 -0.5271  0.5777 -0.4278
19469TIP3    H179898   0.407   6.310   2.546 -1.7328 -0.4790 -0.9335
19469TIP3    H279899   0.258   6.333   2.559 -1.3938  0.5596  1.6917
19470TIP3   OH279900   2.489   3.622  16.307  0.2974  0.2561 -0.2399
19470TIP3    H179901   2.518   3.586  16.392  1.8051 -1.6450 -1.4711
19470TIP3    H279902   2.395   3.639  16.320  0.2992 -0.7470  1.5725
19471TIP3   OH279903   3.282   2.299  11.409 -0.5022  0.3618  0.2944
19471TIP3    H179904   3.340   2.249  11.352 -0.1270  3.0639 -1.8812
19471TIP3    H279905   3.197   2.298  11.364 -0.8297  0.6230  0.8892
19472TIP3   OH279906   6.530   0.443  13.913 -0.0198 -0.2583  0.0334
19472TIP3    H179907   6.623   0.465  13.908 -0.2580  0.4954 -2.5749
19472TIP3    H279908   6.511   0.399  13.830 -2.2377  0.7383 -0.0678
19473TIP3   OH279909   0.871   3.796   2.338 -0.1523  0.2880  0.0501
19473TIP3    H179910   0.912   3.844   2.411 -0.2133 -1.0881  1.0314
19473TIP3    H279911   0.810   3.736   2.381  1.3075 -2.0183 -0.9637
19474TIP3   OH279912   2.643   1.260   5.366  0.1953  0.3614 -0.5012
19474TIP3    H179913   2.672   1.347   5.394  2.0667  0.0502 -1.3088
19474TIP3    H279914   2.663   1.203   5.440 -0.1512  0.4446 -0.3383
19475TIP3   OH279915   1.977   5.379   1.915  0.3552 -0.6703 -0.0437
19475TIP3    H179916   1.891   5.413   1.888  0.4988  1.0945  1.5210
19475TIP3    H279917   2.012   5.337   1.837  0.3053  3.1290 -2.3806
19476TIP3   OH279918   4.544   0.527   1.697  0.8098  0.0799 -0.0743
19476TIP3    H179919   4.626   0.503   1.654  0.7707 -0.3746  0.0951
19476TIP3    H279920   4.570   0.571   1.777  0.8842  0.7436 -0.4592
19477TIP3   OH279921   4.637   1.147   2.378  0.3718  0.6236  0.0115
19477TIP3    H179922   4.546   1.172   2.392  0.5863  0.6898  1.3607
19477TIP3    H279923   4.684   1.186   2.451  1.3657 -0.0964 -0.2318
19478TIP3   OH279924   4.779   6.465   0.433  0.0501  0.2693 -0.5128
19478TIP3    H179925   4.712   6.478   0.500 -0.0121  0.2895 -0.5784
19478TIP3    H279926   4.794   6.370   0.431 -1.2109  0.0653 -1.6874
19479TIP3   OH279927   6.738   4.701  12.734  0.2347  0.1428  0.0807
19479TIP3    H179928   6.677   4.766  12.768  0.3820 -0.5105  1.7041
19479TIP3    H279929   6.683   4.627  12.709  0.2338  0.1591  0.0340
19480TIP3   OH279930   3.095   1.263   2.287  0.3153  0.3056 -0.5891
19480TIP3    H179931   3.188   1.269   2.310 -0.0632  0.0040  1.2402
19480TIP3    H279932   3.057   1.213   2.359 -1.0558 -0.7529 -1.9879
19481TIP3   OH279933   6.766   2.198  16.320 -0.5867 -0.1548  0.1186
19481TIP3    H179934   6.760   2.267  16.253 -0.3445  0.8397  1.0949
19481TIP3    H279935   6.759   2.244  16.403  0.9044 -1.1458  0.8417
19482TIP3   OH279936   0.246   2.007   2.848  0.3150  0.0339  0.3052
19482TIP3    H179937   0.226   2.086   2.899 -0.6939 -0.5893  0.9180
19482TIP3    H279938   0.337   1.988   2.868  0.3863  0.6918  0.6359
19483TIP3   OH279939   1.196   4.952  13.615 -0.3900 -0.3751  0.3274
19483TIP3    H179940   1.187   5.037  13.657 -2.0640 -0.1621 -0.3703
19483TIP3    H279941   1.272   4.962  13.557  1.0809 -0.2454  2.1744
19484TIP3   OH279942   0.478   3.629   4.062  0.2724 -0.2057  0.1495
19484TIP3    H179943   0.490   3.705   4.006  0.3498 -0.3396 -0.0177
19484TIP3    H279944   0.547   3.636   4.128 -0.7097  0.7296  1.1116
19485TIP3   OH279945   2.952   1.497  13.228 -0.2671 -0.1285  0.2449
19485TIP3    H179946   2.911   1.522  13.145 -0.5210 -1.3214  0.0045
19485TIP3    H279947   2.891   1.530  13.295  0.3822  1.6546  0.0312
19486TIP3   OH279948   1.732   6.084   0.428  0.0907  0.0156 -0.7365
19486TIP3    H179949   1.764   6.014   0.371 -1.3441 -0.3176 -1.1634
19486TIP3    H279950   1.661   6.044   0.478 -1.5289  1.4193 -1.8024
19487TIP3   OH279951   5.621   4.978  14.964  0.2464 -0.3811 -0.0973
19487TIP3    H179952   5.670   4.912  15.012 -0.8733 -0.9068  0.3662
19487TIP3    H279953   5.597   5.043  15.030  0.9014  0.2429 -0.4542
19488TIP3   OH279954   1.970   6.542  11.881 -0.3337 -0.0002 -0.3889
19488TIP3    H179955   1.994   6.508  11.967 -0.4865  0.5717 -0.1157
19488TIP3    H279956   2.050   6.534  11.829 -0.9278 -2.9137 -1.0599
19489TIP3   OH279957   5.093   0.679  15.238  0.4795 -0.3739 -0.3274
19489TIP3    H179958   5.185   0.703  15.230  0.2345  0.4329 -0.8188
19489TIP3    H279959   5.049   0.725  15.166 -0.1332 -1.6470 -0.8026
19490TIP3   OH279960   2.215   3.155  15.438 -0.1797 -0.2320  0.0487
19490TIP3    H179961   2.299   3.171  15.393  0.0101  1.1602  0.8540
19490TIP3    H279962   2.197   3.062  15.421  1.4019 -0.5071 -0.3516
19491TIP3   OH279963   3.105   4.582   4.184  0.3236 -0.4708 -0.1535
19491TIP3    H179964   3.055   4.556   4.261  0.0109  0.3656 -0.0663
19491TIP3    H279965   3.067   4.666   4.157  0.9625 -0.3568 -0.7334
19492TIP3   OH279966   2.094   4.174   2.521  0.3368  0.0135  0.7744
19492TIP3    H179967   2.161   4.210   2.580 -0.6301  0.8581  1.3951
19492TIP3    H279968   2.013   4.175   2.573  0.0229 -2.0346  0.4248
19493TIP3   OH279969   6.568   0.046   5.082  0.1468  0.1971 -0.2092
19493TIP3    H179970   6.510  -0.007   5.028 -0.2066  0.1322  0.2316
19493TIP3    H279971   6.565   0.133   5.043  1.2654 -0.2559 -1.3557
19494TIP3   OH279972   6.650   1.552  12.885 -0.1836  0.3811  0.2310
19494TIP3    H179973   6.621   1.618  12.948  0.8077  0.4856  0.5937
19494TIP3    H279974   6.669   1.474  12.939 -3.6215 -1.0699 -0.4094
19495TIP3   OH279975   4.947   2.836  13.985  0.4260  0.1595  0.0627
19495TIP3    H179976   4.889   2.776  14.030  1.2206  1.5128  3.1838
19495TIP3    H279977   5.034   2.797  13.994  0.5562  0.2300 -0.7759
19496TIP3   OH279978   1.425   5.166  16.446 -0.4199  0.2820  0.2676
19496TIP3    H179979   1.437   5.255  16.478 -2.5762  1.3567 -1.6484
19496TIP3    H279980   1.397   5.116  16.523  1.3526  1.0830  1.4857
19497TIP3   OH279981   6.608   4.869   4.209  0.0077 -0.1675  0.0671
19497TIP3    H179982   6.625   4.927   4.134  1.3858  0.9697  1.1921
19497TIP3    H279983   6.686   4.814   4.215 -0.3322 -0.6253  0.3550
19498TIP3   OH279984   4.849   1.387  15.216  0.7744 -0.5479 -0.1187
19498TIP3    H179985   4.871   1.464  15.165 -1.0199  0.9309  1.1772
19498TIP3    H279986   4.771   1.351  15.173  0.5978 -0.6223  0.2542
19499TIP3   OH279987   5.673   1.977  10.926  0.2319  0.0699 -0.0049
19499TIP3    H179988   5.759   1.948  10.896  0.7405  1.2620  0.2216
19499TIP3    H279989   5.671   2.071  10.907 -0.0761  0.5512  2.1118
19500TIP3   OH279990   3.271   6.676  10.523  0.2748  0.4460  0.0399
19500TIP3    H179991   3.268   6.609  10.454 -0.8320 -0.6890  1.1467
19500TIP3    H279992   3.201   6.737  10.499  1.8524  1.7818 -1.4587
19501TIP3   OH279993   4.730   1.626  15.369  0.1044  0.2593 -0.5170
19501TIP3    H179994   4.766   1.695  15.314  0.0618  1.7410  1.2397
19501TIP3    H279995   4.780   1.548  15.344  1.1397  1.2081 -1.5439
19502TIP3   OH279996   0.512   4.719   4.220 -1.1939  0.6767  0.1299
19502TIP3    H179997   0.576   4.648   4.209 -0.4598  1.3122  0.2103
19502TIP3    H279998   0.493   4.748   4.131  0.0063  1.6712  0.1694
19503TIP3   OH279999   1.094   4.040  12.574 -0.6030 -0.0183 -0.2754
19503TIP3    H180000   1.062   4.103  12.509  1.1905  1.7417  0.4453
19503TIP3    H280001   1.043   4.060  12.653 -1.0596 -0.5031 -0.4377
19504TIP3   OH280002   3.658   2.290   0.350 -0.8830  0.0813 -0.2198
19504TIP3    H180003   3.629   2.316   0.437 -0.4673 -2.2712  0.6788
19504TIP3    H280004   3.577   2.280   0.300 -1.4104 -1.9589  0.9461
19505TIP3   OH280005   1.424   6.774   5.491  0.7589  0.2347  0.7300
19505TIP3    H180006   1.486   6.746   5.424  0.3660 -0.7747  0.7603
19505TIP3    H280007   1.342   6.789   5.444  1.2811  2.7823  0.4885
19506TIP3   OH280008   6.354   6.315  11.785 -0.1273 -0.8904 -0.2005
19506TIP3    H180009   6.283   6.322  11.722 -0.5461 -1.4587  0.1963
19506TIP3    H280010   6.434   6.318  11.733 -0.4527 -0.7630 -0.6945
19507TIP3   OH280011   1.681   2.681   5.837 -0.5274 -0.6288 -0.2688
19507TIP3    H180012   1.689   2.733   5.917  0.3837  0.6651 -1.1646
19507TIP3    H280013   1.770   2.651   5.819 -0.4752  0.1981 -1.4939
19508TIP3   OH280014   6.082   2.587  15.416 -0.3974 -0.1776 -0.3426
19508TIP3    H180015   6.056   2.654  15.353 -2.2498  0.4794  1.0209
19508TIP3    H280016   6.111   2.637  15.493  0.8599 -0.9550 -0.2913
19509TIP3   OH280017   1.405   4.185   3.090 -0.8290 -0.4154  0.2403
19509TIP3    H180018   1.447   4.217   3.010  1.5924  0.0734  1.6203
19509TIP3    H280019   1.325   4.237   3.097 -0.8072 -0.0894 -1.5590
19510TIP3   OH280020   1.170   2.256   3.938  0.5298 -0.0639 -0.5146
19510TIP3    H180021   1.209   2.168   3.942 -0.3742 -0.5876 -2.4364
19510TIP3    H280022   1.091   2.245   3.887  0.8740  2.0458 -1.5929
19511TIP3   OH280023   0.128   1.571   5.267 -0.3220  0.1730  0.1355
19511TIP3    H180024   0.178   1.651   5.251 -1.8797  1.3625  0.8655
19511TIP3    H280025   0.164   1.535   5.348 -1.2613  1.5926  1.2364
19512TIP3   OH280026   0.277   3.308   0.459  0.4769  0.2714 -0.1211
19512TIP3    H180027   0.293   3.358   0.539 -0.4245 -0.7516  0.7319
19512TIP3    H280028   0.247   3.373   0.396  0.6959  1.0185  0.5276
19513TIP3   OH280029   4.787   1.400  16.170 -0.3554 -0.1317  0.1148
19513TIP3    H180030   4.827   1.451  16.099 -0.4510 -0.0196  0.1410
19513TIP3    H280031   4.712   1.357  16.129 -0.5487  0.1162  0.1985
19514TIP3   OH280032   0.922   2.550  16.030 -0.2706 -0.1051 -0.7615
19514TIP3    H180033   0.863   2.610  16.075  0.6983 -0.4498  1.0735
19514TIP3    H280034   0.951   2.598  15.952  0.4241  1.8218  0.6061
19515TIP3   OH280035   5.697   0.556   0.193 -0.2070 -0.2895  0.4448
19515TIP3    H180036   5.783   0.585   0.225 -1.4522  1.6475  2.2120
19515TIP3    H280037   5.644   0.546   0.272 -2.3584  1.0683 -0.7581
19516TIP3   OH280038   1.481   4.485   1.857 -0.1012  0.0572  0.4368
19516TIP3    H180039   1.533   4.432   1.917 -0.5688  0.2909  1.0608
19516TIP3    H280040   1.390   4.471   1.884 -0.3564 -0.2079 -0.5282
19517TIP3   OH280041   0.130   1.403   1.716  0.1887 -0.1601 -0.1842
19517TIP3    H180042   0.056   1.418   1.775  0.4169 -0.9245  0.3082
19517TIP3    H280043   0.199   1.370   1.772  0.6461 -0.2163 -0.7753
19518TIP3   OH280044   2.417   5.958  15.863  0.0486 -0.1825  0.3752
19518TIP3    H180045   2.491   5.966  15.803  0.4105  1.1742  0.9612
19518TIP3    H280046   2.344   5.999  15.817  0.3920  1.1022  0.9382
19519TIP3   OH280047   0.060   4.591   4.610  0.4316  0.0846  0.5067
19519TIP3    H180048   0.041   4.651   4.682 -1.0357  1.8944 -1.2779
19519TIP3    H280049   0.152   4.605   4.590  0.0630  1.9709 -0.0149
19520TIP3   OH280050   6.723   0.453  11.045  0.5266  0.1927  0.0779
19520TIP3    H180051   6.655   0.516  11.067 -1.4274 -0.5506 -3.2246
19520TIP3    H280052   6.693   0.370  11.082  0.1272  0.0535 -0.5590
19521TIP3   OH280053   6.465   3.920   3.880 -0.2112  0.4916  0.2926
19521TIP3    H180054   6.541   3.871   3.851 -1.7389 -1.8270 -0.0842
19521TIP3    H280055   6.474   3.926   3.975  1.9942  3.1762  0.0407
19522TIP3   OH280056   0.699   5.942   1.037 -1.3133  0.2380 -0.5772
19522TIP3    H180057   0.629   5.950   0.972  0.3705 -0.7219 -2.6052
19522TIP3    H280058   0.735   5.854   1.023 -0.1517  0.4465  0.8866
19523TIP3   OH280059   3.610   2.850  14.430  0.1305 -0.0128  0.2789
19523TIP3    H180060   3.633   2.778  14.371  0.1598 -0.5139  0.8893
19523TIP3    H280061   3.689   2.863  14.483 -0.0891  0.0496  0.5896
19524TIP3   OH280062   5.906   3.878  14.722  0.1549  0.1954 -0.3690
19524TIP3    H180063   5.880   3.966  14.750  0.1414  0.4134 -1.0422
19524TIP3    H280064   5.989   3.862  14.766 -0.4342  0.0505  0.7187
19525TIP3   OH280065   4.074   5.193   5.516  0.4124 -0.5676  0.8420
19525TIP3    H180066   4.005   5.194   5.583  0.1518  1.4263  0.6149
19525TIP3    H280067   4.153   5.216   5.565  0.1742  1.1617  0.4634
19526TIP3   OH280068   3.575   5.147   5.210  0.7202  0.1679  0.6135
19526TIP3    H180069   3.653   5.185   5.251  0.2602  0.3510  1.3387
19526TIP3    H280070   3.504   5.164   5.273  0.1067 -0.0470 -0.0087
19527TIP3   OH280071   3.609   3.238   1.086  0.0519 -0.0414  0.4580
19527TIP3    H180072   3.654   3.279   1.160 -0.0369 -0.7787  0.9313
19527TIP3    H280073   3.599   3.308   1.022  1.7771  0.1786  0.3803
19528TIP3   OH280074   1.081   6.508   3.966  0.8686  0.0128  0.0259
19528TIP3    H180075   1.174   6.484   3.960  1.2872  1.0875  1.4886
19528TIP3    H280076   1.038   6.432   4.004  1.1631 -0.4507 -0.5580
19529TIP3   OH280077   1.558   1.775   3.055  0.0041 -0.7412 -0.5420
19529TIP3    H180078   1.626   1.839   3.033  0.5110 -1.0165  0.1688
19529TIP3    H280079   1.488   1.791   2.992  0.2656  0.2882 -0.5892
19530TIP3   OH280080   5.756   4.905  13.378  0.0610  0.0421  0.1102
19530TIP3    H180081   5.757   4.826  13.432  0.0027  0.2061  0.3532
19530TIP3    H280082   5.848   4.924  13.362  0.0568 -0.6665 -0.8226
19531TIP3   OH280083   3.868   6.317  17.255 -0.0898  0.0022  0.2997
19531TIP3    H180084   3.848   6.225  17.236  1.2007 -0.7366  2.1772
19531TIP3    H280085   3.792   6.348  17.304 -0.2286 -0.2831  0.2713
19532TIP3   OH280086   1.450   5.970  14.506  0.4207  0.4341 -0.0066
19532TIP3    H180087   1.540   5.977  14.475  1.1032  0.0101  1.7490
19532TIP3    H280088   1.434   6.052  14.553 -0.9959  1.5851 -2.3458
19533TIP3   OH280089   3.496   5.982   0.840 -0.7533  0.6218  0.0109
19533TIP3    H180090   3.497   6.011   0.932 -2.1566 -0.5796  0.4398
19533TIP3    H280091   3.552   5.904   0.839  0.8165  1.7025 -0.5889
19534TIP3   OH280092   0.381   6.706  16.733  0.3089  0.0438  0.1568
19534TIP3    H180093   0.411   6.781  16.681 -0.5391 -0.7478 -1.5296
19534TIP3    H280094   0.294   6.731  16.763  0.6771  0.3751  0.9863
19535TIP3   OH280095   4.371   4.331   1.771  0.5830 -0.2573 -0.0740
19535TIP3    H180096   4.302   4.365   1.713 -0.1112 -3.6051 -1.4377
19535TIP3    H280097   4.452   4.343   1.721  0.7841  1.7101  0.6261
19536TIP3   OH280098   1.030   2.592   1.715  0.0322 -0.5214  0.1577
19536TIP3    H180099   1.012   2.562   1.625 -1.4918 -1.7571  0.8222
19536TIP3    H280100   1.070   2.517   1.758 -1.4017 -0.7622  1.1327
19537TIP3   OH280101   1.421   3.633  14.993 -0.6026 -0.3243  0.2258
19537TIP3    H180102   1.464   3.561  15.039  0.1903 -0.9691 -1.4445
19537TIP3    H280103   1.329   3.626  15.019 -0.9184 -3.1118 -1.2750
19538TIP3   OH280104   4.711   6.455  14.420  0.1224 -0.0631  0.0088
19538TIP3    H180105   4.754   6.442  14.335  0.9263 -0.7575  0.5136
19538TIP3    H280106   4.621   6.425  14.406  0.1183  0.2629 -0.7204
19539TIP3   OH280107   2.218   0.060   4.524  0.0079  0.5410 -0.3961
19539TIP3    H180108   2.152   0.006   4.481 -0.9831  1.3835  0.0425
19539TIP3    H280109   2.301   0.017   4.503 -0.2052  1.6125 -4.3804
19540TIP3   OH280110   5.300   6.158  11.427 -0.0813  0.0700 -0.2022
19540TIP3    H180111   5.223   6.191  11.381 -0.2689 -0.6922 -0.4443
19540TIP3    H280112   5.370   6.159  11.362 -0.1903 -0.3993 -0.3304
19541TIP3   OH280113   2.822   1.780  16.704  0.2259  0.1434  0.2055
19541TIP3    H180114   2.776   1.835  16.641 -0.2942  1.5220  1.7182
19541TIP3    H280115   2.914   1.807  16.697 -0.0890  1.6001  1.2592
19542TIP3   OH280116   3.173   5.290  15.072  0.1074  0.4308  0.4040
19542TIP3    H180117   3.099   5.350  15.081  0.1229  0.2750  1.9787
19542TIP3    H280118   3.249   5.344  15.091  0.3940  0.5308 -0.9564
19543TIP3   OH280119   0.283   5.387  12.351  0.1262 -0.1975  0.1539
19543TIP3    H180120   0.334   5.465  12.333  1.0895 -0.7219  0.5339
19543TIP3    H280121   0.276   5.385  12.446 -0.5512 -0.1671  0.1069
19544TIP3   OH280122   2.972   2.654  14.228  0.3350 -0.3354 -0.8567
19544TIP3    H180123   2.962   2.592  14.156  0.8225  0.5547 -1.7022
19544TIP3    H280124   2.902   2.630  14.290 -0.2032 -0.9940 -1.6964
19545TIP3   OH280125   0.193   3.871  14.828  0.0220 -0.2876  0.3974
19545TIP3    H180126   0.159   3.938  14.887  2.0098  0.4153  0.8332
19545TIP3    H280127   0.189   3.911  14.741 -1.7752 -0.8718  0.1598
19546TIP3   OH280128   4.452   3.795  16.581  0.6392  0.3259  0.2456
19546TIP3    H180129   4.466   3.857  16.510 -0.2324 -0.3680 -0.5568
19546TIP3    H280130   4.523   3.813  16.642  1.5084  0.8288 -0.8710
19547TIP3   OH280131   1.664   2.298   3.511  0.3706  0.0418  0.2100
19547TIP3    H180132   1.718   2.240   3.457  1.9578  1.4961  0.1437
19547TIP3    H280133   1.575   2.265   3.500  1.0364 -1.5047 -0.9191
19548TIP3   OH280134   5.777   5.558   4.334  0.9748  0.0573 -0.1284
19548TIP3    H180135   5.738   5.644   4.349 -1.5104 -1.2344  1.5927
19548TIP3    H280136   5.853   5.555   4.392 -0.1076  0.4276  1.3861
19549TIP3   OH280137   2.519   5.663  12.397 -0.0353 -0.1663  0.4795
19549TIP3    H180138   2.455   5.640  12.330 -0.2164 -0.8951  0.8991
19549TIP3    H280139   2.492   5.615  12.475 -0.3978  1.4375  1.3923
19550TIP3   OH280140   3.900   1.931  13.980 -0.2133  0.6714  0.4384
19550TIP3    H180141   3.871   1.893  13.898  0.5246  0.6029  0.2052
19550TIP3    H280142   3.982   1.974  13.959 -0.1494  0.8761  1.0863
19551TIP3   OH280143   2.305   1.160   2.208 -0.0692 -0.1753  0.1187
19551TIP3    H180144   2.346   1.131   2.289 -0.9078  0.2831  0.7238
19551TIP3    H280145   2.363   1.227   2.173  0.5305 -0.7036  0.0981
19552TIP3   OH280146   6.701   5.248   2.725  0.5608 -0.3708 -0.1535
19552TIP3    H180147   6.613   5.235   2.759  0.7405  0.9322  0.8481
19552TIP3    H280148   6.699   5.334   2.684  1.2334 -0.5738 -0.6436
19553TIP3   OH280149   2.418   4.762  12.248  0.1993 -0.2159 -0.1136
19553TIP3    H180150   2.442   4.679  12.291 -0.3664  0.9423  2.7059
19553TIP3    H280151   2.348   4.738  12.187  1.4862 -2.0817 -0.9537
19554TIP3   OH280152   2.970   0.946  13.122 -0.1556  0.3895  0.1957
19554TIP3    H180153   2.946   1.000  13.046  0.6527  1.3935  0.6230
19554TIP3    H280154   2.917   0.867  13.113  0.2545  0.2881 -1.6544
19555TIP3   OH280155   2.758   5.348   3.728  0.1946  0.5139 -0.1786
19555TIP3    H180156   2.814   5.424   3.709 -0.6103  1.2407  0.2661
19555TIP3    H280157   2.817   5.273   3.727  1.4690  1.4138  1.7413
19556TIP3   OH280158   4.718   4.133  16.621 -0.1240 -0.1455  0.0691
19556TIP3    H180159   4.798   4.130  16.568 -0.7411  0.1431 -0.8994
19556TIP3    H280160   4.734   4.205  16.683  0.7850 -0.7822  0.5909
19557TIP3   OH280161   4.635   0.047   6.103  0.4106  0.0333  0.7182
19557TIP3    H180162   4.723   0.080   6.117  0.4895 -0.9259  2.8794
19557TIP3    H280163   4.597   0.105   6.036  1.9919  1.6608  1.1676
19558TIP3   OH280164   3.422   0.413   4.095 -0.3425 -0.4543  0.1025
19558TIP3    H180165   3.391   0.333   4.138  0.2670 -0.8797 -0.2304
19558TIP3    H280166   3.400   0.401   4.003 -2.3890  0.8166  0.3658
19559TIP3   OH280167   1.602   1.939   6.219 -0.0566  0.4145  0.4652
19559TIP3    H180168   1.523   1.932   6.165  0.7152 -0.0312 -0.6145
19559TIP3    H280169   1.669   1.972   6.160  0.8823 -0.3622  1.0775
19560TIP3   OH280170   0.299   1.871  16.558  0.1715  0.0887 -0.4427
19560TIP3    H180171   0.284   1.945  16.616  0.1925 -0.0971 -0.2022
19560TIP3    H280172   0.354   1.811  16.608  0.9151  0.3166 -0.9676
19561TIP3   OH280173   6.354   3.093  16.940  0.1720 -0.4269  0.2000
19561TIP3    H180174   6.421   3.144  16.987 -0.5069  0.8769 -0.1862
19561TIP3    H280175   6.297   3.059  17.009  0.2532 -0.0865  0.4425
19562TIP3   OH280176   2.576   1.464  15.184 -0.3044 -0.3312 -0.0666
19562TIP3    H180177   2.555   1.539  15.239  0.2991  0.3278 -0.7217
19562TIP3    H280178   2.658   1.430  15.219  1.1552  1.2981 -1.7277
19563TIP3   OH280179   1.998   3.121  14.135 -0.3485  0.1598 -0.0307
19563TIP3    H180180   2.041   3.100  14.053  0.2891 -0.2387  0.3941
19563TIP3    H280181   2.007   3.216  14.144 -1.2134  0.3311 -0.8449
19564TIP3   OH280182   2.750   2.398  16.367 -0.2050  0.0240 -0.6644
19564TIP3    H180183   2.749   2.402  16.463  0.3913  1.1269 -0.6802
19564TIP3    H280184   2.659   2.382  16.343 -0.1205 -1.7839  0.1110
19565TIP3   OH280185   3.887   2.393  15.964  0.0953  0.0630  0.9291
19565TIP3    H180186   3.949   2.415  16.034  0.2218  0.1575  0.7862
19565TIP3    H280187   3.850   2.308  15.991  1.0631 -0.5139  0.4979
19566TIP3   OH280188   6.511   5.591   5.161  0.1802 -0.1248  0.3482
19566TIP3    H180189   6.468   5.522   5.110  0.6855  0.0731 -0.3625
19566TIP3    H280190   6.439   5.642   5.198 -0.1986 -1.1475  1.0491
19567TIP3   OH280191   4.270   0.232   6.399  0.3742  0.0614 -0.3000
19567TIP3    H180192   4.347   0.183   6.371  0.1269  0.7733 -2.3846
19567TIP3    H280193   4.301   0.285   6.473  1.3318 -1.1526  0.1962
19568TIP3   OH280194   6.219   5.504  14.574 -0.6071  0.3716 -0.5193
19568TIP3    H180195   6.285   5.501  14.642 -1.0787  1.1526 -0.0135
19568TIP3    H280196   6.247   5.438  14.510  0.0739 -0.0569  0.2058
19569TIP3   OH280197   6.412   2.400  11.762 -0.1969 -0.4362 -0.5043
19569TIP3    H180198   6.452   2.424  11.846 -0.2045  1.1584 -0.9184
19569TIP3    H280199   6.367   2.317  11.779  2.1962 -1.6631  0.3119
19570TIP3   OH280200   6.682   2.434  15.022  0.2238 -0.2594 -0.0828
19570TIP3    H180201   6.698   2.363  15.084  3.0352  0.2640 -0.0773
19570TIP3    H280202   6.687   2.392  14.936 -0.6280 -0.4622 -0.0427
19571TIP3   OH280203   4.134   2.034  15.591 -0.6726  0.0430  0.1372
19571TIP3    H180204   4.090   2.035  15.507 -0.2735 -2.1435 -0.1619
19571TIP3    H280205   4.227   2.049  15.571 -0.7727  1.1570  0.4013
19572TIP3   OH280206   3.834   3.708  12.243 -0.1339 -0.0467  0.3706
19572TIP3    H180207   3.780   3.766  12.297 -0.8781 -0.8323  0.4888
19572TIP3    H280208   3.778   3.633  12.224  0.2908 -0.0380 -1.0523
19573TIP3   OH280209   2.979   5.862   2.262  0.3199  0.2770 -0.0891
19573TIP3    H180210   3.039   5.901   2.325  1.7815  0.9567 -1.8232
19573TIP3    H280211   2.955   5.933   2.204 -0.1488 -0.5519 -0.9438
19574TIP3   OH280212   6.688   3.239   3.194  0.0816  0.2696  0.1895
19574TIP3    H180213   6.616   3.178   3.177  0.2651 -0.0547  0.5607
19574TIP3    H280214   6.657   3.322   3.159  0.0922 -0.1794 -0.9008
19575TIP3   OH280215   1.533   5.884   1.460 -0.4966  0.0534 -0.1528
19575TIP3    H180216   1.535   5.980   1.450 -0.2753  0.1374  0.6544
19575TIP3    H280217   1.591   5.867   1.533  2.0454 -0.9828 -2.2460
19576TIP3   OH280218   2.582   6.464  11.504  0.2599 -0.2784 -0.1319
19576TIP3    H180219   2.625   6.380  11.524 -0.3334 -0.1743  1.7840
19576TIP3    H280220   2.654   6.524  11.485  0.9492 -0.4427  1.6958
19577TIP3   OH280221   2.726   6.594   1.462  0.4731  0.1355  0.1119
19577TIP3    H180222   2.671   6.667   1.488  0.7821  1.8183 -3.4384
19577TIP3    H280223   2.814   6.632   1.454  0.6402 -0.5731 -1.8074
19578TIP3   OH280224   1.241   2.189  14.518 -0.2737 -0.3044 -0.2065
19578TIP3    H180225   1.288   2.106  14.530  0.4995  0.0020 -1.0375
19578TIP3    H280226   1.241   2.204  14.424 -1.9068 -0.1980 -0.2133
19579TIP3   OH280227   2.084   4.016  16.237 -0.4620 -0.0284 -0.5742
19579TIP3    H180228   2.177   4.008  16.214 -0.2875  0.6330 -0.1314
19579TIP3    H280229   2.070   4.110  16.248 -1.1401 -0.1402 -0.4428
19580TIP3   OH280230   6.637   2.781  17.065  0.1625 -0.0803 -0.5423
19580TIP3    H180231   6.638   2.875  17.078 -3.8932  0.0628 -0.0114
19580TIP3    H280232   6.642   2.744  17.153 -3.6241  0.0130 -0.1141
19581TIP3   OH280233   5.935   3.636  15.053  0.8024  0.0480 -0.5340
19581TIP3    H180234   5.963   3.601  15.138 -0.7018  1.0508  0.4132
19581TIP3    H280235   5.845   3.604  15.043  0.8076  0.3270 -1.5484
19582TIP3   OH280236   5.813   3.545   1.582  0.3353  0.7245  0.4126
19582TIP3    H180237   5.885   3.581   1.633 -0.7443  2.4491  0.8232
19582TIP3    H280238   5.829   3.576   1.493  0.9833 -0.3397  0.1397
19583TIP3   OH280239   6.734   2.164   4.828  0.1255 -0.2173  0.2992
19583TIP3    H180240   6.758   2.219   4.753  1.4982  0.1396  0.9598
19583TIP3    H280241   6.641   2.148   4.817 -0.0919  1.3860 -0.4913
19584TIP3   OH280242   6.703   6.015  16.508  0.0372  0.7986 -0.2188
19584TIP3    H180243   6.699   6.106  16.538  0.9132  1.2177 -1.3033
19584TIP3    H280244   6.777   6.013  16.447 -0.2307 -0.5508 -0.5309
19585TIP3   OH280245   5.559   4.271   0.528  0.8550  0.3380  0.4989
19585TIP3    H180246   5.471   4.301   0.503  1.0741 -0.5240 -1.4853
19585TIP3    H280247   5.546   4.225   0.611 -0.9339 -1.3999 -0.6540
19586TIP3   OH280248   3.548   1.949   2.661 -0.1609  0.0202  0.5281
19586TIP3    H180249   3.563   1.953   2.756 -1.5768 -1.8147  0.8828
19586TIP3    H280250   3.475   2.009   2.646  0.8152  1.2122  0.3752
19587TIP3   OH280251   5.592   4.829   1.705 -0.0232 -0.0555  0.2827
19587TIP3    H180252   5.670   4.875   1.674  0.5580 -2.0623 -1.4429
19587TIP3    H280253   5.541   4.896   1.750  2.2279  1.5338  0.6293
19588TIP3   OH280254   2.595   2.565   2.271  0.3993 -0.1085  0.3809
19588TIP3    H180255   2.668   2.531   2.323  0.0969  1.5529  2.0012
19588TIP3    H280256   2.543   2.615   2.333 -2.1279 -1.1717 -0.7370
19589TIP3   OH280257   1.275   0.232  13.855  0.2949 -0.7848  0.0554
19589TIP3    H180258   1.341   0.165  13.871  0.2882 -2.0586 -4.0942
19589TIP3    H280259   1.192   0.187  13.870  0.3187 -0.9527 -0.3089
19590TIP3   OH280260   6.062   6.100  11.979  0.4203  0.4256  0.1444
19590TIP3    H180261   6.155   6.123  11.984  0.6310 -0.0601 -1.1241
19590TIP3    H280262   6.060   6.005  11.990  0.4577 -0.0455 -3.0039
19591TIP3   OH280263   6.659   5.031   3.582 -0.3808 -0.6690  0.3159
19591TIP3    H180264   6.581   5.088   3.582 -1.1771 -1.7248  0.9097
19591TIP3    H280265   6.720   5.074   3.522 -1.1950  0.4908  0.2841
19592TIP3   OH280266   4.250   4.074  10.572 -0.2729 -0.5563 -0.3488
19592TIP3    H180267   4.303   4.083  10.493 -0.2304 -0.9375 -0.3649
19592TIP3    H280268   4.161   4.098  10.543 -0.2853 -0.8334 -0.5481
19593TIP3   OH280269   4.774   2.579  16.790 -0.9516 -0.4380 -0.5828
19593TIP3    H180270   4.722   2.642  16.840 -2.6803 -0.4711 -2.2211
19593TIP3    H280271   4.860   2.620  16.781 -1.6979  1.2024 -0.6419
19594TIP3   OH280272   1.261   4.529   0.092  0.5229 -0.4842 -0.3328
19594TIP3    H180273   1.225   4.442   0.111 -2.9888  0.5002 -1.6490
19594TIP3    H280274   1.233   4.582   0.167  0.1051  0.1043 -0.8999
19595TIP3   OH280275   6.021   2.902   0.617 -0.5425 -0.5323  0.3505
19595TIP3    H180276   6.049   2.990   0.642 -0.6372 -0.1549 -0.8463
19595TIP3    H280277   6.019   2.854   0.700 -0.6508  0.6274  1.0506
19596TIP3   OH280278   2.610   3.877   2.234 -0.2522  0.2786  0.1637
19596TIP3    H180279   2.627   3.933   2.159  0.2896 -0.3424 -0.1830
19596TIP3    H280280   2.520   3.899   2.260 -0.8529 -0.2702 -1.3288
19597TIP3   OH280281   1.396   4.437   0.428  0.1274 -0.1499 -0.0120
19597TIP3    H180282   1.368   4.359   0.476  1.6606 -1.6648 -1.4381
19597TIP3    H280283   1.321   4.459   0.373 -0.1361 -0.9765 -0.0006
19598TIP3   OH280284   1.009   6.253   0.369  0.4172 -0.2789 -0.3971
19598TIP3    H180285   1.035   6.229   0.280  2.5706 -0.1978  0.1587
19598TIP3    H280286   0.991   6.169   0.413  1.2086 -0.4393 -0.3786
19599TIP3   OH280287   3.679   5.996  12.709  0.5204 -0.0681  0.0822
19599TIP3    H180288   3.634   6.013  12.627  1.5056 -0.4580 -0.5638
19599TIP3    H280289   3.672   5.901  12.721  1.5011 -0.1876 -0.2367
19600TIP3   OH280290   1.733   5.977   4.488 -0.5020 -0.2963 -0.2177
19600TIP3    H180291   1.684   5.895   4.483 -1.6874  0.3418  0.4643
19600TIP3    H280292   1.708   6.015   4.572 -0.6668  1.1883 -0.9025
19601TIP3   OH280293   1.326   6.293  16.370 -0.1544 -0.1788 -0.1335
19601TIP3    H180294   1.405   6.345  16.379  0.2157 -0.8982  0.9663
19601TIP3    H280295   1.259   6.343  16.417  0.0721 -0.4223  0.4559
19602TIP3   OH280296   4.054   2.292   1.547  0.3582 -0.6079 -0.0940
19602TIP3    H180297   4.013   2.217   1.590  1.1071  0.0511  1.9149
19602TIP3    H280298   4.033   2.282   1.454 -2.7776 -1.2233  0.5950
19603TIP3   OH280299   4.545   3.932   1.497 -0.0420  0.4437 -0.4117
19603TIP3    H180300   4.478   4.001   1.488  1.3343  2.2456  2.1651
19603TIP3    H280301   4.627   3.979   1.506  0.8262 -1.3999  2.7807
19604TIP3   OH280302   5.393   3.100  12.972  0.1023  0.2003 -0.2075
19604TIP3    H180303   5.302   3.095  13.000 -0.2087  2.9656 -0.4439
19604TIP3    H280304   5.438   3.143  13.045  0.8548  0.4431 -0.7988
19605TIP3   OH280305   3.209   3.308   4.147  0.3791  0.4007  0.3514
19605TIP3    H180306   3.287   3.259   4.118  0.4139  1.2849 -1.1551
19605TIP3    H280307   3.136   3.260   4.110  0.1946 -0.2431  1.4949
19606TIP3   OH280308   2.733   0.267  15.716 -0.4062 -0.2267 -0.0429
19606TIP3    H180309   2.796   0.252  15.646 -0.7067 -0.3350 -0.2942
19606TIP3    H280310   2.703   0.179  15.741 -1.1353 -0.1386 -0.5584
19607TIP3   OH280311   2.080   3.066  11.695 -0.2155  0.5187 -0.3639
19607TIP3    H180312   2.152   3.003  11.697 -1.2207 -0.6079  1.1098
19607TIP3    H280313   2.103   3.130  11.762 -0.5925  0.1575  0.1084
19608TIP3   OH280314   0.277   2.151   0.698 -0.2398  0.4547  0.2077
19608TIP3    H180315   0.285   2.143   0.603  1.5048 -1.6099  0.4664
19608TIP3    H280316   0.251   2.064   0.727  0.0788  0.8461  1.7089
19609TIP3   OH280317   6.266   3.239   1.213 -0.1075 -0.3033  0.1602
19609TIP3    H180318   6.326   3.181   1.261 -1.0709 -0.4234  1.2704
19609TIP3    H280319   6.189   3.244   1.269 -0.4684  1.1924 -0.4352
19610TIP3   OH280320   6.669   6.381  16.809  0.2332  0.2051  0.0850
19610TIP3    H180321   6.593   6.398  16.753  1.4778 -0.2957 -1.8556
19610TIP3    H280322   6.744   6.395  16.751  1.5838 -0.6137  1.5866
19611TIP3   OH280323   6.401   2.891  15.122 -0.2337 -0.6387  0.3671
19611TIP3    H180324   6.322   2.904  15.068 -1.3576  1.2732  2.3187
19611TIP3    H280325   6.463   2.849  15.063 -2.8610 -2.7656 -1.1301
19612TIP3   OH280326   2.384   0.596  12.084  0.0929  0.1093  0.0628
19612TIP3    H180327   2.320   0.589  12.013  0.4544  3.6496 -0.8450
19612TIP3    H280328   2.345   0.549  12.157 -1.6357 -1.2511 -1.6470
19613TIP3   OH280329   2.022   6.438  15.772  0.1574 -0.2485 -0.2561
19613TIP3    H180330   1.997   6.526  15.743  1.0618  0.6451  1.4894
19613TIP3    H280331   1.994   6.434  15.864  0.7535 -1.5276 -0.1031
19614TIP3   OH280332   0.734   5.578   2.226  0.9528 -0.1623 -0.2741
19614TIP3    H180333   0.756   5.504   2.283 -0.8502  0.5792  1.4881
19614TIP3    H280334   0.792   5.649   2.254  0.0168  0.2232  0.7281
19615TIP3   OH280335   4.076   5.688  12.851  0.6541  0.1491 -0.0129
19615TIP3    H180336   3.986   5.682  12.818 -0.1623  2.1266  1.6847
19615TIP3    H280337   4.120   5.747  12.790  0.5707 -0.1499 -0.3663
19616TIP3   OH280338   2.486   0.129   5.324  0.3112  0.0397  0.0801
19616TIP3    H180339   2.418   0.178   5.277 -0.1589 -0.6774 -0.0091
19616TIP3    H280340   2.562   0.131   5.266  0.4582  1.0853  0.3016
19617TIP3   OH280341   1.038   6.250  14.244  0.2384 -0.0185  0.1827
19617TIP3    H180342   1.019   6.311  14.315 -1.9290  0.5406 -0.7792
19617TIP3    H280343   1.054   6.305  14.168 -0.2254 -0.5993 -0.3546
19618TIP3   OH280344   4.600   3.720   4.126 -0.6711 -0.3863 -0.0401
19618TIP3    H180345   4.686   3.761   4.136 -1.4272  1.2135  0.2159
19618TIP3    H280346   4.614   3.629   4.152  0.4882  0.3331  2.1510
19619TIP3   OH280347   0.580   5.702  16.290 -0.3332  0.1742  0.0261
19619TIP3    H180348   0.663   5.750  16.287 -0.5061  0.4388 -0.5107
19619TIP3    H280349   0.597   5.631  16.352 -0.1260  1.0160  0.9635
19620TIP3   OH280350   6.085   3.764   5.483  0.0682 -0.1321 -0.3310
19620TIP3    H180351   6.064   3.671   5.474  0.4626 -0.4626  1.6152
19620TIP3    H280352   6.001   3.809   5.482 -0.2230 -0.6690  0.1574
19621TIP3   OH280353   5.317   5.961   1.175  0.0036 -0.3495  0.3973
19621TIP3    H180354   5.402   5.921   1.193  0.0476 -0.2040  0.5125
19621TIP3    H280355   5.270   5.957   1.259  0.1430  0.1703  0.5040
19622TIP3   OH280356   5.498   0.820   0.456 -0.1875  0.1291 -0.1426
19622TIP3    H180357   5.508   0.871   0.375  0.5749 -0.8648 -0.6928
19622TIP3    H280358   5.548   0.870   0.521 -0.5415  0.7676 -0.3498
19623TIP3   OH280359   0.600   0.673  11.161  0.5744 -0.2903 -0.0539
19623TIP3    H180360   0.561   0.720  11.088  0.6304  0.6144  0.4925
19623TIP3    H280361   0.549   0.592  11.167 -0.1971  0.1717 -0.3343
19624TIP3   OH280362   4.926   4.860  11.775 -0.3855  0.0844  0.5900
19624TIP3    H180363   4.870   4.812  11.714 -0.9129  0.2071  0.9701
19624TIP3    H280364   5.010   4.813  11.774 -0.0716  0.6258 -0.9290
19625TIP3   OH280365   3.538   5.682   3.894 -0.0733 -0.0015  0.5758
19625TIP3    H180366   3.537   5.752   3.829 -2.2657 -1.5490 -1.2163
19625TIP3    H280367   3.466   5.703   3.953 -1.5183 -1.2640 -0.6650
19626TIP3   OH280368   3.007   1.506   1.133  0.6919 -0.1205  0.5339
19626TIP3    H180369   2.952   1.471   1.203 -0.7115  0.8163 -0.0495
19626TIP3    H280370   3.065   1.568   1.177  0.6801 -0.4645  1.0402
19627TIP3   OH280371   6.782   1.379   1.948  0.6106 -0.3102  0.5051
19627TIP3    H180372   6.708   1.392   2.008  1.4352  2.3711  1.0464
19627TIP3    H280373   6.753   1.307   1.891 -2.3881  0.5589  0.7403
19628TIP3   OH280374   5.378   4.759   0.380 -0.4180  0.0981  0.3690
19628TIP3    H180375   5.345   4.836   0.334 -0.5642 -0.8709 -1.2457
19628TIP3    H280376   5.439   4.793   0.445 -0.4711  1.5723 -0.3219
19629TIP3   OH280377   6.513   2.056  17.057 -0.2956  0.6453  0.7265
19629TIP3    H180378   6.508   2.030  17.149  1.1750 -1.0805  0.3488
19629TIP3    H280379   6.590   2.012  17.023 -1.7870 -0.2262 -1.8039
19630TIP3   OH280380   3.626   6.519  12.771 -0.2361  0.2762  0.0294
19630TIP3    H180381   3.560   6.587  12.759 -1.2702 -0.6405  0.2292
19630TIP3    H280382   3.576   6.437  12.768  0.5282 -0.3768  2.5366
19631TIP3   OH280383   1.105   0.009  11.635 -0.2067  0.2650  0.0068
19631TIP3    H180384   1.174   0.070  11.607 -0.6726  1.4029  1.2141
19631TIP3    H280385   1.039   0.014  11.566  0.2871  0.2383 -0.4725
19632TIP3   OH280386   5.055   5.427  12.720 -0.3677 -0.6296  0.7977
19632TIP3    H180387   5.104   5.509  12.708 -2.5695  0.5716 -0.6721
19632TIP3    H280388   5.053   5.388  12.633 -3.9567  0.6188  0.1686
19633TIP3   OH280389   3.186   4.797   3.626  0.1819 -0.9800  0.1021
19633TIP3    H180390   3.150   4.726   3.678  0.9029 -2.2061 -0.9953
19633TIP3    H280391   3.158   4.778   3.536 -1.1460  1.1378 -0.0095
19634TIP3   OH280392   0.389   3.629  14.086  0.4227  0.0926  0.1852
19634TIP3    H180393   0.433   3.558  14.040  0.8717  1.7715 -2.1762
19634TIP3    H280394   0.392   3.604  14.178 -1.5757 -4.0815 -0.6570
19635TIP3   OH280395   6.327   4.827  13.352 -0.2747  0.2663  0.4244
19635TIP3    H180396   6.387   4.817  13.426  1.0168 -0.1189 -0.6314
19635TIP3    H280397   6.307   4.737  13.325 -0.6302  0.4087  0.2044
19636TIP3   OH280398   4.406   5.540  13.132 -0.3298  0.1828 -0.1266
19636TIP3    H180399   4.464   5.579  13.198 -0.0711 -0.2834 -0.0741
19636TIP3    H280400   4.318   5.550  13.168 -0.2305  0.3697  0.0642
19637TIP3   OH280401   6.772   5.509   5.283 -0.1846 -0.4453  0.3425
19637TIP3    H180402   6.715   5.455   5.339 -1.5955  1.0678  0.4634
19637TIP3    H280403   6.723   5.519   5.201  1.0978 -1.2195 -0.5479
19638TIP3   OH280404   2.086   5.565   2.933 -0.5461 -0.3231  0.2312
19638TIP3    H180405   2.027   5.518   2.874 -0.5779 -0.0133  0.0172
19638TIP3    H280406   2.099   5.651   2.893  1.0133 -0.7921 -0.3638
19639TIP3   OH280407   0.788   1.030  11.486 -0.1480  0.1690  0.5481
19639TIP3    H180408   0.699   1.049  11.514 -1.0457 -0.2226 -1.8457
19639TIP3    H280409   0.791   0.934  11.479 -0.5028  0.2851 -2.0896
19640TIP3   OH280410   3.924   5.314  11.741 -0.0962 -0.5580  0.2890
19640TIP3    H180411   3.894   5.402  11.721  1.1010 -0.4227 -1.0070
19640TIP3    H280412   3.869   5.286  11.814 -2.1823  0.3231 -0.8649
19641TIP3   OH280413   2.841   3.654  12.819 -0.2245 -0.3446  0.4143
19641TIP3    H180414   2.829   3.741  12.856 -1.7909 -0.3154 -0.0847
19641TIP3    H280415   2.800   3.659  12.732  0.3292 -1.3624  0.0769
19642TIP3   OH280416   4.160   4.841  14.419  0.5742 -0.0846  0.1867
19642TIP3    H180417   4.190   4.827  14.329 -0.5212  2.0011 -0.5592
19642TIP3    H280418   4.212   4.779  14.471  0.2538 -2.3815 -1.9965
19643TIP3   OH280419   3.049   4.200   5.902  0.3119  0.1031  0.0305
19643TIP3    H180420   3.106   4.182   5.826 -0.3518  0.0968 -0.4732
19643TIP3    H280421   3.055   4.294   5.914  2.5435 -0.1635  1.6811
19644TIP3   OH280422   1.458   3.412  15.532  0.2502 -0.1123  0.2155
19644TIP3    H180423   1.505   3.491  15.504  1.6286 -0.9358  0.1006
19644TIP3    H280424   1.444   3.424  15.626 -0.8831  0.9007 -0.0448
19645TIP3   OH280425   5.334   6.753  11.867  0.3106  0.6017 -0.1213
19645TIP3    H180426   5.269   6.766  11.798  1.4626  0.4235 -1.2688
19645TIP3    H280427   5.391   6.830  11.861  2.5356 -1.0538 -1.7939
19646TIP3   OH280428   4.991   1.301  13.701 -0.3564  0.3075 -0.3600
19646TIP3    H180429   4.933   1.377  13.702 -0.9314 -0.0710 -2.1505
19646TIP3    H280430   4.958   1.245  13.631  0.1091 -1.5792  0.8278
19647TIP3   OH280431   3.702   5.551   5.101 -0.4521 -0.4579 -0.5042
19647TIP3    H180432   3.712   5.607   5.024 -3.1240  0.6277 -0.1848
19647TIP3    H280433   3.746   5.598   5.171 -2.4542  1.2562 -0.2950
19648TIP3   OH280434   0.459   1.591   4.395  0.5940 -0.0365 -0.2033
19648TIP3    H180435   0.554   1.600   4.385  0.6027  0.2665  0.1183
19648TIP3    H280436   0.427   1.681   4.395 -0.0919 -0.1372 -3.7715
19649TIP3   OH280437   4.935   5.290   5.958 -0.3964 -0.0073 -0.1909
19649TIP3    H180438   4.867   5.278   6.025 -0.5224 -1.7082 -0.5853
19649TIP3    H280439   4.912   5.373   5.916 -0.4794  0.9630  1.6465
19650TIP3   OH280440   5.415   4.690   2.929  0.6120  0.1572  0.5304
19650TIP3    H180441   5.409   4.786   2.921 -3.5038 -0.0163 -0.6704
19650TIP3    H280442   5.359   4.668   3.003 -1.5907 -1.4228 -1.4435
19651TIP3   OH280443   4.573   4.544   4.071  0.8553  0.2116 -0.0054
19651TIP3    H180444   4.501   4.561   4.132  0.5103  0.0842 -0.3810
19651TIP3    H280445   4.536   4.557   3.984  1.1545 -0.3136 -0.2212
19652TIP3   OH280446   0.738   6.330  10.778  0.5748 -0.1223  0.6071
19652TIP3    H180447   0.655   6.284  10.768 -0.0167  0.9428  0.4748
19652TIP3    H280448   0.793   6.296  10.707 -0.2552  0.2223 -0.2172
19653TIP3   OH280449   6.818   3.370  13.956  0.2187  0.2838  0.2178
19653TIP3    H180450   6.764   3.447  13.937  0.9206  1.2029  1.7460
19653TIP3    H280451   6.776   3.329  14.031  0.3066 -0.3836 -0.0928
19654TIP3   OH280452   0.194   1.799   1.693  0.0520  0.4240 -0.2529
19654TIP3    H180453   0.179   1.875   1.750  1.2713 -0.1061  0.8366
19654TIP3    H280454   0.221   1.730   1.753 -1.7034 -1.1185 -1.1374
19655TIP3   OH280455   3.639   2.687   4.723 -0.1464 -0.0258  0.0783
19655TIP3    H180456   3.549   2.683   4.691 -0.2037  2.2103 -0.2192
19655TIP3    H280457   3.635   2.750   4.795  1.2082  0.2715 -0.0896
19656TIP3   OH280458   3.994   3.892   1.121 -0.2870 -0.0046  0.3391
19656TIP3    H180459   4.005   3.953   1.047  0.1261 -1.5785 -0.9447
19656TIP3    H280460   4.063   3.918   1.183  0.3152  0.4068 -0.4809
19657TIP3   OH280461   3.298   0.805  14.646  0.3059  0.0276  0.1936
19657TIP3    H180462   3.333   0.891  14.622  1.1694  0.1452  1.7168
19657TIP3    H280463   3.305   0.802  14.742 -0.2397 -1.5189  0.2201
19658TIP3   OH280464   6.311   6.603  16.754 -0.1183  0.3525 -0.0249
19658TIP3    H180465   6.365   6.537  16.712  0.5827  1.8008 -1.5048
19658TIP3    H280466   6.293   6.667  16.685 -0.7128  1.7311  1.3506
19659TIP3   OH280467   1.757   1.564  10.585  0.0971 -0.1375  0.2017
19659TIP3    H180468   1.825   1.613  10.537 -0.1587  0.7878  0.7556
19659TIP3    H280469   1.806   1.500  10.636  0.4099 -0.7642 -0.8658
19660TIP3   OH280470   6.206   5.458  15.084  0.4558 -0.7633  0.5279
19660TIP3    H180471   6.216   5.387  15.147 -1.1867 -1.3889  0.1185
19660TIP3    H280472   6.172   5.531  15.137 -1.1650 -1.3644  0.3691
19661TIP3   OH280473   2.330   0.456   1.944  0.1376 -0.3109  0.1936
19661TIP3    H180474   2.423   0.432   1.945  0.7724  1.9582  1.3164
19661TIP3    H280475   2.295   0.417   2.024  0.5826  0.3362  0.7217
19662TIP3   OH280476   2.372   1.217   4.064  0.5042  0.1221 -0.2317
19662TIP3    H180477   2.393   1.203   3.972 -0.0576  1.4668 -0.5850
19662TIP3    H280478   2.457   1.225   4.107  0.7922 -1.3127 -0.4691
19663TIP3   OH280479   0.513   1.485  13.675  0.2310 -0.1162  0.4331
19663TIP3    H180480   0.578   1.498  13.744 -0.2276 -1.0945  1.0552
19663TIP3    H280481   0.490   1.392  13.679 -0.3671 -0.0318 -0.5358
19664TIP3   OH280482   0.443   4.174  15.290 -0.2867 -0.0197  0.0264
19664TIP3    H180483   0.498   4.096  15.285 -0.4751 -0.1254 -0.4076
19664TIP3    H280484   0.481   4.226  15.361 -1.3986 -1.4604  1.7605
19665TIP3   OH280485   1.669   0.802  12.536  0.4182  0.1913  0.1697
19665TIP3    H180486   1.739   0.867  12.543  1.4393 -0.9884  1.5519
19665TIP3    H280487   1.695   0.748  12.461  1.3786 -0.6354  1.0679
19666TIP3   OH280488   3.783   2.264   6.097 -0.6473  0.1794 -0.4393
19666TIP3    H180489   3.860   2.281   6.151 -1.6429 -0.1392  1.1509
19666TIP3    H280490   3.801   2.309   6.015  1.3196 -0.0865 -0.1992
19667TIP3   OH280491   2.097   0.294   4.394  0.0625  0.2352  0.1528
19667TIP3    H180492   2.144   0.232   4.449  1.6656  0.9428 -0.3497
19667TIP3    H280493   2.095   0.375   4.445  0.5028  0.5579 -0.3340
19668TIP3   OH280494   6.279   1.284   4.842  0.0708  0.6427  0.0809
19668TIP3    H180495   6.246   1.298   4.931  1.3143  3.0340  0.2478
19668TIP3    H280496   6.270   1.190   4.828 -0.4840  0.2346  2.5901
19669TIP3   OH280497   3.446   2.347   2.999 -0.2289  0.1703  0.3704
19669TIP3    H180498   3.510   2.284   3.031  1.6660  0.8983 -1.7254
19669TIP3    H280499   3.461   2.425   3.053  0.0349  0.0563  0.4635
19670TIP3   OH280500   6.002   0.712   5.723 -0.0118 -0.1819 -0.2500
19670TIP3    H180501   5.945   0.659   5.778 -0.9562 -0.2946 -1.3229
19670TIP3    H280502   6.015   0.660   5.644  0.3686  0.4885 -0.6372
19671TIP3   OH280503   6.069   6.532   0.773 -0.1897 -0.9070 -0.1316
19671TIP3    H180504   5.985   6.487   0.773 -0.4200 -0.4806  0.0627
19671TIP3    H280505   6.060   6.601   0.708  0.0354 -0.9074 -0.1642
19672TIP3   OH280506   4.748   0.002   4.598  0.1711  0.0039 -0.4055
19672TIP3    H180507   4.664  -0.030   4.566 -1.7982  0.8671  3.3580
19672TIP3    H280508   4.751   0.093   4.569 -0.1258 -0.0601 -0.6450
19673TIP3   OH280509   2.402   5.348   1.942 -0.3730  0.8450  0.1196
19673TIP3    H180510   2.407   5.316   2.032 -1.4664 -1.6124 -0.6124
19673TIP3    H280511   2.482   5.314   1.900 -0.9598  0.0451 -0.3757
19674TIP3   OH280512   6.645   5.907  12.526 -0.5265 -0.9204  0.3785
19674TIP3    H180513   6.678   5.983  12.575 -1.8793 -0.0128 -0.0321
19674TIP3    H280514   6.714   5.886  12.464 -0.2843  0.2473  0.2267
19675TIP3   OH280515   3.631   2.050   5.573 -0.2659 -0.2248  0.0887
19675TIP3    H180516   3.596   1.991   5.640  1.9925 -3.1373 -1.0463
19675TIP3    H280517   3.595   2.017   5.490  0.7334  0.1896 -0.5402
19676TIP3   OH280518   2.202   2.549   1.187 -0.2057 -0.1010 -0.2693
19676TIP3    H180519   2.238   2.587   1.267 -1.6403 -2.3988  1.5736
19676TIP3    H280520   2.134   2.611   1.160  0.3038  0.7094  0.2656
19677TIP3   OH280521   1.674   1.400   5.194 -0.1604  0.3135 -0.0177
19677TIP3    H180522   1.691   1.475   5.137  0.4229 -1.3388 -2.1130
19677TIP3    H280523   1.589   1.367   5.165 -0.4281  0.1592  0.9111
19678TIP3   OH280524   2.579   3.658  11.302 -0.1964 -0.3693 -0.4105
19678TIP3    H180525   2.533   3.617  11.376  1.1415 -0.4851  0.3951
19678TIP3    H280526   2.520   3.647  11.228 -2.0870  0.7125  0.8478
19679TIP3   OH280527   1.310   0.472   1.027 -0.0682  0.4705 -0.0223
19679TIP3    H180528   1.375   0.493   1.095 -0.5159  0.9283  0.2715
19679TIP3    H280529   1.363   0.450   0.950  0.4787 -1.2792  0.8010
19680TIP3   OH280530   0.866   6.599  13.048  0.0115 -0.8204 -0.9297
19680TIP3    H180531   0.773   6.582  13.063  0.3087 -2.1759 -0.4196
19680TIP3    H280532   0.877   6.591  12.954 -0.2912 -1.2135 -0.9350
19681TIP3   OH280533   1.542   3.862   0.450 -0.3148 -0.0407 -0.3889
19681TIP3    H180534   1.540   3.826   0.361 -0.3635 -1.7999  0.3016
19681TIP3    H280535   1.457   3.840   0.487 -0.2794  0.6566  0.1280
19682TIP3   OH280536   3.226   4.018   3.570 -0.3483 -0.2378 -0.3194
19682TIP3    H180537   3.241   3.939   3.621 -0.9395  0.3287  0.7549
19682TIP3    H280538   3.139   4.006   3.531 -0.7154  0.1496  0.3662
19683TIP3   OH280539   5.916   2.700  16.711  0.1772 -0.0416  0.3544
19683TIP3    H180540   5.822   2.721  16.714  0.3447  0.6342  1.2168
19683TIP3    H280541   5.918   2.604  16.709 -0.5806 -0.1085 -2.9200
19684TIP3   OH280542   1.537   6.554   1.759  0.2251  0.0927  0.4942
19684TIP3    H180543   1.616   6.501   1.745 -0.3118 -0.5649 -0.1586
19684TIP3    H280544   1.570   6.639   1.785  1.1284 -0.4795  1.2925
19685TIP3   OH280545   0.180   3.132   4.320  0.4368  0.0838 -0.0314
19685TIP3    H180546   0.105   3.142   4.262  0.1583 -0.3857  0.2418
19685TIP3    H280547   0.142   3.127   4.408  0.7198 -0.9352  0.0478
19686TIP3   OH280548   6.199   1.760   3.069  0.3111  0.2408 -0.2031
19686TIP3    H180549   6.103   1.768   3.062  0.1570 -1.3758 -0.3253
19686TIP3    H280550   6.223   1.822   3.137 -0.8008  0.8228 -0.3079
19687TIP3   OH280551   1.584   1.427  15.469  0.4026  0.3930 -0.1841
19687TIP3    H180552   1.621   1.340  15.456 -0.7257 -0.1036 -0.2189
19687TIP3    H280553   1.622   1.480  15.399  1.8968  0.2191  0.4520
19688TIP3   OH280554   0.224   5.982   1.112  0.0814 -0.2571  0.1250
19688TIP3    H180555   0.246   6.075   1.116 -0.3983 -0.0250 -1.6949
19688TIP3    H280556   0.306   5.939   1.089 -0.2229  0.0615 -1.7408
19689TIP3   OH280557   3.905   1.959   2.227 -0.5178 -0.0388  0.3450
19689TIP3    H180558   3.918   2.030   2.290 -1.8987  0.9846 -0.4609
19689TIP3    H280559   3.993   1.937   2.197  0.1601 -0.3833  2.3993
19690TIP3   OH280560   1.961   3.370  14.422 -0.3159  0.0028 -0.3025
19690TIP3    H180561   2.023   3.347  14.490 -0.6904  0.6465  0.2710
19690TIP3    H280562   2.016   3.394  14.347  0.0904 -1.3450 -0.4694
19691TIP3   OH280563   4.055   0.766  16.110 -0.0867  0.5604 -0.2990
19691TIP3    H180564   4.059   0.856  16.143 -0.6647 -0.7994  4.1312
19691TIP3    H280565   3.980   0.728  16.155  0.6483 -2.3850 -1.3581
19692TIP3   OH280566   1.198   1.928  11.380 -0.3226 -0.5623 -0.1753
19692TIP3    H180567   1.242   1.949  11.298  0.6410 -2.8933 -0.3326
19692TIP3    H280568   1.139   1.856  11.358 -0.7153 -0.6258  1.0037
19693TIP3   OH280569   4.202   3.085  12.041 -0.3615  0.0746  0.3872
19693TIP3    H180570   4.210   3.133  12.123 -0.0712 -3.3262  2.5328
19693TIP3    H280571   4.286   3.098  11.998  1.0504 -1.1648  2.5731
19694TIP3   OH280572   2.561   1.523   4.890 -0.2638  0.1414 -0.0875
19694TIP3    H180573   2.478   1.475   4.886 -0.9508  1.3095 -0.0899
19694TIP3    H280574   2.598   1.514   4.802 -0.0653 -0.9151  0.0895
19695TIP3   OH280575   6.303   2.577  13.467 -0.3148 -0.0077 -0.1045
19695TIP3    H180576   6.347   2.546  13.388  1.6404  0.5293  0.6885
19695TIP3    H280577   6.252   2.502  13.497 -0.5890 -0.4093 -1.5285
19696TIP3   OH280578   2.468   4.832  13.634  0.1316  0.0233  0.1615
19696TIP3    H180579   2.451   4.879  13.715  1.3196 -0.3597  0.6521
19696TIP3    H280580   2.396   4.857  13.576 -2.0179 -1.4155  2.0280
19697TIP3   OH280581   1.502   1.179  11.550 -0.3329  0.1425 -0.4445
19697TIP3    H180582   1.587   1.184  11.507 -0.6833  0.7737 -1.0767
19697TIP3    H280583   1.515   1.117  11.622  0.7580  0.5315 -0.2945
19698TIP3   OH280584   1.966   2.889  11.869  0.5029  0.1383  0.0528
19698TIP3    H180585   1.878   2.852  11.867  0.9163 -0.9757 -2.7230
19698TIP3    H280586   1.977   2.927  11.781  2.0606  2.1591  1.0372
19699TIP3   OH280587   4.658   3.492  11.196 -0.1022 -0.5863  0.3237
19699TIP3    H180588   4.667   3.418  11.135 -0.6155 -0.3259 -0.0809
19699TIP3    H280589   4.563   3.501  11.208 -0.0413 -0.0378  0.4194
19700TIP3   OH280590   4.979   1.327   2.158 -0.2715  0.3917 -0.4035
19700TIP3    H180591   4.896   1.300   2.119  0.0794 -1.8738  0.2803
19700TIP3    H280592   5.037   1.345   2.084 -0.1079 -2.2634 -1.0256
19701TIP3   OH280593   4.842   5.507   5.806  0.4442 -0.3536  0.0042
19701TIP3    H180594   4.764   5.456   5.781 -0.3910  1.3126 -0.9574
19701TIP3    H280595   4.887   5.524   5.723  1.0315 -0.0445  0.3822
19702TIP3   OH280596   5.343   5.377  16.224 -0.4779 -0.2159  0.1064
19702TIP3    H180597   5.283   5.319  16.177 -1.2253  1.9373 -1.7665
19702TIP3    H280598   5.369   5.442  16.159  1.6562  0.5910  1.6647
19703TIP3   OH280599   6.134   4.552   6.174 -0.5843  0.8510 -0.1475
19703TIP3    H180600   6.209   4.604   6.201 -0.3270 -0.1949  1.2373
19703TIP3    H280601   6.058   4.610   6.184 -0.2308  1.1627  0.7669
19704TIP3   OH280602   6.805   4.971  16.986  0.2404 -0.2839 -0.2173
19704TIP3    H180603   6.747   4.977  17.063  1.3168  0.8386  0.5407
19704TIP3    H280604   6.746   4.945  16.915 -0.8387 -1.1027  0.9106
19705TIP3   OH280605   5.464   3.518  11.992 -0.0763 -0.0707 -0.8083
19705TIP3    H180606   5.552   3.530  11.956  0.0536  0.7863 -0.2454
19705TIP3    H280607   5.456   3.423  12.005  0.2399 -0.2979 -2.1251
19706TIP3   OH280608   0.080   0.913  12.644  0.1974 -0.0918  0.0779
19706TIP3    H180609   0.147   0.916  12.576 -0.1933  0.1863 -0.2947
19706TIP3    H280610   0.125   0.877  12.720  0.8445  0.3692 -0.0852
19707TIP3   OH280611   2.390   5.938   1.448 -0.0727 -0.4140 -0.2399
19707TIP3    H180612   2.465   5.880   1.466 -0.9310 -1.4722  0.0767
19707TIP3    H280613   2.315   5.891   1.485 -1.1204 -0.0788 -1.8656
19708TIP3   OH280614   6.283   3.951   5.544 -0.1180  0.2632 -0.5500
19708TIP3    H180615   6.350   3.889   5.573  0.0912  0.3924 -0.7560
19708TIP3    H280616   6.201   3.902   5.550  0.0131  0.0535 -0.4532
19709TIP3   OH280617   5.346   1.017   2.717 -0.4040  0.6942 -0.1829
19709TIP3    H180618   5.281   0.954   2.686 -1.6003  0.8667  1.7840
19709TIP3    H280619   5.324   1.099   2.673 -0.2568  0.2729 -1.0426
19710TIP3   OH280620   4.391   6.669   4.241  0.3233  0.4905 -0.5320
19710TIP3    H180621   4.331   6.599   4.267  1.1003  0.0651  0.1644
19710TIP3    H280622   4.446   6.629   4.173  1.8192 -0.1323  0.9674
19711TIP3   OH280623   5.598   2.521  17.097  0.4121 -0.5171 -0.2556
19711TIP3    H180624   5.532   2.485  17.155  0.8443  1.1810  1.3711
19711TIP3    H280625   5.568   2.610  17.078  1.6587 -0.0971 -0.3622
19712TIP3   OH280626   3.725   2.967   0.632 -0.1128 -0.2103  0.3017
19712TIP3    H180627   3.668   3.028   0.678  0.6067  1.6555 -1.1574
19712TIP3    H280628   3.666   2.908   0.587 -0.8368  0.1150  0.8097
19713TIP3   OH280629   1.692   5.513   5.959  0.2164  0.4332 -0.0125
19713TIP3    H180630   1.756   5.449   5.989 -0.6598 -0.1220  0.7242
19713TIP3    H280631   1.722   5.537   5.871  0.5040 -1.0691 -0.3524
19714TIP3   OH280632   1.144   3.610  15.116  0.3005 -0.1558  0.0207
19714TIP3    H180633   1.057   3.638  15.146  0.0084 -0.2080 -0.7537
19714TIP3    H280634   1.139   3.514  15.113  0.0848 -0.1337 -0.8455
19715TIP3   OH280635   5.267   4.473   3.650  0.5284  0.0074 -0.2643
19715TIP3    H180636   5.278   4.548   3.708  1.5260 -1.4142  1.4572
19715TIP3    H280637   5.220   4.509   3.574 -0.2079  2.0598  1.0801
19716TIP3   OH280638   2.944   6.752  12.825  0.3072 -0.5747 -0.0648
19716TIP3    H180639   2.900   6.787  12.902  0.9251  0.2531 -0.0845
19716TIP3    H280640   2.928   6.657  12.830 -0.3960 -0.4339  0.5990
19717TIP3   OH280641   5.264   6.114  15.863  0.4243 -0.1503  0.1886
19717TIP3    H180642   5.337   6.140  15.918 -1.0425 -0.1350  2.2587
19717TIP3    H280643   5.195   6.177  15.884 -0.6930 -1.1037 -0.4832
19718TIP3   OH280644   2.347   2.599  15.200  0.2791  0.2888  0.3544
19718TIP3    H180645   2.264   2.614  15.154 -0.4726 -0.5091  1.4050
19718TIP3    H280646   2.334   2.517  15.248  2.3144 -0.8200 -0.8597
19719TIP3   OH280647   5.256   6.081  14.900 -0.5682  0.4848  0.5816
19719TIP3    H180648   5.241   6.042  14.986  1.6364  0.0632  0.8501
19719TIP3    H280649   5.325   6.146  14.915  0.1889  0.0756 -0.9233
19720TIP3   OH280650   5.658   3.355   5.713 -0.4958 -0.3368 -0.3979
19720TIP3    H180651   5.584   3.415   5.713 -0.0506  0.2205 -0.0925
19720TIP3    H280652   5.660   3.319   5.802  1.3739  1.9088  0.5721
19721TIP3   OH280653   0.210   0.675  16.602 -0.5132 -0.0284  0.1705
19721TIP3    H180654   0.277   0.653  16.536 -1.7076  0.8333 -1.3919
19721TIP3    H280655   0.257   0.728  16.666  0.6057 -0.5795 -0.1503
19722TIP3   OH280656   1.338   2.585   3.981 -1.3120  0.0380  0.2262
19722TIP3    H180657   1.329   2.598   4.076 -0.8191  1.1739  0.1345
19722TIP3    H280658   1.381   2.500   3.973 -0.7263  0.2350  1.0603
19723TIP3   OH280659   4.126   3.442   2.595  0.5575  0.1966 -0.0029
19723TIP3    H180660   4.117   3.348   2.583  0.0566  0.2355  0.0438
19723TIP3    H280661   4.211   3.454   2.638  1.9562 -0.0429 -2.4916
19724TIP3   OH280662   4.705   6.620   1.273 -0.3976 -0.8302  0.1152
19724TIP3    H180663   4.711   6.713   1.296 -1.7667 -0.8012  0.4702
19724TIP3    H280664   4.794   6.587   1.281 -0.0954  0.1824  1.2609
19725TIP3   OH280665   0.985   6.697   6.014 -0.0779 -0.0144  0.0528
19725TIP3    H180666   0.977   6.770   6.076  0.8548  0.6225 -0.5477
19725TIP3    H280667   0.895   6.679   5.988 -0.4418  0.0292  1.2152
19726TIP3   OH280668   5.231   2.734   5.313  0.4329  0.2738  1.0900
19726TIP3    H180669   5.214   2.788   5.236  1.0021  0.5110  1.1242
19726TIP3    H280670   5.156   2.676   5.319  0.3343  0.3276  0.4167
19727TIP3   OH280671   1.100   4.828  15.722 -0.5542 -0.5253  0.1418
19727TIP3    H180672   1.155   4.821  15.800  1.2159 -1.2326 -1.1070
19727TIP3    H280673   1.012   4.810  15.753  0.0545 -0.4529  2.0278
19728TIP3   OH280674   6.485   1.258   0.499 -0.1619  0.0567  0.0566
19728TIP3    H180675   6.408   1.216   0.537  0.6930 -1.0416  0.6180
19728TIP3    H280676   6.503   1.207   0.420  0.6722 -0.4268  0.5504
19729TIP3   OH280677   4.340   6.136   5.004  0.0954  0.2691 -0.1529
19729TIP3    H180678   4.337   6.044   5.030  0.6935 -0.0422 -1.1151
19729TIP3    H280679   4.433   6.159   5.011 -0.0594  0.8139  0.1189
19730TIP3   OH280680   5.759   6.603   5.012 -0.0055  0.5894  0.2121
19730TIP3    H180681   5.736   6.654   5.090  0.7431  1.0077  0.1672
19730TIP3    H280682   5.799   6.666   4.953  0.1201  0.1193 -0.2076
19731TIP3   OH280683   0.227   2.851  17.239 -0.4070 -0.4559  0.3909
19731TIP3    H180684   0.176   2.794  17.181  0.1436  0.8248 -1.4324
19731TIP3    H280685   0.175   2.931  17.247 -0.7790 -0.8336  2.2489
19732TIP3   OH280686   3.937   4.594   1.129  0.6381 -0.4374  0.2517
19732TIP3    H180687   4.012   4.535   1.140 -0.3389 -2.3548 -2.2624
19732TIP3    H280688   3.966   4.677   1.167  3.6765 -1.3481  0.2408
19733TIP3   OH280689   5.324   2.357   4.382  0.2628 -0.1877  0.0243
19733TIP3    H180690   5.255   2.376   4.319 -0.3361 -1.7496  0.1576
19733TIP3    H280691   5.287   2.384   4.466 -0.0462 -0.6616  0.0452
19734TIP3   OH280692   0.379   2.699   2.780  0.0936  0.0288  0.2562
19734TIP3    H180693   0.451   2.749   2.818  1.9846 -2.2620 -0.0360
19734TIP3    H280694   0.348   2.644   2.852 -0.4352  0.0347  0.0313
19735TIP3   OH280695   6.554   6.232   3.941 -0.4105 -0.1275  0.3278
19735TIP3    H180696   6.543   6.207   3.850 -2.2241 -0.0263  0.4798
19735TIP3    H280697   6.471   6.275   3.964  0.1131  0.0832  1.9439
19736TIP3   OH280698   3.266   0.427  16.662 -0.0729  1.1367  0.5163
19736TIP3    H180699   3.317   0.472  16.730  1.1100  1.1632 -0.3624
19736TIP3    H280700   3.190   0.391  16.709 -0.0294  2.3480  1.5970
19737TIP3   OH280701   5.173   2.068   3.273  0.1816 -0.3427  0.1458
19737TIP3    H180702   5.144   2.158   3.290  0.8179 -0.2950  1.0481
19737TIP3    H280703   5.139   2.017   3.346 -1.5376 -1.1660 -1.1699
19738TIP3   OH280704   3.148   3.523  14.478  0.8570 -0.2142 -0.6180
19738TIP3    H180705   3.125   3.528  14.570  0.0727  2.9229 -0.8766
19738TIP3    H280706   3.239   3.493  14.477 -0.1440 -3.7767  0.8792
19739TIP3   OH280707   2.657   1.943  16.973  0.3089  0.5490 -0.8412
19739TIP3    H180708   2.662   1.903  17.059  0.5900 -0.1826 -1.1868
19739TIP3    H280709   2.694   1.878  16.914 -0.0797  0.9527 -1.5474
19740TIP3   OH280710   1.912   1.477   3.026  0.1601  0.7953  0.1277
19740TIP3    H180711   1.973   1.477   2.952 -0.1821  1.0756 -0.1577
19740TIP3    H280712   1.832   1.515   2.991 -0.1231  0.5956  0.5498
19741TIP3   OH280713   2.285   4.724  13.102 -0.1144 -0.3402  0.3976
19741TIP3    H180714   2.288   4.642  13.052 -1.4730 -0.2841  0.1855
19741TIP3    H280715   2.325   4.789  13.044 -3.2249  0.1077 -1.4865
19742TIP3   OH280716   2.640   2.536  13.844  0.0168  0.3611 -0.2577
19742TIP3    H180717   2.700   2.536  13.770  2.5094 -1.7207  1.5925
19742TIP3    H280718   2.638   2.627  13.875  2.0121  0.5446 -0.5764
19743TIP3   OH280719   3.425   5.457   3.661  0.4182  1.1480 -0.8775
19743TIP3    H180720   3.387   5.531   3.708 -0.3745  0.3878 -0.3009
19743TIP3    H280721   3.350   5.403   3.636  1.0495 -0.0377 -0.3130
19744TIP3   OH280722   1.694   6.197   4.089  0.1227  0.3065  0.1692
19744TIP3    H180723   1.727   6.151   4.167  1.6093 -0.0846 -0.6535
19744TIP3    H280724   1.726   6.144   4.016 -2.6646 -0.3037 -0.7331
19745TIP3   OH280725   6.075   2.822  13.039 -0.1783  0.3226 -0.1527
19745TIP3    H180726   6.156   2.794  12.996  0.2418  2.3625 -0.8050
19745TIP3    H280727   6.080   2.918  13.039 -2.8676  0.5338 -0.7521
19746TIP3   OH280728   4.189   0.227   3.742  0.2642  0.1053  0.0634
19746TIP3    H180729   4.154   0.308   3.706  0.9635  0.0991 -0.6418
19746TIP3    H280730   4.258   0.201   3.682 -0.0640 -1.1150  0.1799
19747TIP3   OH280731   6.765   4.219   5.173  0.0211  0.1833 -0.2295
19747TIP3    H180732   6.753   4.239   5.265 -0.4803  0.5586 -0.3714
19747TIP3    H280733   6.778   4.124   5.171  1.8748  0.3922  0.3842
19748TIP3   OH280734   6.802   2.992   0.625 -0.2843 -0.2631 -0.2302
19748TIP3    H180735   6.809   2.987   0.720  0.5766 -1.3934 -0.3471
19748TIP3    H280736   6.799   3.086   0.607 -1.1310 -0.0353  0.9436
19749TIP3   OH280737   0.806   2.345   0.815 -0.3055 -0.1411 -0.1261
19749TIP3    H180738   0.776   2.435   0.801  0.0376  0.1582  0.9768
19749TIP3    H280739   0.730   2.291   0.796 -0.5906  0.3884 -0.5435
19750TIP3   OH280740   2.829   6.327   6.377 -0.2098 -0.7338  0.8452
19750TIP3    H180741   2.870   6.364   6.455 -0.5033  0.8032  0.3110
19750TIP3    H280742   2.822   6.233   6.395 -0.1095 -0.4375  2.5814
19751TIP3   OH280743   4.181   4.945  13.955 -0.3281  0.0481  0.1931
19751TIP3    H180744   4.219   4.975  14.038 -0.0519 -0.7185  0.3506
19751TIP3    H280745   4.224   4.999  13.888  0.4971 -0.2869  0.4344
19752TIP3   OH280746   6.231   6.035   5.044  0.1827 -0.0109  0.4829
19752TIP3    H180747   6.145   6.035   5.002  0.8357  0.5775 -0.9176
19752TIP3    H280748   6.277   6.108   5.003  0.9943  0.3639  1.9945
19753TIP3   OH280749   1.572   0.487   2.969 -0.1291  0.0997 -0.3012
19753TIP3    H180750   1.486   0.473   2.928  0.5477 -1.0362 -1.4291
19753TIP3    H280751   1.633   0.444   2.910  1.1086 -0.0744  1.0532
19754TIP3   OH280752   1.560   0.803   3.258 -0.3143  0.3578 -0.1390
19754TIP3    H180753   1.620   0.855   3.204 -1.1473  1.9242  0.3941
19754TIP3    H280754   1.497   0.866   3.292  1.1454 -0.1617  4.1236
19755TIP3   OH280755   2.493   5.828   4.345 -0.8506 -0.0688  0.0427
19755TIP3    H180756   2.485   5.742   4.386  0.2454 -0.1296  0.1391
19755TIP3    H280757   2.452   5.816   4.259 -1.0930 -0.5589  0.2187
19756TIP3   OH280758   2.425   5.999  12.919 -0.1167 -0.2285 -0.1707
19756TIP3    H180759   2.413   5.923  12.863  2.2429 -2.1256  1.6755
19756TIP3    H280760   2.493   6.051  12.875 -1.1187  0.4410 -0.9929
19757TIP3   OH280761   5.045   2.797   4.820 -0.4033  0.5850  0.1081
19757TIP3    H180762   5.058   2.870   4.759  1.6938 -0.1866 -0.4531
19757TIP3    H280763   5.032   2.721   4.765 -0.0738  0.1305  0.6429
19758TIP3   OH280764   5.325   4.339  11.611  0.4428 -0.2624 -0.7498
19758TIP3    H180765   5.384   4.326  11.686 -0.4490  0.0981  0.0332
19758TIP3    H280766   5.381   4.328  11.535  1.5528  0.1481 -0.0231
19759TIP3   OH280767   0.224   4.608  15.836  0.1203 -0.0163 -0.1955
19759TIP3    H180768   0.272   4.689  15.856 -0.4758  0.7519 -1.7327
19759TIP3    H280769   0.134   4.636  15.824  0.1167 -0.6752 -2.0558
19760TIP3   OH280770   0.053   3.886   1.336 -0.2152  0.1267  0.6790
19760TIP3    H180771  -0.013   3.828   1.299 -0.7885  1.4060 -0.3736
19760TIP3    H280772   0.050   3.869   1.430 -1.0658 -0.8203  0.4947
19761TIP3   OH280773   2.648   2.886  15.804 -0.6511 -0.1409 -0.0160
19761TIP3    H180774   2.643   2.791  15.791 -0.9605  0.0245 -1.1827
19761TIP3    H280775   2.634   2.923  15.717 -1.2571  1.0010  0.5480
19762TIP3   OH280776   6.754   6.707   5.288  0.4328 -0.0910 -0.5663
19762TIP3    H180777   6.661   6.726   5.275 -0.0102 -1.0918  0.9169
19762TIP3    H280778   6.778   6.755   5.367  1.3372  0.5477 -1.1933
19763TIP3   OH280779   4.074   4.965   0.786  0.6025  1.1082 -0.1143
19763TIP3    H180780   4.062   4.986   0.694 -0.0132 -1.6377 -0.7653
19763TIP3    H280781   4.168   4.950   0.796  0.4686 -0.2535 -0.7416
19764TIP3   OH280782   6.558   6.714  13.154  0.1904  0.0673 -0.1004
19764TIP3    H180783   6.544   6.747  13.065  1.8541  1.4353  0.0854
19764TIP3    H280784   6.605   6.632  13.142 -0.3111 -0.1658 -0.4999
19765TIP3   OH280785   0.244   1.131  14.474  0.6353 -0.4256  0.2024
19765TIP3    H180786   0.238   1.083  14.392 -0.7968 -0.3602  0.2489
19765TIP3    H280787   0.171   1.098  14.527 -1.4699  2.9006 -0.3668
19766TIP3   OH280788   0.835   2.484  15.489 -0.0851  0.2263  0.1250
19766TIP3    H180789   0.847   2.393  15.460 -1.1771 -0.4414  1.5863
19766TIP3    H280790   0.743   2.502  15.469  0.1046  0.9786 -0.0644
19767TIP3   OH280791   6.542   6.793  16.535  0.2406  0.9431 -0.8563
19767TIP3    H180792   6.448   6.774  16.546  0.7907 -0.9555  1.4797
19767TIP3    H280793   6.556   6.873  16.586  0.1829  0.0936  0.5649
19768TIP3   OH280794   5.903   3.808   4.109  0.4085  0.0360  0.2703
19768TIP3    H180795   5.874   3.897   4.088  1.2317  0.6378  1.6103
19768TIP3    H280796   5.995   3.806   4.084  0.1217 -0.8215 -0.8172
19769TIP3   OH280797   6.172   2.817   3.674 -0.5630 -0.3486  0.1643
19769TIP3    H180798   6.219   2.775   3.602 -0.0825 -1.6878  1.2095
19769TIP3    H280799   6.236   2.873   3.716 -0.7396  0.1402 -0.2100
19770TIP3   OH280800   3.217   5.326  16.421  0.8229  0.0092 -0.2649
19770TIP3    H180801   3.304   5.361  16.438  1.4003 -0.6223 -1.7712
19770TIP3    H280802   3.224   5.285  16.334 -0.7303 -0.8306 -0.0272
19771TIP3   OH280803   5.213   4.780  11.679  0.3460 -0.5443 -0.5024
19771TIP3    H180804   5.242   4.747  11.595 -0.3887 -1.7193 -0.3245
19771TIP3    H280805   5.239   4.872  11.680  0.2808 -0.4890 -2.0436
19772TIP3   OH280806   1.815   5.922   5.582  0.5442  0.2513  0.0072
19772TIP3    H180807   1.831   6.012   5.552  1.9004 -0.0143 -0.1306
19772TIP3    H280808   1.872   5.912   5.658 -1.3378  0.2505  1.4789
19773TIP3   OH280809   6.807   5.270  13.628 -0.8362 -0.2188  0.2054
19773TIP3    H180810   6.839   5.252  13.717 -0.1187  0.1528  0.0283
19773TIP3    H280811   6.881   5.249  13.571 -0.4181  1.9229 -0.1193
19774TIP3   OH280812   6.462   6.254   0.675  0.4484 -0.0361 -0.1639
19774TIP3    H180813   6.406   6.304   0.734  1.1993  1.2609 -0.5115
19774TIP3    H280814   6.511   6.321   0.627 -0.3192 -1.0187 -2.4462
19775TIP3   OH280815   0.971   1.121  10.966  0.3030 -0.2720 -0.1048
19775TIP3    H180816   0.983   1.185  11.037 -0.6922  0.1049 -0.2678
19775TIP3    H280817   0.936   1.044  11.010 -2.7841  0.7950 -0.4483
19776TIP3   OH280818   0.015   3.588  13.092  0.7314 -0.5247  0.2958
19776TIP3    H180819  -0.010   3.625  13.176  1.8028 -0.5751  0.6528
19776TIP3    H280820   0.043   3.663  13.040  1.8503 -0.6786  0.6422
19777TIP3   OH280821   2.227   6.068   6.511 -0.3217  0.3079 -0.3568
19777TIP3    H180822   2.284   6.143   6.494 -1.1935  1.2442  0.6924
19777TIP3    H280823   2.277   5.993   6.480  0.8829  1.2403 -0.7683
19778TIP3   OH280824   5.130   2.514  11.543 -0.2143  0.8875 -0.0407
19778TIP3    H180825   5.115   2.421  11.558 -1.0216  1.0017 -0.1030
19778TIP3    H280826   5.222   2.527  11.566 -0.3007  0.2306  0.7428
19779TIP3   OH280827   0.998   6.498  12.102  0.2646  0.0711 -0.0853
19779TIP3    H180828   0.979   6.550  12.024 -0.0410  3.1342  1.8773
19779TIP3    H280829   0.940   6.423  12.095 -0.5831  0.8381 -2.2186
19780TIP3   OH280830   0.101   3.561   3.051 -0.0601  0.5634  0.6519
19780TIP3    H180831   0.015   3.527   3.075  0.5097  0.8200  3.4692
19780TIP3    H280832   0.091   3.592   2.961 -2.8257  0.3616  0.8151
19781TIP3   OH280833   5.564   1.594  16.692 -1.0922 -0.1821  0.1799
19781TIP3    H180834   5.568   1.673  16.638  0.7740  0.1904  0.7969
19781TIP3    H280835   5.579   1.522  16.630  3.0181  0.3487  0.3229
19782TIP3   OH280836   4.098   3.044  16.477 -0.3951 -0.1615 -0.3422
19782TIP3    H180837   4.173   3.096  16.505  0.1061  0.2255 -2.2206
19782TIP3    H280838   4.054   3.018  16.558  1.3522  0.2039  0.7680
19783TIP3   OH280839   1.709   3.034   2.785 -0.1550  0.1153 -0.3498
19783TIP3    H180840   1.703   2.941   2.802 -2.2520  0.3136  0.2176
19783TIP3    H280841   1.796   3.059   2.816  0.5241 -1.6664 -0.7406
19784TIP3   OH280842   5.290   3.550  13.516 -0.8922 -0.4460 -0.5209
19784TIP3    H180843   5.314   3.640  13.541 -2.3182 -0.1656 -0.0584
19784TIP3    H280844   5.312   3.545  13.423 -0.0382  0.1183 -0.3606
19785TIP3   OH280845   1.809   1.520   2.253  0.2028 -0.1507  0.0340
19785TIP3    H180846   1.793   1.470   2.172 -1.6158 -3.1105  1.9881
19785TIP3    H280847   1.759   1.601   2.241 -3.6484 -2.3233 -0.3613
19786TIP3   OH280848   5.538   2.660  11.881 -0.1646  0.0745 -0.4364
19786TIP3    H180849   5.531   2.569  11.910  0.4009  0.4875  1.0837
19786TIP3    H280850   5.508   2.659  11.790  3.4111 -2.3078 -1.7791
19787TIP3   OH280851   4.264   3.584   1.029 -0.3732  0.8548 -0.1144
19787TIP3    H180852   4.178   3.576   0.990 -0.9676  1.1680  1.0752
19787TIP3    H280853   4.323   3.601   0.955 -0.9162 -1.7250 -1.2517
19788TIP3   OH280854   0.556   5.669   3.661 -0.2247  0.1514  0.2481
19788TIP3    H180855   0.515   5.650   3.745  1.2682 -0.2652  0.9035
19788TIP3    H280856   0.637   5.715   3.683  1.5698 -2.3212 -0.7410
19789TIP3   OH280857   4.483   0.316  12.207  0.8573  0.3866  0.2481
19789TIP3    H180858   4.537   0.271  12.272  1.1770  0.1857 -0.1489
19789TIP3    H280859   4.532   0.307  12.125  0.3982  0.5210 -0.0469
19790TIP3   OH280860   0.957   6.150  12.166  0.4197 -0.7859  0.1789
19790TIP3    H180861   0.873   6.109  12.146  0.7242 -0.7332 -1.3041
19790TIP3    H280862   0.991   6.178  12.081  1.2920  0.4684  0.9004
19791TIP3   OH280863   0.576   3.423   0.063  0.2599  0.3839 -0.0082
19791TIP3    H180864   0.595   3.349   0.005  0.4744 -1.9296  2.7799
19791TIP3    H280865   0.481   3.421   0.075  0.3014  0.3196  0.3310
19792TIP3   OH280866   6.741   0.520  12.725  0.6040  0.2459 -0.0580
19792TIP3    H180867   6.766   0.607  12.756  0.6426  0.4785 -0.7261
19792TIP3    H280868   6.652   0.507  12.759  0.1536  1.0234 -0.8923
19793TIP3   OH280869   4.627   1.783   1.246  0.7681 -0.7057  0.0666
19793TIP3    H180870   4.595   1.733   1.321  0.4165 -1.1594 -0.3803
19793TIP3    H280871   4.594   1.736   1.170  0.7101  0.0241 -0.3696
19794TIP3   OH280872   5.576   6.197   0.563 -0.3722 -0.1944  0.9224
19794TIP3    H180873   5.510   6.267   0.566  0.8610  0.9782  1.6196
19794TIP3    H280874   5.634   6.221   0.492  0.1126 -0.4625  1.2232
19795TIP3   OH280875   1.052   2.217  16.822 -0.2292  1.1646  0.6574
19795TIP3    H180876   1.083   2.131  16.796  0.6094  1.2094  1.4829
19795TIP3    H280877   1.073   2.274  16.748 -0.7860  0.6799  0.1125
19796TIP3   OH280878   1.231   5.948  15.339  0.2112 -0.0970  0.1627
19796TIP3    H180879   1.201   6.027  15.384  1.3514  0.3399  0.1826
19796TIP3    H280880   1.267   5.893  15.408 -0.8102 -0.7615  0.1835
19797TIP3   OH280881   4.530   1.280   4.994  0.1529  0.8259  0.0527
19797TIP3    H180882   4.462   1.345   5.013  0.6899  1.4166 -0.0255
19797TIP3    H280883   4.533   1.224   5.072  0.4545  1.5772  0.5855
19798TIP3   OH280884   3.514   3.332   3.476  0.2251 -0.2595 -0.1753
19798TIP3    H180885   3.580   3.398   3.497 -0.3115  0.5509 -0.9290
19798TIP3    H280886   3.477   3.361   3.392 -1.3531 -0.4545  0.4135
19799TIP3   OH280887   0.276   3.686   5.228  0.7276 -0.3390 -0.2161
19799TIP3    H180888   0.202   3.715   5.282  1.0819 -1.2573  0.7864
19799TIP3    H280889   0.351   3.735   5.263  0.8187 -0.3551 -0.3901
19800TIP3   OH280890   3.230   0.022   2.956 -0.1776  0.0407  0.1344
19800TIP3    H180891   3.211   0.111   2.986  0.0363  0.2215 -0.2686
19800TIP3    H280892   3.162  -0.032   2.996 -0.5038  0.4349  0.1109
19801TIP3   OH280893   6.805   1.204   5.967  0.1420  0.3208  0.2946
19801TIP3    H180894   6.849   1.284   5.941 -0.6528  1.7128  2.8502
19801TIP3    H280895   6.711   1.223   5.955 -0.0606 -0.1403  1.0624
19802TIP3   OH280896   3.668   1.482   5.294  0.0720  0.1044  0.0129
19802TIP3    H180897   3.581   1.443   5.288  0.5063 -1.0943  0.9908
19802TIP3    H280898   3.728   1.407   5.296  0.9681  0.7911  1.5523
19803TIP3   OH280899   0.864   3.968   3.470  0.0035  0.3016  0.3888
19803TIP3    H180900   0.830   4.035   3.529  1.0151  0.3144  0.9836
19803TIP3    H280901   0.786   3.931   3.428 -0.6691  0.8848  1.0867
19804TIP3   OH280902   6.805   2.208   0.658 -0.3251  0.3825 -0.1968
19804TIP3    H180903   6.823   2.117   0.682  1.2452  0.0164 -2.4236
19804TIP3    H280904   6.891   2.251   0.659 -0.8138  1.4169 -0.7675
19805TIP3   OH280905   1.615   5.311  11.930 -0.2246  0.2624 -0.6188
19805TIP3    H180906   1.536   5.356  11.961  0.6184  1.4619 -0.1462
19805TIP3    H280907   1.596   5.291  11.838 -1.0054  0.7415 -0.5708
19806TIP3   OH280908   5.012   1.919   5.619  0.2779 -0.1271 -0.4565
19806TIP3    H180909   5.070   1.992   5.597 -0.5209  1.2951  1.8006
19806TIP3    H280910   5.071   1.849   5.647  0.9893  0.8252  0.5138
19807TIP3   OH280911   4.132   3.776  12.913 -0.0931 -0.2125 -0.4771
19807TIP3    H180912   4.182   3.718  12.971  0.0990 -0.6405 -1.0459
19807TIP3    H280913   4.053   3.726  12.892  0.0064 -0.2148 -0.8604
19808TIP3   OH280914   2.023   0.225   5.263  0.1270 -0.6933  0.8847
19808TIP3    H180915   2.109   0.265   5.274 -0.3904  0.8490 -0.3146
19808TIP3    H280916   2.037   0.154   5.200  0.6901 -1.1831  1.5398
19809TIP3   OH280917   3.813   5.803   3.865 -0.0011  0.0090 -0.3095
19809TIP3    H180918   3.888   5.843   3.821  0.7749 -0.4742  0.5375
19809TIP3    H280919   3.761   5.877   3.896  0.6695  0.3578 -0.0014
19810TIP3   OH280920   4.883   5.322   4.651 -0.4546 -0.1443  0.5635
19810TIP3    H180921   4.846   5.333   4.564 -0.4399 -1.3314  0.3908
19810TIP3    H280922   4.976   5.302   4.635  0.1664  2.1062  0.9616
19811TIP3   OH280923   6.620   2.553  15.377  0.0524 -0.3538  0.1168
19811TIP3    H180924   6.610   2.458  15.374  1.7367 -0.5946  0.8795
19811TIP3    H280925   6.601   2.582  15.288 -0.5833 -1.3947 -0.1007
19812TIP3   OH280926   5.524   0.771   4.760 -0.0256 -0.3680  0.2436
19812TIP3    H180927   5.561   0.852   4.726  1.4781 -1.4553 -0.8637
19812TIP3    H280928   5.476   0.734   4.686 -3.4737  0.9494  1.6046
19813TIP3   OH280929   0.036   0.661  15.873  0.5414 -0.5686  0.0868
19813TIP3    H180930   0.041   0.756  15.860 -1.9373  0.1720  3.2152
19813TIP3    H280931   0.106   0.642  15.935  0.3361 -0.5260  0.3372
19814TIP3   OH280932   4.986   6.721  13.097 -0.0141 -0.2407 -0.4287
19814TIP3    H180933   5.079   6.743  13.100  0.0949 -0.7270 -0.2388
19814TIP3    H280934   4.959   6.746  13.008  0.4388 -0.6654 -0.6908
19815TIP3   OH280935   3.694   2.560  15.250  0.4880 -0.3038  0.4537
19815TIP3    H180936   3.649   2.484  15.286 -2.8379  1.7637  1.1171
19815TIP3    H280937   3.773   2.570  15.304  0.3234 -2.4792  1.1571
19816TIP3   OH280938   6.378   0.319  16.394  0.2450  0.7245  0.7140
19816TIP3    H180939   6.352   0.410  16.407  0.8241  0.7588  1.6810
19816TIP3    H280940   6.327   0.270  16.459  1.5026  0.6276  1.6716
19817TIP3   OH280941   0.258   1.167  15.034 -0.1343 -0.1302  0.6125
19817TIP3    H180942   0.249   1.072  15.023  3.3785 -0.5450  0.3431
19817TIP3    H280943   0.251   1.202  14.945  1.3676 -0.4965  0.3276
19818TIP3   OH280944   1.590   2.985  12.481 -0.2729  0.0920 -0.3656
19818TIP3    H180945   1.501   2.962  12.456 -0.2406 -0.5644  0.1245
19818TIP3    H280946   1.615   2.919  12.546 -0.5888  2.1251  1.9639
19819TIP3   OH280947   6.101   1.268   3.276  0.5406  0.0729 -0.7894
19819TIP3    H180948   6.103   1.193   3.216  1.0126  0.5555 -1.3986
19819TIP3    H280949   6.154   1.241   3.350  0.8672 -0.1335 -1.0932
19820TIP3   OH280950   5.091   6.638   5.144  0.4410  0.2265  0.3915
19820TIP3    H180951   5.146   6.607   5.217  2.1359  1.6780 -0.2075
19820TIP3    H280952   5.148   6.632   5.068 -0.7408  0.4197 -0.5243
19821TIP3   OH280953   2.989   5.411  14.220  0.3057 -0.2644  0.2374
19821TIP3    H180954   3.019   5.490  14.265  0.3309 -0.0801 -0.1046
19821TIP3    H280955   2.894   5.419  14.216  0.2024 -0.8094  1.2463
19822TIP3   OH280956   4.880   3.737  11.955  0.0243  0.0993 -0.0479
19822TIP3    H180957   4.904   3.803  11.890 -1.1541  1.1724  0.5385
19822TIP3    H280958   4.788   3.756  11.974 -0.0188 -1.0277  0.9628
19823TIP3   OH280959   6.101   0.714   6.117 -0.7687 -0.0160  0.0321
19823TIP3    H180960   6.027   0.682   6.169 -1.3791 -0.7790 -1.2368
19823TIP3    H280961   6.178   0.677   6.160 -1.0598  1.0339  1.5488
19824TIP3   OH280962   4.796   5.694   2.119 -0.4401  0.4078 -0.7062
19824TIP3    H180963   4.783   5.609   2.160  0.3317  1.1285  1.1618
19824TIP3    H280964   4.771   5.681   2.027  1.5353 -2.3300 -0.9712
19825TIP3   OH280965   3.426   0.753   7.111 -0.3104 -0.1511  0.6262
19825TIP3    H180966   3.463   0.675   7.069 -0.5087  0.2442 -0.3235
19825TIP3    H280967   3.378   0.797   7.040  0.0779  1.0057  1.0675
19826TIP3   OH280968   3.502   4.379   1.000  0.1450  0.5231 -0.3282
19826TIP3    H180969   3.462   4.404   0.917  0.4166  0.3987 -0.4988
19826TIP3    H280970   3.463   4.437   1.065  0.5235  1.1651 -0.6637
19827TIP3   OH280971   1.214   6.560   0.664 -0.0863 -0.2235 -0.7004
19827TIP3    H180972   1.118   6.562   0.662 -0.1087 -1.2052 -3.0631
19827TIP3    H280973   1.237   6.475   0.626  1.7392 -0.8171  1.4868
19828TIP3   OH280974   1.050   3.538  11.863 -0.1577  0.1452 -0.3080
19828TIP3    H180975   1.117   3.470  11.856  0.6053  0.7907  0.4410
19828TIP3    H280976   1.060   3.589  11.782  0.3854  0.3378 -0.1276
19829TIP3   OH280977   6.584   3.732  16.831  0.0667  0.4548  0.1725
19829TIP3    H180978   6.643   3.664  16.797 -0.4854  0.1540 -0.2043
19829TIP3    H280979   6.504   3.684  16.854 -0.4329  1.0171 -0.3635
19830TIP3   OH280980   3.238   2.801  10.688  0.1103  0.3304 -0.0308
19830TIP3    H180981   3.206   2.852  10.613  0.4702  0.3359 -0.1872
19830TIP3    H280982   3.238   2.710  10.657  1.7086  0.4818 -0.5922
19831TIP3   OH280983   5.196   5.882   3.805  0.5084  0.0290  0.5001
19831TIP3    H180984   5.283   5.916   3.826 -0.4509  2.8848  0.2990
19831TIP3    H280985   5.139   5.959   3.808 -1.5274 -1.2034 -2.1547
19832TIP3   OH280986   6.531   0.029  12.163  0.4223  0.2112  0.7316
19832TIP3    H180987   6.515   0.090  12.235 -1.6586 -0.1154  0.6104
19832TIP3    H280988   6.484   0.066  12.088  1.3815 -0.1700 -0.0792
19833TIP3   OH280989   4.287   2.238  12.831 -0.5833  0.2776 -0.6794
19833TIP3    H180990   4.377   2.268  12.844 -0.8437  0.4760  0.9292
19833TIP3    H280991   4.264   2.267  12.744  1.0461 -0.1394 -1.2902
19834TIP3   OH280992   5.126   3.693   2.620 -0.0252 -0.4581  0.2630
19834TIP3    H180993   5.054   3.743   2.659 -0.0025 -0.4668  0.3169
19834TIP3    H280994   5.093   3.664   2.536  0.1844  0.1900 -0.0469
19835TIP3   OH280995   6.058   2.432  16.169 -0.0413  0.0225 -0.1280
19835TIP3    H180996   6.027   2.403  16.083 -0.0250  0.2835 -0.2244
19835TIP3    H280997   6.057   2.353  16.223  2.2050 -0.6538 -0.9964
19836TIP3   OH280998   3.791   4.432   2.447 -0.2513 -0.1846 -0.7187
19836TIP3    H180999   3.854   4.395   2.384  0.6108  0.8917 -0.5276
19836TIP3    H281000   3.843   4.495   2.497 -1.2685 -0.0045  0.1233
19837TIP3   OH281001   5.044   4.921  12.313  0.2701 -0.3691 -0.0395
19837TIP3    H181002   4.996   4.875  12.381 -0.4775 -0.6858 -0.7575
19837TIP3    H281003   4.983   4.926  12.239  0.5407  1.2478 -0.2001
19838TIP3   OH281004   6.224   5.154  11.989 -0.1391  0.0832  0.3550
19838TIP3    H181005   6.213   5.116  11.901  0.7507  0.5977  0.0042
19838TIP3    H281006   6.135   5.171  12.019 -0.4511  2.0114 -1.4172
19839TIP3   OH281007   3.649   0.758   0.379 -0.1652 -0.0851 -0.1675
19839TIP3    H181008   3.672   0.764   0.286 -0.0685 -3.7464 -0.5355
19839TIP3    H281009   3.712   0.815   0.422  1.6673 -0.4226 -2.1742
19840TIP3   OH281010   2.997   5.954   3.153  0.5170  0.5710  0.2754
19840TIP3    H181011   3.085   5.917   3.142 -0.4867 -2.1022  0.6595
19840TIP3    H281012   2.966   5.918   3.236 -0.7999  1.8572  0.3904
19841TIP3   OH281013   6.086   4.885   0.434 -0.3544 -0.2881  0.5632
19841TIP3    H181014   6.172   4.845   0.449 -0.8934 -2.0684 -0.6757
19841TIP3    H281015   6.105   4.964   0.384  0.6366  0.0915  1.5018
19842TIP3   OH281016   3.368   5.703  15.751  0.2925  0.1958 -0.1775
19842TIP3    H181017   3.324   5.788  15.743  0.9948  0.6684  0.8427
19842TIP3    H281018   3.455   5.718  15.715  0.0341 -0.4323 -1.1097
19843TIP3   OH281019   5.581   3.055  13.842  0.1586  0.7003 -0.9574
19843TIP3    H181020   5.603   2.981  13.785  0.6631 -0.5311  0.7586
19843TIP3    H281021   5.587   3.020  13.931 -0.4954  2.5811 -0.1139
19844TIP3   OH281022   4.198   1.956  12.640  0.2249 -0.2678  0.5477
19844TIP3    H181023   4.254   1.879  12.635 -0.6710 -0.8552 -1.5819
19844TIP3    H281024   4.186   1.982  12.549  1.0929  2.8727  1.2078
19845TIP3   OH281025   4.127   3.481  14.143  0.4455 -0.4385 -0.1346
19845TIP3    H181026   4.048   3.466  14.090  0.1844  1.5465 -0.3997
19845TIP3    H281027   4.143   3.397  14.186 -1.2915 -1.1530 -0.7683
19846TIP3   OH281028   5.240   5.019  12.922  0.4533 -0.1489 -0.6162
19846TIP3    H181029   5.321   4.982  12.885  0.2296 -0.9528 -0.3245
19846TIP3    H281030   5.270   5.080  12.989  0.8643  1.1841 -1.9722
19847TIP3   OH281031   6.519   5.430   0.337 -0.0533 -0.8544  0.5050
19847TIP3    H181032   6.483   5.398   0.254  0.8341 -1.2525  0.2614
19847TIP3    H281033   6.614   5.425   0.325  0.0851  0.0579  1.1756
19848TIP3   OH281034   1.282   1.607   4.448 -0.0754 -0.2957  0.2064
19848TIP3    H181035   1.207   1.650   4.489  0.7227  0.2020  1.1750
19848TIP3    H281036   1.293   1.652   4.364 -1.7314 -1.3318 -0.6348
19849TIP3   OH281037   4.382   6.289   4.484 -0.3716  0.1944 -0.2715
19849TIP3    H181038   4.307   6.291   4.543 -1.7071 -1.0474 -1.8161
19849TIP3    H281039   4.347   6.316   4.399  1.1380  0.4655 -0.8544
19850TIP3   OH281040   4.947   3.141   2.211 -0.1194 -0.0181  0.0076
19850TIP3    H181041   4.874   3.204   2.208  0.7557  1.2779  2.6198
19850TIP3    H281042   5.021   3.188   2.172 -0.1672 -0.5435 -0.7225
19851TIP3   OH281043   4.383   1.675  11.172 -0.1418 -0.2317 -0.1945
19851TIP3    H181044   4.336   1.603  11.128  1.2063 -0.3418 -1.5114
19851TIP3    H281045   4.472   1.671  11.137 -0.1545  2.4242 -0.7146
19852TIP3   OH281046   4.499   6.612  11.925 -0.1583 -0.5742 -0.2787
19852TIP3    H181047   4.473   6.548  11.859 -0.5059  0.4597 -1.1825
19852TIP3    H281048   4.584   6.581  11.956 -0.3635 -1.5134 -0.6325
19853TIP3   OH281049   1.639   5.292  13.560 -0.0527 -0.3295  0.5343
19853TIP3    H181050   1.695   5.364  13.588 -0.7161  0.6449 -0.5795
19853TIP3    H281051   1.575   5.282  13.630 -0.9498  1.2633 -0.0113
19854TIP3   OH281052   0.484   1.011  14.879  0.0536 -0.2241 -0.3057
19854TIP3    H181053   0.418   0.946  14.902  0.2400  0.0693  1.2025
19854TIP3    H281054   0.560   0.959  14.851 -0.0562 -0.6380  0.1460
19855TIP3   OH281055   2.806   1.287  16.138 -0.2007 -0.0827  0.0686
19855TIP3    H181056   2.898   1.306  16.121 -0.2980 -0.7314 -1.3220
19855TIP3    H281057   2.762   1.302  16.055 -0.9938 -1.8660  0.0966
19856TIP3   OH281058   4.979   3.126  12.297  0.7356  0.1810  0.5566
19856TIP3    H181059   4.907   3.128  12.361 -0.8245 -1.1351 -1.0630
19856TIP3    H281060   4.940   3.158  12.216  1.2324 -2.8437 -1.0012
19857TIP3   OH281061   2.792   2.211  10.835  0.0113 -0.1718 -0.2275
19857TIP3    H181062   2.754   2.299  10.841 -0.5068 -0.4436  0.6394
19857TIP3    H281063   2.841   2.212  10.752  0.6063  1.1629  0.1022
19858TIP3   OH281064   1.379   2.471  11.648  0.2632 -0.3303  0.1357
19858TIP3    H181065   1.415   2.524  11.719  1.9800 -0.8900 -0.2899
19858TIP3    H281066   1.284   2.482  11.656  0.3636 -0.7868  2.8497
19859TIP3   OH281067   5.751   5.091  15.687  0.4210  0.0832 -0.4519
19859TIP3    H181068   5.793   5.161  15.737 -0.7287 -0.5626  1.5330
19859TIP3    H281069   5.670   5.130  15.655 -0.2248 -0.2995  0.6630
19860TIP3   OH281070   3.260   0.558  13.254  0.5354  0.0478  0.5336
19860TIP3    H181071   3.274   0.527  13.344  1.7850 -1.8831 -0.2589
19860TIP3    H281072   3.216   0.485  13.210 -0.0478  0.9564 -0.4365
19861TIP3   OH281073   2.629   0.307  14.649  0.2068  0.4357 -0.1117
19861TIP3    H181074   2.645   0.249  14.575  1.6602  0.9109 -0.1958
19861TIP3    H281075   2.636   0.251  14.726 -0.6679  0.0705 -0.2862
19862TIP3   OH281076   0.182   6.738   4.030 -0.8588 -0.3864 -0.5258
19862TIP3    H181077   0.224   6.672   3.975  0.2309 -0.4379  0.3327
19862TIP3    H281078   0.247   6.759   4.097 -1.4402  1.0737 -0.3800
19863TIP3   OH281079   3.298   2.876  17.113 -0.4319  0.2136 -0.3682
19863TIP3    H181080   3.339   2.962  17.107  1.1134 -0.5530 -1.8324
19863TIP3    H281081   3.331   2.839  17.195  1.0180  0.0262 -1.0096
19864TIP3   OH281082   0.530   1.787  11.276  0.3803  0.0157  0.3494
19864TIP3    H181083   0.450   1.809  11.324  0.7868  0.2735  0.9076
19864TIP3    H281084   0.598   1.781  11.343  0.7536 -0.6229 -0.0736
19865TIP3   OH281085   6.213   6.286  13.881 -0.6149 -0.3714 -0.0868
19865TIP3    H181086   6.216   6.253  13.971  2.5975 -0.0564  0.0499
19865TIP3    H281087   6.300   6.266  13.845 -1.9391 -0.8924 -3.3122
19866TIP3   OH281088   0.783   0.541  16.444  0.0740 -0.3094 -0.5230
19866TIP3    H181089   0.722   0.532  16.371  0.4834 -1.6987 -0.7106
19866TIP3    H281090   0.741   0.606  16.501 -0.8997 -0.2057 -1.3257
19867TIP3   OH281091   5.621   4.958   0.599 -0.6257  0.2310  0.2365
19867TIP3    H181092   5.610   4.996   0.687 -0.0731  2.2422 -0.5089
19867TIP3    H281093   5.632   5.034   0.542  2.7783 -1.0865 -1.0706
19868TIP3   OH281094   6.690   3.661   1.747  1.0962  0.8006 -0.3517
19868TIP3    H181095   6.691   3.755   1.766  3.2395  0.7773 -0.1802
19868TIP3    H281096   6.674   3.656   1.653  0.5958  1.3010 -0.3057
19869TIP3   OH281097   1.801   2.293   3.013 -0.1120 -0.1138  0.4090
19869TIP3    H181098   1.882   2.258   2.975 -0.0997  1.0540 -0.7111
19869TIP3    H281099   1.824   2.382   3.039 -1.2571  0.5469 -0.7510
19870TIP3   OH281100   3.243   3.846  16.868 -0.0958 -0.1070 -0.8262
19870TIP3    H181101   3.313   3.909  16.850 -0.3112  0.8455  1.3913
19870TIP3    H281102   3.184   3.892  16.928 -1.2816 -1.7858 -0.6447
19871TIP3   OH281103   3.680   1.900   0.763  0.0308  0.2764 -0.3910
19871TIP3    H181104   3.772   1.925   0.754  0.0789 -0.0587 -0.8144
19871TIP3    H281105   3.650   1.950   0.840  0.5563  0.4013 -0.2605
19872TIP3   OH281106   1.224   2.484  17.066 -0.0755 -0.0774 -0.2396
19872TIP3    H181107   1.255   2.556  17.011  0.4035 -0.3206 -0.2985
19872TIP3    H281108   1.264   2.501  17.152  0.8360 -0.7828 -0.5033
19873TIP3   OH281109   3.061   5.396   2.335  0.1007 -0.0500  0.0154
19873TIP3    H181110   3.007   5.445   2.273  0.7710  0.6476 -0.0298
19873TIP3    H281111   3.006   5.388   2.413 -1.0273 -1.5550 -0.8695
19874TIP3   OH281112   4.323   2.144  17.213 -0.2104  0.1695 -0.3103
19874TIP3    H181113   4.382   2.079  17.176  0.0557 -0.3803  1.0287
19874TIP3    H281114   4.380   2.211  17.250 -0.4551  0.5143 -0.5549
19875TIP3   OH281115   2.373   2.974   2.521 -0.2065  0.0888 -0.1676
19875TIP3    H181116   2.419   2.989   2.604  0.4797  1.1643 -0.7135
19875TIP3    H281117   2.280   2.983   2.543 -0.2505 -2.5842  1.0513
19876TIP3   OH281118   2.692   0.030  15.871  0.1594 -0.1579 -0.0449
19876TIP3    H181119   2.728   0.011  15.958  1.4296  0.2077 -0.4675
19876TIP3    H281120   2.638  -0.046  15.850  0.7584 -0.7704  0.5867
19877TIP3   OH281121   4.416   6.009  11.090  0.3755 -0.1599 -0.7674
19877TIP3    H181122   4.383   6.050  11.010  0.8896 -1.4129 -1.6571
19877TIP3    H281123   4.456   5.927  11.060  1.0276 -0.4163  0.7191
19878TIP3   OH281124   0.273   5.195  15.412 -0.2849  0.7213  0.9879
19878TIP3    H181125   0.223   5.248  15.474  0.3323  2.0582  0.3797
19878TIP3    H281126   0.346   5.252  15.385 -1.3264  0.7811 -2.1009
19879TIP3   OH281127   2.174   0.050  12.233  0.2908  0.0142  0.4594
19879TIP3    H181128   2.165   0.081  12.143  1.0429 -1.4186 -0.1661
19879TIP3    H281129   2.100   0.087  12.280 -0.4966  0.2526 -0.9199
19880TIP3   OH281130   5.502   4.429   3.514  0.8764 -0.2332  0.2152
19880TIP3    H181131   5.448   4.406   3.589  1.1312  0.8856  0.7565
19880TIP3    H281132   5.519   4.522   3.524  2.2224 -0.3914 -0.3879
19881TIP3   OH281133   6.608   0.814  12.515  0.2123 -0.0876 -0.7181
19881TIP3    H181134   6.687   0.814  12.462  0.8307 -1.5814  0.1337
19881TIP3    H281135   6.631   0.866  12.592  0.3016 -0.3226 -0.5829
19882TIP3   OH281136   5.444   1.109  13.491  0.6840  0.0775  0.8651
19882TIP3    H181137   5.350   1.111  13.509  0.1757  0.0082 -1.4774
19882TIP3    H281138   5.484   1.132  13.575 -1.4188  0.5815  1.8192
19883TIP3   OH281139   3.022   1.326  15.585  0.2498  0.0932  0.6214
19883TIP3    H181140   3.076   1.276  15.524  0.6899  0.1031  0.9985
19883TIP3    H281141   3.065   1.314  15.670 -0.6277 -0.3184  1.0179
19884TIP3   OH281142   4.511   3.189  10.827 -0.9521  0.1987  0.4519
19884TIP3    H181143   4.518   3.152  10.739 -0.4742 -1.3914  1.1169
19884TIP3    H281144   4.461   3.124  10.876  0.0690  0.3407  1.7293
19885TIP3   OH281145   5.429   0.626  13.250 -0.0564  0.1768 -0.6263
19885TIP3    H181146   5.344   0.668  13.263 -0.1307 -0.1498 -0.0046
19885TIP3    H281147   5.422   0.584  13.165  0.2640  1.9879 -1.5959
19886TIP3   OH281148   3.496   0.501   5.586  0.2960 -0.1229  0.2741
19886TIP3    H181149   3.546   0.510   5.667  0.2145  0.0177  0.3085
19886TIP3    H281150   3.484   0.590   5.554  2.0621 -0.2888 -0.9565
19887TIP3   OH281151   5.756   3.114   4.817  0.2807  0.6431  0.3814
19887TIP3    H181152   5.686   3.178   4.828  0.5006  0.6541  1.8322
19887TIP3    H281153   5.731   3.066   4.737 -1.2128  0.8692  0.6696
19888TIP3   OH281154   0.458   5.251   4.856  0.4608  0.0964 -0.1061
19888TIP3    H181155   0.457   5.177   4.917  0.9252  0.1785  0.0114
19888TIP3    H281156   0.549   5.281   4.857  0.1389  1.1202  0.3965
19889TIP3   OH281157   4.116   3.524  17.247 -0.0695 -0.1087 -0.0670
19889TIP3    H181158   4.205   3.532  17.213 -0.1630 -0.2426 -0.3445
19889TIP3    H281159   4.103   3.430  17.256  0.9255 -0.0817  2.8859
19890TIP3   OH281160   1.646   0.001  16.694 -0.3558 -0.4242 -0.3785
19890TIP3    H181161   1.683   0.034  16.611  0.9291 -1.6416 -0.3207
19890TIP3    H281162   1.587   0.071  16.722 -1.1693 -0.1578 -2.5319
19891TIP3   OH281163   2.301   1.376   0.995  0.1754 -0.2511  0.2390
19891TIP3    H181164   2.215   1.404   0.962 -0.2479 -0.6737  0.9461
19891TIP3    H281165   2.290   1.376   1.090  1.4970  1.3678  0.4375
19892TIP3   OH281166   1.566   6.100   4.978  0.2053  0.1664 -0.1519
19892TIP3    H181167   1.599   6.026   4.927 -1.2407 -0.9708  0.4883
19892TIP3    H281168   1.607   6.091   5.064  2.0786  1.6724 -0.8076
19893TIP3   OH281169   6.818   4.644   2.472  0.3715 -0.2640  0.0134
19893TIP3    H181170   6.808   4.636   2.566  1.0331 -0.4535  0.0723
19893TIP3    H281171   6.737   4.610   2.436 -0.8183  1.7984  0.5668
19894TIP3   OH281172   1.993   0.257  12.323 -0.0832 -0.0365  0.0841
19894TIP3    H181173   1.920   0.318  12.340 -0.2521 -0.3220  0.3891
19894TIP3    H281174   2.052   0.307  12.267 -0.7338  0.0450 -0.5490
19895TIP3   OH281175   6.292   1.332   4.567  0.4274 -0.3590  0.2243
19895TIP3    H181176   6.301   1.299   4.656  1.9296 -2.4583 -0.6211
19895TIP3    H281177   6.335   1.418   4.569  3.1835 -1.6267  0.9452
19896TIP3   OH281178   5.278   2.417   5.415 -0.7412  0.1282 -0.6204
19896TIP3    H181179   5.227   2.388   5.490 -0.3299 -2.5103 -1.2627
19896TIP3    H281180   5.348   2.470   5.454 -0.6280 -1.0294  0.9003
19897TIP3   OH281181   2.611   5.053   6.767 -0.2017  0.0784 -0.2069
19897TIP3    H181182   2.572   5.025   6.684 -0.3537 -0.5827  0.0849
19897TIP3    H281183   2.576   5.141   6.782  1.1534  0.9313 -1.7063
19898TIP3   OH281184   6.462   4.528   4.852 -0.0400  0.4443  0.0934
19898TIP3    H181185   6.496   4.494   4.935 -0.5189  0.9853  0.5255
19898TIP3    H281186   6.454   4.451   4.796  0.5820  0.1139  0.4399
19899TIP3   OH281187   2.257   0.560  15.590 -0.6665 -0.0389  0.0193
19899TIP3    H181188   2.301   0.493  15.537  0.4321  1.9503 -1.7637
19899TIP3    H281189   2.174   0.575  15.546  0.0980  1.3714 -1.0167
19900TIP3   OH281190   4.562   2.030  13.825 -0.0581  0.6370 -0.5028
19900TIP3    H181191   4.632   2.032  13.759  0.2561  1.5563 -0.1599
19900TIP3    H281192   4.607   2.045  13.908 -0.4281 -0.7292 -0.0300
19901TIP3   OH281193   4.940   4.721  13.014 -0.5252  0.5023  0.3927
19901TIP3    H181194   4.886   4.693  12.940  0.0636 -1.3434  0.6108
19901TIP3    H281195   4.881   4.717  13.089 -0.2285 -1.2505  0.5866
19902TIP3   OH281196   5.601   0.666   3.268 -0.1174 -0.1769 -0.3970
19902TIP3    H181197   5.511   0.635   3.275 -0.5412  0.8971 -0.9429
19902TIP3    H281198   5.628   0.682   3.359 -1.2172  1.5079 -0.3279
19903TIP3   OH281199   6.041   0.868  17.050  0.2811 -0.0055 -0.4796
19903TIP3    H181200   6.122   0.912  17.075  0.6388  0.9575 -2.9802
19903TIP3    H281201   6.068   0.807  16.981 -0.8587 -1.0257 -0.0490
19904TIP3   OH281202   6.747   5.515   2.658 -0.3700  0.0735 -0.3378
19904TIP3    H181203   6.685   5.576   2.699 -0.1077  0.4463 -0.4825
19904TIP3    H281204   6.801   5.571   2.602  0.8937 -0.0569  0.7219
19905TIP3   OH281205   3.728   4.644   0.966  0.0306  0.0989  0.1886
19905TIP3    H181206   3.770   4.690   0.893 -0.7319  1.5382  0.6134
19905TIP3    H281207   3.800   4.623   1.026  0.3720  1.0775  0.1388
19906TIP3   OH281208   2.032   5.524  16.901 -0.6699 -0.4018 -0.1447
19906TIP3    H181209   2.121   5.556  16.884 -0.3064 -1.2049  0.1782
19906TIP3    H281210   2.040   5.428  16.897 -1.3868 -0.5005  0.5236
19907TIP3   OH281211   2.899   6.798   0.905  0.0966  0.3798 -0.7482
19907TIP3    H181212   2.973   6.827   0.851  0.0630 -1.7522 -2.0706
19907TIP3    H281213   2.924   6.820   0.995  3.4289 -2.1846 -0.8536
19908TIP3   OH281214   6.267   5.322  14.352  0.3396  0.6360  0.1223
19908TIP3    H181215   6.324   5.247  14.337  0.2022  0.7275 -0.9370
19908TIP3    H281216   6.182   5.285  14.374  0.4257  0.4876  0.2029
19909TIP3   OH281217   4.908   3.479  12.363  0.4662  0.0487 -0.2731
19909TIP3    H181218   4.819   3.449  12.343 -0.4376  1.7514  0.9378
19909TIP3    H281219   4.939   3.519  12.283  0.0738 -0.3875 -0.6499
19910TIP3   OH281220   4.723   5.786   1.082 -0.0949 -0.3929  0.0757
19910TIP3    H181221   4.759   5.708   1.124  1.0687 -0.6595 -1.3299
19910TIP3    H281222   4.647   5.809   1.135  0.4889 -1.5263  1.4656
19911TIP3   OH281223   2.035   3.458   0.290  0.1757  0.1297 -0.3169
19911TIP3    H181224   2.104   3.524   0.302  0.8403 -0.0946 -2.4522
19911TIP3    H281225   1.959   3.509   0.262  0.3039  0.1051 -0.7064
19912TIP3   OH281226   1.743   5.314  17.228  0.0235  0.3157 -0.0995
19912TIP3    H181227   1.825   5.350  17.195 -0.1794  1.3533  0.4743
19912TIP3    H281228   1.752   5.317  17.324 -0.4544 -0.1046 -0.0359
19913TIP3   OH281229   2.611   4.017   3.375 -0.8450 -0.3278  0.5721
19913TIP3    H181230   2.663   4.074   3.319 -1.4916  0.8114  1.0915
19913TIP3    H281231   2.670   3.994   3.447  0.2103 -2.3476 -0.8466
19914TIP3   OH281232   5.403   2.116  11.399 -0.0001 -0.3239  0.7223
19914TIP3    H181233   5.456   2.048  11.358  1.7510  2.4583 -2.1418
19914TIP3    H281234   5.464   2.162  11.457  0.4163  1.7827 -1.2223
19915TIP3   OH281235   6.503   4.183  12.112 -0.2674  0.0584  0.4194
19915TIP3    H181236   6.509   4.252  12.046 -1.1227  1.3136  1.5976
19915TIP3    H281237   6.410   4.162  12.117  0.1049 -2.3742 -1.0316
19916TIP3   OH281238   6.075   3.626  15.772  0.1043 -0.4156 -0.0265
19916TIP3    H181239   5.989   3.655  15.745  0.5359 -1.1838 -2.4875
19916TIP3    H281240   6.082   3.652  15.864 -1.1886  3.2351 -0.7862
19917TIP3   OH281241   3.173   1.494   2.136 -0.3161 -0.0463 -0.0904
19917TIP3    H181242   3.140   1.422   2.189 -1.1120  0.4491  0.1063
19917TIP3    H281243   3.145   1.573   2.182  1.4492  0.4252  0.2703
19918TIP3   OH281244   2.128   3.100  16.590 -0.0077 -0.1494 -0.4624
19918TIP3    H181245   2.134   3.134  16.679 -0.2371 -0.1026 -0.4649
19918TIP3    H281246   2.188   3.154  16.539 -0.7930  0.6203 -0.5823
19919TIP3   OH281247   6.076   6.364   5.571  0.0172 -0.0556 -0.3776
19919TIP3    H181248   6.156   6.310   5.574 -0.2192 -0.3743  1.6278
19919TIP3    H281249   6.100   6.444   5.616 -0.4356  0.3962 -0.9329
19920TIP3   OH281250   3.823   6.779  14.346 -0.1510 -0.5129  0.3442
19920TIP3    H181251   3.766   6.716  14.303  0.1465 -0.1395 -0.6207
19920TIP3    H281252   3.911   6.756  14.317  0.0005  0.0811  0.3129
19921TIP3   OH281253   2.395   2.093   3.998  0.0439  0.3356 -0.2237
19921TIP3    H181254   2.483   2.059   4.013 -0.0869 -0.8420 -1.8282
19921TIP3    H281255   2.407   2.188   3.992  1.2213  0.1916 -0.4958
19922TIP3   OH281256   0.949   5.889   0.166 -0.7240 -0.3145 -0.1484
19922TIP3    H181257   0.937   5.798   0.193  1.8526 -0.0862  2.2129
19922TIP3    H281258   0.977   5.883   0.074 -1.6127 -1.7790 -0.3630
19923TIP3   OH281259   1.549   2.670  13.475 -0.3336  0.2077  0.1498
19923TIP3    H181260   1.611   2.727  13.521  0.7047 -0.3927 -0.4518
19923TIP3    H281261   1.510   2.616  13.544 -0.8799  1.2093  0.6470
19924TIP3   OH281262   2.238   0.724   3.820  0.1811 -0.3776  0.4647
19924TIP3    H181263   2.184   0.676   3.883 -0.8263 -1.5459 -1.2062
19924TIP3    H281264   2.291   0.657   3.777  0.8982  0.3989  0.1138
19925TIP3   OH281265   5.596   5.271   2.923 -0.0647 -0.0073  0.1717
19925TIP3    H181266   5.660   5.211   2.886 -1.0817  0.2893 -2.2551
19925TIP3    H281267   5.649   5.338   2.968  1.1367 -1.5168  1.1176
19926TIP3   OH281268   6.238   4.005  12.328 -0.5790 -0.3994  0.0729
19926TIP3    H181269   6.280   4.072  12.383 -0.4138 -1.6043  1.4654
19926TIP3    H281270   6.220   4.050  12.246 -2.6469  2.1044  1.7200
19927TIP3   OH281271   0.302   5.774  16.062 -0.0135 -0.0980 -0.2520
19927TIP3    H181272   0.318   5.859  16.102 -1.5021  0.0252  0.1391
19927TIP3    H281273   0.246   5.793  15.986  0.5247 -0.6134 -0.7896
19928TIP3   OH281274   2.290   4.242  14.421 -0.4294  0.0246 -0.5512
19928TIP3    H181275   2.257   4.250  14.510 -0.2784  1.7074 -0.6188
19928TIP3    H281276   2.324   4.153  14.416 -1.7341 -0.5673  0.6157
19929TIP3   OH281277   2.419   3.534  11.480  0.0579 -0.3450 -0.1724
19929TIP3    H181278   2.325   3.548  11.472  0.0618  0.0736  0.4163
19929TIP3    H281279   2.434   3.447  11.444 -0.4908 -0.2419 -0.6616
19930TIP3   OH281280   4.731   4.745   4.186  0.1364  0.1323 -0.7541
19930TIP3    H181281   4.809   4.698   4.213 -0.8262 -0.3531  1.4705
19930TIP3    H281282   4.678   4.681   4.138 -0.2648 -0.5137  0.5022
19931TIP3   OH281283   0.557   2.443  16.343  0.1641 -0.4046 -0.1925
19931TIP3    H181284   0.523   2.436  16.254 -2.9980 -1.0704  0.9688
19931TIP3    H281285   0.486   2.483  16.394  1.5605 -0.7582  2.2091
19932TIP3   OH281286   0.212   4.758  13.630  0.0777  0.8497 -0.6779
19932TIP3    H181287   0.224   4.753  13.725 -1.8573 -2.1260 -0.4611
19932TIP3    H281288   0.243   4.674  13.596  0.6851  1.8240 -2.7374
19933TIP3   OH281289   2.446   0.012   4.394 -0.5132  0.0431 -0.1668
19933TIP3    H181290   2.517  -0.052   4.386  2.2692  2.7646  0.8995
19933TIP3    H281291   2.422   0.032   4.303 -1.5676 -2.4350 -0.5381
19934TIP3   OH281292   4.767   2.802  16.984 -0.5115  0.2475 -0.2852
19934TIP3    H181293   4.737   2.857  16.912  0.2142 -0.5033 -1.1762
19934TIP3    H281294   4.861   2.820  16.990 -0.2550 -0.9489 -0.6335
19935TIP3   OH281295   1.954   4.795  11.409 -0.6671  0.5370 -0.2454
19935TIP3    H181296   1.929   4.765  11.496  0.8733  1.5658  0.5883
19935TIP3    H281297   1.870   4.808  11.364 -1.4762 -2.6079  0.1022
19936TIP3   OH281298   4.485   6.437  16.375 -0.1380 -0.9953 -0.4527
19936TIP3    H181299   4.521   6.517  16.337  0.6847 -1.7172 -1.2494
19936TIP3    H281300   4.428   6.402  16.306 -1.3713 -0.5319  0.3132
19937TIP3   OH281301   1.946   5.566   5.545 -0.1170 -0.1310 -0.6548
19937TIP3    H181302   1.922   5.600   5.459 -1.6006 -2.4701 -1.2419
19937TIP3    H281303   1.979   5.478   5.528 -0.6205 -0.7179  1.1895
19938TIP3   OH281304   3.652   3.437  12.373  0.0072  0.1957  0.1780
19938TIP3    H181305   3.649   3.463  12.281  0.1422 -0.1100  0.0863
19938TIP3    H281306   3.564   3.404  12.392  1.1550 -4.4528 -1.2460
19939TIP3   OH281307   0.489   5.661  11.533  0.6713  0.0488  0.2187
19939TIP3    H181308   0.435   5.699  11.602 -0.4606  2.1932 -1.7110
19939TIP3    H281309   0.560   5.724  11.521 -1.2283  1.8289 -3.0423
19940TIP3   OH281310   5.970   0.245   4.454 -0.0826  0.1609 -0.3500
19940TIP3    H181311   6.046   0.214   4.405  0.0435  0.3828 -0.2938
19940TIP3    H281312   5.996   0.235   4.546 -0.9998 -2.0296 -0.2635
19941TIP3   OH281313   5.939   2.123   1.988  0.1410 -0.6033 -0.0728
19941TIP3    H181314   5.877   2.135   1.916  0.1922  2.2238  0.2334
19941TIP3    H281315   5.987   2.043   1.966 -0.4902 -0.3518 -2.6459
19942TIP3   OH281316   5.539   6.410  11.602 -0.1220  0.2533 -0.4057
19942TIP3    H181317   5.463   6.420  11.659 -1.5524 -0.3640 -2.1374
19942TIP3    H281318   5.553   6.316  11.597 -0.8551  0.2096 -2.1014
19943TIP3   OH281319   6.570   4.306  11.438 -0.2050  0.3811 -0.0031
19943TIP3    H181320   6.648   4.332  11.486 -0.8313  1.0629  0.6868
19943TIP3    H281321   6.540   4.226  11.482  0.7194 -0.5311 -0.9877
19944TIP3   OH281322   1.085   4.691   3.327  0.6544  0.5445 -0.2703
19944TIP3    H181323   1.125   4.619   3.375 -0.3853 -0.2901 -0.6187
19944TIP3    H281324   0.991   4.676   3.335  0.4024 -0.0638 -3.1470
19945TIP3   OH281325   4.093   0.827  12.616  0.1062 -0.8022  0.6941
19945TIP3    H181326   4.067   0.747  12.570 -0.3051 -0.3850  0.1968
19945TIP3    H281327   4.188   0.830  12.605  0.0026 -0.6499 -0.2387
19946TIP3   OH281328   1.777   6.506  13.742  0.3639 -0.2966 -0.6506
19946TIP3    H181329   1.762   6.414  13.722  0.4336  0.0922 -2.6904
19946TIP3    H281330   1.855   6.529  13.690  0.6811  0.7762  0.2659
19947TIP3   OH281331   0.998   5.728   5.176 -0.0002 -0.1248  0.3281
19947TIP3    H181332   1.010   5.735   5.271  1.2182 -0.1996  0.1972
19947TIP3    H281333   0.953   5.809   5.151  0.9276  0.5553  0.7904
19948TIP3   OH281334   5.889   2.742   2.615  0.2183 -0.3415  0.5144
19948TIP3    H181335   5.945   2.807   2.574  1.6804 -1.5738  0.4619
19948TIP3    H281336   5.803   2.784   2.620  0.8748  1.2024 -0.4014
19949TIP3   OH281337   5.993   6.795   1.535 -0.3539 -0.5175 -0.3649
19949TIP3    H181338   6.067   6.757   1.583  0.4383  0.4078 -0.8152
19949TIP3    H281339   5.932   6.822   1.603 -0.5449 -1.7951 -0.0092
19950TIP3   OH281340   1.046   0.762  14.147 -0.0608 -0.0589  0.2971
19950TIP3    H181341   1.130   0.770  14.193  0.5711  1.0443 -0.9869
19950TIP3    H281342   1.061   0.802  14.062 -1.8037 -0.1714 -0.1037
19951TIP3   OH281343   4.399   0.511   2.182 -0.4103 -0.0232  0.1494
19951TIP3    H181344   4.452   0.464   2.246  0.7126 -0.6316 -1.1775
19951TIP3    H281345   4.461   0.543   2.117 -1.2301  2.6520  0.5560
19952TIP3   OH281346   5.844   5.983  11.590 -0.1815  0.2896  0.0755
19952TIP3    H181347   5.871   5.895  11.615 -0.2812  0.2535  0.0549
19952TIP3    H281348   5.921   6.020  11.546 -0.8942 -0.6532 -2.1405
19953TIP3   OH281349   0.818   5.157  12.475  0.1198 -0.5252  0.1052
19953TIP3    H181350   0.779   5.072  12.453  0.4900 -0.5201 -0.5781
19953TIP3    H281351   0.865   5.183  12.397 -1.1713  0.9975 -0.2091
19954TIP3   OH281352   0.557   4.407   4.279  0.0405 -0.1261  0.3950
19954TIP3    H181353   0.562   4.313   4.266 -1.1134 -0.4257  1.8438
19954TIP3    H281354   0.520   4.418   4.367  0.1930  1.6712  0.2850
19955TIP3   OH281355   1.753   4.508  14.845 -0.9419 -0.1706  0.2101
19955TIP3    H181356   1.777   4.525  14.936  2.0809  1.7676 -0.7804
19955TIP3    H281357   1.729   4.415  14.843  2.2888 -1.2161  2.4176
19956TIP3   OH281358   5.585   1.973   6.200  0.0656  0.0110 -0.1068
19956TIP3    H181359   5.674   2.005   6.213  0.8183 -1.2266 -1.8538
19956TIP3    H281360   5.560   1.937   6.285  0.6424  1.6807  0.8094
19957TIP3   OH281361   2.902   0.717   3.316  0.3265  0.5865  0.1139
19957TIP3    H181362   2.823   0.727   3.369  2.6693  2.3465  3.6386
19957TIP3    H281363   2.913   0.802   3.273  0.0090  0.1174 -0.9362
19958TIP3   OH281364   3.036   0.167  14.518 -0.0805  0.0281 -0.0081
19958TIP3    H181365   3.100   0.172  14.589 -0.0474 -0.5738  0.0074
19958TIP3    H281366   2.965   0.112  14.553 -0.7203  0.8670  0.0573
19959TIP3   OH281367   5.512   6.532   4.875 -0.2264 -0.4959  0.3027
19959TIP3    H181368   5.444   6.504   4.936 -1.0893  3.0442  1.1456
19959TIP3    H281369   5.592   6.535   4.929 -0.1836 -0.9410  0.2730
19960TIP3   OH281370   4.309   2.357  13.327  0.1565  0.0158 -0.0330
19960TIP3    H181371   4.353   2.276  13.304 -2.0207 -1.5066  0.7538
19960TIP3    H281372   4.368   2.401  13.387  1.1274 -1.3001  0.0045
19961TIP3   OH281373   6.779   1.260  14.803  0.0692 -0.8846 -0.4520
19961TIP3    H181374   6.758   1.173  14.836  0.9101 -0.4143  1.4373
19961TIP3    H281375   6.874   1.260  14.793  0.0424 -0.2811 -0.7526
19962TIP3   OH281376   4.866   2.525  14.642 -0.5116  0.2352  0.2068
19962TIP3    H181377   4.926   2.570  14.702 -1.4088  0.5952  0.8716
19962TIP3    H281378   4.779   2.552  14.672 -0.9847  0.8566 -1.6064
19963TIP3   OH281379   1.577   0.618  14.221 -0.4333 -0.1801 -0.7614
19963TIP3    H181380   1.652   0.642  14.167 -1.1182 -0.8330 -2.0430
19963TIP3    H281381   1.616   0.575  14.297  0.4923 -0.7200 -1.5174
19964TIP3   OH281382   6.114   6.012   5.815 -0.4007 -0.4184  0.1280
19964TIP3    H181383   6.159   5.934   5.847 -1.0869 -0.7121  0.4090
19964TIP3    H281384   6.183   6.069   5.782  0.0081 -2.1305 -2.3010
19965TIP3   OH281385   0.922   0.551   1.622 -0.0150  0.0938 -0.5672
19965TIP3    H181386   0.957   0.506   1.545 -0.1858  0.4645 -0.8623
19965TIP3    H281387   0.829   0.563   1.603  0.1248  1.0116 -0.7105
19966TIP3   OH281388   3.551   2.128   6.105  0.4469 -0.0719  0.0158
19966TIP3    H181389   3.616   2.194   6.129  0.8220 -0.9257  1.4495
19966TIP3    H281390   3.509   2.105   6.187 -0.9043 -0.3580 -0.7369
19967TIP3   OH281391   6.400   4.123   1.323 -0.4293  0.0093  0.5782
19967TIP3    H181392   6.468   4.057   1.336  0.0311  0.5448  1.0029
19967TIP3    H281393   6.369   4.110   1.234  3.0684  2.2706 -1.2009
19968TIP3   OH281394   1.886   3.827   1.707  0.1693 -0.0950 -0.3237
19968TIP3    H181395   1.913   3.918   1.717 -1.3097  0.5060 -1.3934
19968TIP3    H281396   1.960   3.785   1.664  0.1528  1.0921 -1.6119
19969TIP3   OH281397   3.272   2.965  13.426 -0.5515  0.4986 -0.2704
19969TIP3    H181398   3.271   3.033  13.492 -0.8659  2.1833 -1.9248
19969TIP3    H281399   3.199   2.908  13.450 -0.0883  0.5305  1.3167
19970TIP3   OH281400   1.755   5.185   0.546  0.0163  0.0850  0.6270
19970TIP3    H181401   1.665   5.187   0.580  0.0473  2.4187  0.7216
19970TIP3    H281402   1.807   5.227   0.613  0.8779  0.3794 -0.2025
19971TIP3   OH281403   0.231   5.131  14.688  0.0857  0.1607  0.3129
19971TIP3    H181404   0.190   5.212  14.658 -0.8815 -0.6598 -0.6742
19971TIP3    H281405   0.157   5.076  14.716  0.7418 -0.2987  1.1937
19972TIP3   OH281406   1.716   5.962   1.201  0.2223 -0.2197  0.0794
19972TIP3    H181407   1.765   5.954   1.283 -0.3583  2.3031  0.7442
19972TIP3    H281408   1.718   5.873   1.164  2.7962 -0.8408  1.4499
19973TIP3   OH281409   3.994   5.392   3.318 -0.2357  0.0728  0.2003
19973TIP3    H181410   3.910   5.424   3.285 -0.1853 -0.4486 -0.4507
19973TIP3    H281411   3.978   5.373   3.411 -1.2964 -1.5549 -0.2781
19974TIP3   OH281412   3.011   5.077  12.602 -0.0099  0.6216 -0.5775
19974TIP3    H181413   2.931   5.129  12.599 -1.1080 -1.0193 -1.2685
19974TIP3    H281414   3.063   5.115  12.672 -0.6826  2.7240 -1.1730
19975TIP3   OH281415   4.054   6.516  11.034  0.2016  0.4221  0.4107
19975TIP3    H181416   3.991   6.583  11.006  0.4845  1.8456  2.8297
19975TIP3    H281417   4.113   6.563  11.093  2.3682 -1.3180 -0.2551
19976TIP3   OH281418   5.731   3.170   1.431 -0.6269 -0.0207 -0.8483
19976TIP3    H181419   5.793   3.216   1.489  1.6076 -2.8521 -0.7603
19976TIP3    H281420   5.664   3.136   1.491 -0.7736  0.7359 -0.5644
19977TIP3   OH281421   3.229   6.568  13.721 -0.1190 -0.0047 -0.3852
19977TIP3    H181422   3.137   6.552  13.700 -0.2136  0.9815 -0.7843
19977TIP3    H281423   3.246   6.513  13.798 -1.6705  1.3819  1.0381
19978TIP3   OH281424   1.910   6.299  14.791 -0.1790  0.3047  0.1114
19978TIP3    H181425   1.847   6.228  14.777  0.6625 -0.2007 -1.4398
19978TIP3    H281426   1.871   6.354  14.858 -1.2233 -1.2016  0.7826
19979TIP3   OH281427   4.461   1.891   0.463 -0.3246  0.0856 -0.1449
19979TIP3    H181428   4.555   1.872   0.463 -0.1705  0.7636  1.0425
19979TIP3    H281429   4.420   1.804   0.459  0.3736 -0.3842  1.6458
19980TIP3   OH281430   2.554   3.951   0.895 -0.4866 -0.4632  0.1947
19980TIP3    H181431   2.491   3.975   0.964 -1.1187 -0.1047 -0.4965
19980TIP3    H281432   2.630   4.006   0.913 -0.8226 -0.0324  0.3350
19981TIP3   OH281433   0.993   3.771   3.119  0.1818  0.7797  0.3668
19981TIP3    H181434   1.082   3.751   3.090  0.0544  0.1412  0.4045
19981TIP3    H281435   1.004   3.843   3.181  0.5922  1.2194 -0.2003
19982TIP3   OH281436   0.066   3.866   2.945 -0.0635 -0.0696  0.3650
19982TIP3    H181437   0.158   3.857   2.967 -0.2377 -0.5889  0.8906
19982TIP3    H281438   0.020   3.866   3.029 -0.7895 -2.6578  0.0419
19983TIP3   OH281439   3.894   3.780  15.774  0.1106 -0.1627 -0.7810
19983TIP3    H181440   3.903   3.843  15.846 -1.1329  1.7388 -2.1963
19983TIP3    H281441   3.848   3.706  15.813 -0.8062  0.9446  0.3423
19984TIP3   OH281442   0.183   5.810   2.421 -0.2321 -0.1530 -1.0775
19984TIP3    H181443   0.199   5.892   2.373 -1.1363 -1.2779 -3.4321
19984TIP3    H281444   0.192   5.835   2.513  1.3022  2.1997 -1.7483
19985TIP3   OH281445   5.075   6.787  15.755  0.6780 -0.3929 -0.1024
19985TIP3    H181446   5.102   6.841  15.681  1.2484 -0.0801  0.3219
19985TIP3    H281447   4.980   6.792  15.755  0.6565  3.6080  2.0330
19986TIP3   OH281448   4.351   0.118  15.965 -0.3769 -0.6355 -0.7664
19986TIP3    H181449   4.339   0.053  15.896 -0.1883  0.0977 -1.4951
19986TIP3    H281450   4.426   0.085  16.015  0.6118 -0.2991 -1.9627
19987TIP3   OH281451   6.286   5.414  16.384 -0.1212 -0.3229  0.5982
19987TIP3    H181452   6.238   5.366  16.316 -0.8210  0.0329  0.8350
19987TIP3    H281453   6.378   5.401  16.361 -0.3369 -0.5272 -0.1984
19988TIP3   OH281454   4.440   3.387   0.465  0.0690 -0.2122 -0.5423
19988TIP3    H181455   4.482   3.306   0.437  0.5463  0.1846 -0.9925
19988TIP3    H281456   4.346   3.371   0.451  0.2230 -0.3588 -1.5029
19989TIP3   OH281457   2.600   1.431  16.911 -0.3516  0.4744 -0.5166
19989TIP3    H181458   2.559   1.367  16.853 -1.2833  0.8182 -0.2584
19989TIP3    H281459   2.611   1.385  16.994  1.0616 -0.0457 -0.9550
19990TIP3   OH281460   0.446   6.628  15.907  0.0461  0.4303 -0.3166
19990TIP3    H181461   0.358   6.615  15.944  0.7358  1.9461  2.0568
19990TIP3    H281462   0.502   6.569  15.956  0.9882  2.4712  1.1822
19991TIP3   OH281463   4.299   0.371   4.828 -0.2955  1.1910  0.5612
19991TIP3    H181464   4.256   0.409   4.751 -1.0552  0.2295  0.4943
19991TIP3    H281465   4.374   0.323   4.794 -0.2486  1.3107  0.4945
19992TIP3   OH281466   4.154   1.494   5.008 -0.4990 -0.7673 -0.4818
19992TIP3    H181467   4.083   1.551   5.041  0.9672  2.6212 -2.6122
19992TIP3    H281468   4.144   1.498   4.913  2.5010 -0.1205 -0.8461
19993TIP3   OH281469   6.126   0.487   3.469 -0.3614  0.4232 -0.7971
19993TIP3    H181470   6.093   0.536   3.393  1.1629  0.3699 -1.5290
19993TIP3    H281471   6.106   0.396   3.449  1.4973  0.2159 -1.9874
19994TIP3   OH281472   0.470   1.810  13.788  0.0355  0.1747 -0.5386
19994TIP3    H181473   0.405   1.801  13.719  0.6046  0.1440 -1.0859
19994TIP3    H281474   0.554   1.811  13.741  0.4600 -0.3442  0.1925
19995TIP3   OH281475   2.597   0.791   0.475  0.3459 -0.0471 -0.1066
19995TIP3    H181476   2.511   0.826   0.498  0.8531  0.3854  1.1834
19995TIP3    H281477   2.660   0.847   0.521  1.3368 -0.3490 -1.0300
19996TIP3   OH281478   4.217   2.126   1.679  0.2866  0.1883 -0.0910
19996TIP3    H181479   4.275   2.134   1.755 -0.8094  1.4897  0.6493
19996TIP3    H281480   4.197   2.216   1.654 -2.3602 -0.1528  0.4439
19997TIP3   OH281481   0.068   0.663   3.305  0.2092 -0.3552  0.6019
19997TIP3    H181482   0.003   0.624   3.247 -0.7562 -1.3218  2.2584
19997TIP3    H281483   0.086   0.749   3.267  0.7936 -1.4960 -1.9639
19998TIP3   OH281484   5.452   1.134   0.347  0.7077  0.0611  0.5440
19998TIP3    H181485   5.459   1.047   0.307 -0.6994 -0.8664  2.1563
19998TIP3    H281486   5.452   1.195   0.273 -0.1203 -1.4402 -0.7633
19999TIP3   OH281487   4.656   6.220   6.699  0.5040 -0.0295 -0.1276
19999TIP3    H181488   4.726   6.178   6.649  0.9064 -2.0825  1.9957
19999TIP3    H281489   4.615   6.149   6.748 -1.9504  1.3945  0.0441
20000TIP3   OH281490   1.281   2.574  12.688 -0.6370 -0.4578  0.0585
20000TIP3    H181491   1.267   2.612  12.601 -0.7594  0.7097  0.5733
20000TIP3    H281492   1.345   2.504  12.673 -0.0168  0.2684 -0.8432
20001TIP3   OH281493   1.871   1.890  14.213  0.1928  0.0691  0.0386
20001TIP3    H181494   1.802   1.912  14.150 -1.1521 -0.0447  1.4302
20001TIP3    H281495   1.935   1.961  14.204 -0.7592  0.8996 -0.3450
20002TIP3   OH281496   1.546   1.973  15.005  0.4767  0.0812 -0.6136
20002TIP3    H181497   1.609   1.901  15.005  2.3608  1.6240 -0.5438
20002TIP3    H281498   1.527   1.989  14.912 -2.1781 -2.2330 -0.5808
20003TIP3   OH281499   0.936   2.912   1.845 -0.5891  0.8341  0.6256
20003TIP3    H181500   0.969   2.829   1.810 -0.3442  0.7582  1.0346
20003TIP3    H281501   0.993   2.978   1.806 -0.8666  0.8224  0.1966
20004TIP3   OH281502   1.478   4.246   4.410  0.2123 -0.3124 -0.4745
20004TIP3    H181503   1.468   4.200   4.326  1.4589 -0.3708 -0.6070
20004TIP3    H281504   1.551   4.306   4.396  0.0138  0.1454  0.3821
20005TIP3   OH281505   3.451   2.441  14.125  0.0402 -0.1570  0.1869
20005TIP3    H181506   3.409   2.452  14.211  0.2619 -1.0557  0.4235
20005TIP3    H281507   3.542   2.419  14.146 -0.3249 -2.2152 -0.2155
20006TIP3   OH281508   3.697   5.824   0.003 -0.5634  0.3725 -0.3228
20006TIP3    H181509   3.723   5.793  -0.084  2.4597  0.3908  0.4372
20006TIP3    H281510   3.610   5.788   0.017  0.0963 -2.2401 -2.1477
20007TIP3   OH281511   4.325   6.403   0.147 -0.1538  0.2644  0.2765
20007TIP3    H181512   4.323   6.421   0.053 -0.6534  0.8122  0.3847
20007TIP3    H281513   4.414   6.375   0.164  0.0065  0.3872 -0.3231
20008TIP3   OH281514   2.050   0.106  14.281 -0.2623  0.1248  0.1234
20008TIP3    H181515   1.969   0.121  14.232  0.0936 -1.5734 -1.0834
20008TIP3    H281516   2.091   0.032  14.237  2.1957  1.2128  0.4526
20009TIP3   OH281517   5.034   0.641  17.095  0.0099  0.5999  0.3219
20009TIP3    H181518   4.993   0.633  17.009 -2.0282  1.1938  1.1759
20009TIP3    H281519   4.993   0.718  17.134 -0.0464 -0.3594  2.2900
20010TIP3   OH281520   5.662   6.282   5.377  0.0264  0.0053 -0.1117
20010TIP3    H181521   5.755   6.304   5.370  0.0018  0.5706  1.0796
20010TIP3    H281522   5.657   6.225   5.455 -0.8691  1.6187  1.0647
20011TIP3   OH281523   5.231   1.765  13.886 -0.4816  0.3283  0.1879
20011TIP3    H181524   5.238   1.837  13.949  1.3426  1.2603 -1.0138
20011TIP3    H281525   5.276   1.692  13.928 -1.3786  0.2061  0.9553
20012TIP3   OH281526   6.215   6.440   3.952  0.6432 -0.2515  0.1346
20012TIP3    H181527   6.222   6.505   4.022  0.6147 -0.1360  0.0291
20012TIP3    H281528   6.291   6.455   3.897  0.1262  0.3328 -0.4356
20013TIP3   OH281529   6.046   0.038  12.496  0.4763 -0.0574 -0.9769
20013TIP3    H181530   6.072   0.100  12.565 -0.0541 -0.3916 -0.4657
20013TIP3    H281531   6.081   0.075  12.416  1.9244 -0.1410 -0.4043
20014TIP3   OH281532   5.491   2.589   5.442 -0.2034  0.9573  0.9624
20014TIP3    H181533   5.543   2.589   5.363 -1.7732  2.0552 -0.1405
20014TIP3    H281534   5.552   2.568   5.512  1.3625  0.6754 -0.4477
20015TIP3   OH281535   3.371   1.860   4.468  0.2397  0.1278 -1.0066
20015TIP3    H181536   3.349   1.806   4.544  2.0780  0.0553 -0.4798
20015TIP3    H281537   3.380   1.949   4.504  1.1253  0.0911 -1.1016
20016TIP3   OH281538   0.146   6.336  13.246  0.0981  0.3832  0.5130
20016TIP3    H181539   0.206   6.301  13.181 -1.4367 -1.1332 -0.1633
20016TIP3    H281540   0.080   6.384  13.196  0.7824  2.1830  1.2545
20017TIP3   OH281541   3.412   1.104  10.522 -0.3445 -0.0358 -0.0481
20017TIP3    H181542   3.393   1.025  10.472 -1.8559 -0.0078  0.4545
20017TIP3    H281543   3.433   1.072  10.610 -0.3813  0.0918  0.0066
20018TIP3   OH281544   5.735   2.259   3.332  0.2491  0.2543 -0.6638
20018TIP3    H181545   5.732   2.163   3.341 -1.5948  0.4282  1.9102
20018TIP3    H281546   5.667   2.279   3.268  0.0707 -0.1340 -0.6031
20019TIP3   OH281547   6.489   6.636   0.080  0.4518 -0.2693 -0.7698
20019TIP3    H181548   6.556   6.613   0.145  0.1170 -0.7160 -0.5774
20019TIP3    H281549   6.509   6.727   0.057 -0.9384  0.8378  1.8846
20020TIP3   OH281550   0.219   0.343   4.105 -0.2869  0.3646 -0.5814
20020TIP3    H181551   0.251   0.384   4.025 -0.3752 -0.4822 -1.0638
20020TIP3    H281552   0.136   0.303   4.080  0.8831 -2.1485 -0.8017
20021TIP3   OH281553   6.013   2.165  13.590  0.2341  0.3008  0.5921
20021TIP3    H181554   6.061   2.089  13.556  1.5353  0.5543  1.7572
20021TIP3    H281555   5.942   2.179  13.527  0.5697 -1.2468 -0.1914
20022TIP3   OH281556   6.651   2.947   3.149  0.3271  0.5726  0.9148
20022TIP3    H181557   6.725   3.000   3.179 -1.0521  2.6899  0.8126
20022TIP3    H281558   6.633   2.980   3.060 -0.5609 -0.0821  0.8399
20023TIP3   OH281559   0.185   3.091   5.893  0.6268 -0.1443 -0.6968
20023TIP3    H181560   0.097   3.126   5.877 -0.0572 -0.4698  1.8394
20023TIP3    H281561   0.186   3.006   5.849 -1.2216 -1.1878  1.1127
20024TIP3   OH281562   3.260   1.162  13.151 -0.1314 -0.0392 -0.6598
20024TIP3    H181563   3.224   1.213  13.224 -0.5810  0.9082 -1.5211
20024TIP3    H281564   3.351   1.145  13.176  0.2271  1.7550 -0.6261
20025TIP3   OH281565   1.076   1.988  12.888  0.3304 -0.3251  0.1780
20025TIP3    H181566   1.000   1.992  12.831 -1.0034 -0.0300  1.8877
20025TIP3    H281567   1.144   2.037  12.842 -0.5574 -0.4212 -1.2925
20026TIP3   OH281568   1.629   2.041  14.292  0.2559 -0.0269 -0.1833
20026TIP3    H181569   1.719   2.008  14.300  1.2861  2.2287 -1.5530
20026TIP3    H281570   1.637   2.120  14.238 -2.4555  0.6947  0.3298
20027TIP3   OH281571   5.328   3.437   1.967 -0.4515 -0.3261 -0.2990
20027TIP3    H181572   5.355   3.398   1.884  1.1105  0.0875 -0.0233
20027TIP3    H281573   5.303   3.527   1.945 -0.4375 -0.3445 -0.3912
20028TIP3   OH281574   5.258   1.815  12.216 -0.2476 -0.3131  0.1182
20028TIP3    H181575   5.234   1.781  12.302  0.3513  0.2463  0.5172
20028TIP3    H281576   5.227   1.749  12.154 -2.5101  0.1895  0.6097
20029TIP3   OH281577   3.819   3.999  16.523  0.5531 -0.1628 -0.2720
20029TIP3    H181578   3.856   4.052  16.452  3.4868 -0.4865  0.8487
20029TIP3    H281579   3.867   3.916  16.519 -1.3541 -1.3644  0.2719
20030TIP3   OH281580   0.340   3.360   3.722  0.5988 -0.5259 -0.7167
20030TIP3    H181581   0.351   3.272   3.758  0.1435 -0.7082 -1.0204
20030TIP3    H281582   0.340   3.417   3.799  0.7245 -0.8032 -0.5068
20031TIP3   OH281583   1.715   2.916  14.908  0.7772  0.0058  0.9190
20031TIP3    H181584   1.641   2.943  14.962  0.8103 -1.6717  1.8572
20031TIP3    H281585   1.791   2.957  14.950  0.7172 -0.7042  1.7439
20032TIP3   OH281586   3.833   1.650  12.893  0.1715 -0.4259  0.0860
20032TIP3    H181587   3.738   1.638  12.892 -0.1603  1.8427  0.4379
20032TIP3    H281588   3.846   1.743  12.875  2.1859 -0.1050  2.6369
20033TIP3   OH281589   5.243   6.337  15.274 -0.4889  0.0871  0.2708
20033TIP3    H181590   5.174   6.293  15.225 -0.5628  1.2016 -0.6687
20033TIP3    H281591   5.202   6.419  15.304  0.3472  0.6375 -0.0738
20034TIP3   OH281592   1.260   5.273  16.954 -0.8604  0.3364 -0.1427
20034TIP3    H181593   1.206   5.306  17.026 -0.0316  0.4010  0.4587
20034TIP3    H281594   1.348   5.264  16.992  0.2059  2.7884 -1.7915
20035TIP3   OH281595   6.654   2.104   2.609  0.3322 -0.2149  0.7054
20035TIP3    H181596   6.590   2.069   2.548 -0.7790  0.3802  1.4770
20035TIP3    H281597   6.667   2.195   2.581  3.4487 -1.1987 -1.4903
20036TIP3   OH281598   1.725   4.037   0.155  0.1960  0.0100  0.0017
20036TIP3    H181599   1.731   3.954   0.201  3.4013  0.6571  0.9912
20036TIP3    H281600   1.665   4.090   0.209 -0.3162 -0.9721  0.4208
20037TIP3   OH281601   5.186   0.551   1.067 -0.1355 -0.4402  0.0719
20037TIP3    H181602   5.226   0.479   1.020  1.5290  0.5309 -0.0728
20037TIP3    H281603   5.204   0.628   1.014 -1.3477  0.1887  0.5255
20038TIP3   OH281604   3.504   1.744  15.891 -0.0678 -0.4046 -0.3434
20038TIP3    H181605   3.585   1.758  15.940  0.0052  0.3067 -0.6596
20038TIP3    H281606   3.510   1.653  15.861  0.2827 -0.5784  0.2317
20039TIP3   OH281607   6.699   2.117  15.910 -0.2517 -0.1831 -0.2636
20039TIP3    H181608   6.780   2.072  15.934 -0.8907 -1.0316  0.3500
20039TIP3    H281609   6.701   2.199  15.960  0.7006  0.2998 -1.0436
20040TIP3   OH281610   0.433   6.675   3.319 -0.1221 -0.1228  0.2421
20040TIP3    H181611   0.453   6.648   3.229 -0.6107 -1.4089  0.5048
20040TIP3    H281612   0.509   6.727   3.346  1.0906 -1.6467 -0.1304
20041TIP3   OH281613   3.186   2.312   2.922  0.1850 -0.2422 -0.5390
20041TIP3    H181614   3.192   2.216   2.922  1.7772 -0.1642  0.4579
20041TIP3    H281615   3.275   2.342   2.936 -0.6491  1.3293  2.1716
20042TIP3   OH281616   5.684   0.174  11.575 -0.2250 -0.6888  0.3681
20042TIP3    H181617   5.652   0.220  11.653  0.0256 -0.8078  0.5444
20042TIP3    H281618   5.773   0.207  11.563 -0.5388 -0.0797 -0.3405
20043TIP3   OH281619   4.618   1.159   2.705 -0.0154 -0.4037  0.2005
20043TIP3    H181620   4.658   1.233   2.660 -0.1191  0.2042  1.0714
20043TIP3    H281621   4.681   1.134   2.773 -0.0352 -1.0431 -0.0038
20044TIP3   OH281622   3.230   6.219   3.764 -0.3012  0.2277  0.1971
20044TIP3    H181623   3.249   6.159   3.692 -0.0023 -1.8919  1.9670
20044TIP3    H281624   3.315   6.255   3.789 -0.0418 -0.9138  1.0349
20045TIP3   OH281625   1.979   6.222   4.377  0.4916  0.0959 -0.2912
20045TIP3    H181626   2.057   6.179   4.411 -0.7239 -0.6452  1.7363
20045TIP3    H281627   1.928   6.151   4.337 -0.4697 -0.0011  1.0344
20046TIP3   OH281628   6.518   3.198   0.946 -0.2487  0.0669 -0.2259
20046TIP3    H181629   6.512   3.293   0.954 -0.1364  0.0797 -0.2987
20046TIP3    H281630   6.566   3.183   0.865  0.4095 -0.0405  0.1768
20047TIP3   OH281631   4.463   0.231   1.769  0.1304 -0.3536 -0.4891
20047TIP3    H181632   4.495   0.321   1.770  1.0083 -0.6529 -0.3902
20047TIP3    H281633   4.485   0.200   1.681 -0.0822 -0.4969 -0.4905
20048TIP3   OH281634   3.377   6.659  15.089 -0.2046 -0.2430  0.6622
20048TIP3    H181635   3.392   6.730  15.151  0.0526  0.5750 -0.3266
20048TIP3    H281636   3.457   6.607  15.091 -0.2473 -0.2943  1.1007
20049TIP3   OH281637   5.060   0.302  15.443 -0.3772 -0.1605  0.2071
20049TIP3    H181638   5.074   0.235  15.375 -1.0268 -0.3757  0.2782
20049TIP3    H281639   4.969   0.328  15.433  0.2910  1.9486 -0.9018
20050TIP3   OH281640   3.397   3.970  11.262  0.3465 -0.1344 -0.0552
20050TIP3    H181641   3.453   3.975  11.340  0.8267 -0.0962 -0.3926
20050TIP3    H281642   3.341   4.047  11.268  2.7096  1.8596 -1.4671
20051TIP3   OH281643   0.713   0.472   4.349  0.0517 -0.2771  0.6363
20051TIP3    H181644   0.653   0.524   4.404  0.5269 -1.1353  2.0305
20051TIP3    H281645   0.800   0.501   4.376  0.2857  0.1790 -0.5894
20052TIP3   OH281646   6.544   1.417   2.088  0.1169 -0.2598  0.0947
20052TIP3    H181647   6.512   1.489   2.034 -1.2812 -0.2492  0.8863
20052TIP3    H281648   6.479   1.348   2.077  1.4518 -1.4323 -0.6563
20053TIP3   OH281649   3.888   5.812   0.202 -0.0734  0.2027 -0.1417
20053TIP3    H181650   3.856   5.810   0.293  0.8480  0.9883  0.2202
20053TIP3    H281651   3.809   5.808   0.149 -0.6948  0.7961  0.7075
20054TIP3   OH281652   6.448   0.635  14.994  0.0008 -0.3707 -0.2116
20054TIP3    H181653   6.380   0.598  15.050 -0.1331 -0.0397 -0.1547
20054TIP3    H281654   6.474   0.562  14.937  1.1026 -1.1185  1.1848
20055TIP3   OH281655   6.204   6.338   0.414  0.4016 -0.2010  0.6339
20055TIP3    H181656   6.147   6.387   0.355  0.3977 -0.5350  0.3531
20055TIP3    H281657   6.263   6.403   0.451  2.3789 -0.3635 -1.9703
20056TIP3   OH281658   2.485   1.958   0.356 -0.0092  0.1376  0.3795
20056TIP3    H181659   2.460   2.050   0.344  0.0669  0.0309 -0.7916
20056TIP3    H281660   2.480   1.921   0.268 -0.8053 -1.1848  0.9503
20057TIP3   OH281661   5.715   6.370  12.456 -0.1404  0.0910  0.4808
20057TIP3    H181662   5.776   6.414  12.516  1.4180 -1.8344  0.4206
20057TIP3    H281663   5.676   6.301  12.509  0.5017 -0.9919 -0.4011
20058TIP3   OH281664   2.523   6.029  11.994 -0.1220  0.4316  0.5294
20058TIP3    H181665   2.555   6.113  12.027  2.2507 -0.9729  2.1036
20058TIP3    H281666   2.454   6.004  12.056 -1.2477  1.4177 -0.2785
20059TIP3   OH281667   0.389   0.492  13.977 -0.8033 -0.0301  0.2355
20059TIP3    H181668   0.341   0.564  13.937  1.0098  0.8089 -0.5718
20059TIP3    H281669   0.451   0.464  13.909 -0.4078 -1.3076  1.0753
20060TIP3   OH281670   3.507   1.909  16.305  0.2678 -0.5436  0.2410
20060TIP3    H181671   3.532   2.000  16.322 -0.7671 -0.0922 -0.4960
20060TIP3    H281672   3.590   1.865  16.287  0.9161 -0.0516  1.8439
20061TIP3   OH281673   5.135   0.081   6.630 -0.4148 -0.1741 -0.5330
20061TIP3    H181674   5.100   0.120   6.710  1.4655  0.7611 -0.1102
20061TIP3    H281675   5.100   0.134   6.559 -0.8895 -0.0763 -0.2280
20062TIP3   OH281676   3.949   2.417   4.188  0.2995 -0.1296  0.0320
20062TIP3    H181677   3.886   2.443   4.256  0.4825 -0.8174  0.4706
20062TIP3    H281678   3.939   2.322   4.181  0.7588 -0.1480 -0.4339
20063TIP3   OH281679   4.269   5.484   3.002 -0.1430 -0.4712 -0.3435
20063TIP3    H181680   4.281   5.401   2.956 -1.2025 -0.6604 -0.3124
20063TIP3    H281681   4.176   5.485   3.025 -0.2947  1.0266 -0.9256
20064TIP3   OH281682   3.933   5.521  12.268 -0.0557 -0.3171 -0.3355
20064TIP3    H181683   4.023   5.544  12.244 -0.2090  0.1359 -0.4824
20064TIP3    H281684   3.926   5.542  12.360  0.4861 -1.9107  0.1101
20065TIP3   OH281685   4.823   2.121   6.276  0.4699 -0.3601  0.3087
20065TIP3    H181686   4.869   2.060   6.219 -1.0387 -0.1887 -1.1581
20065TIP3    H281687   4.888   2.188   6.297  1.2808 -0.8564 -0.5678
20066TIP3   OH281688   6.585   6.796   2.937  0.2947 -0.5061  0.3228
20066TIP3    H181689   6.653   6.846   2.892 -1.3180  0.9787 -0.6040
20066TIP3    H281690   6.576   6.840   3.022 -1.7759  1.5546 -0.8455
20067TIP3   OH281691   3.078   1.667   3.689  0.6446 -0.2987 -0.2163
20067TIP3    H181692   3.011   1.705   3.633  1.0556  0.9931  0.1263
20067TIP3    H281693   3.057   1.700   3.777  0.8532 -1.1047  0.1456
20068TIP3   OH281694   1.613   5.160  15.716 -0.4805 -1.1193 -0.5669
20068TIP3    H181695   1.539   5.176  15.657 -0.2194 -0.6629 -0.7831
20068TIP3    H281696   1.651   5.078  15.686  0.9160  0.1083 -2.4169
20069TIP3   OH281697   2.400   0.116  12.387 -0.2668  0.4775  0.3802
20069TIP3    H181698   2.349   0.086  12.462 -1.2399  2.0376  0.3854
20069TIP3    H281699   2.337   0.119  12.315 -0.3756  2.8865  0.4881
20070TIP3   OH281700   2.817   5.173  14.752 -0.2986  0.4315 -0.1619
20070TIP3    H181701   2.745   5.136  14.804 -1.0751 -0.0295 -1.5300
20070TIP3    H281702   2.776   5.204  14.672  0.8183  1.5645 -0.3276
20071TIP3   OH281703   6.776   5.631   1.126 -0.5067 -0.7254  0.1685
20071TIP3    H181704   6.857   5.648   1.078 -0.9598 -2.0196 -1.1456
20071TIP3    H281705   6.714   5.696   1.093 -0.4819 -0.8533 -0.1352
20072TIP3   OH281706   1.730   4.945   1.014 -0.5576  0.0504 -0.6069
20072TIP3    H181707   1.673   5.021   1.010 -0.8380  0.1640  3.0389
20072TIP3    H281708   1.786   4.960   1.090  1.7059 -1.8860 -1.7468
20073TIP3   OH281709   2.279   3.558   0.188 -0.4950  0.1450  0.0405
20073TIP3    H181710   2.331   3.530   0.264  1.7224  1.5861 -0.8231
20073TIP3    H281711   2.262   3.478   0.139  0.9499 -0.4009  0.3700
20074TIP3   OH281712   2.463   5.657   0.080  0.7180 -0.0905 -0.0204
20074TIP3    H181713   2.496   5.568   0.091 -2.9431 -1.4791  1.0695
20074TIP3    H281714   2.453   5.690   0.170 -2.2181 -0.3931 -0.1654
20075TIP3   OH281715   5.569   2.057   5.937 -0.3300  0.0392 -0.7934
20075TIP3    H181716   5.482   2.022   5.921 -0.8267  0.8607  0.0108
20075TIP3    H281717   5.578   2.056   6.033  0.5322 -0.0343 -0.8692
20076TIP3   OH281718   2.286   6.098   2.341  0.4980  0.2782  0.6676
20076TIP3    H181719   2.275   6.157   2.267 -2.4902 -0.1992  0.6319
20076TIP3    H281720   2.290   6.011   2.301 -0.7751  0.0475  1.0168
20077TIP3   OH281721   3.131   1.145  15.396  0.7291  0.1314  0.2336
20077TIP3    H181722   3.129   1.049  15.398 -1.1935  0.1495  1.1455
20077TIP3    H281723   3.056   1.170  15.342  0.8206  1.1252  0.5395
20078TIP3   OH281724   0.590   5.959  15.324  0.4389  0.3593 -0.6791
20078TIP3    H181725   0.579   6.013  15.403 -0.5173  0.7600 -1.0730
20078TIP3    H281726   0.681   5.973  15.298  0.9180 -0.1449  0.6078
20079TIP3   OH281727   0.755   5.161   2.931 -0.2878  0.3072  0.7391
20079TIP3    H181728   0.673   5.114   2.914 -0.9122  1.3223  0.8246
20079TIP3    H281729   0.823   5.095   2.922 -0.8741 -0.0549 -1.9942
20080TIP3   OH281730   4.412   3.926  12.392 -0.0455  0.7880 -0.3127
20080TIP3    H181731   4.401   3.844  12.439 -1.2047  1.1822  0.1255
20080TIP3    H281732   4.337   3.979  12.417  0.6838  1.9940 -0.5870
20081TIP3   OH281733   6.788   0.434  16.017  0.0663 -0.2255  0.2784
20081TIP3    H181734   6.764   0.526  16.031  1.0875  0.3072 -1.1252
20081TIP3    H281735   6.712   0.396  15.973 -0.6887 -0.2890  1.6076
20082TIP3   OH281736   5.430   6.276  15.579 -0.4210 -0.7825  0.2299
20082TIP3    H181737   5.407   6.239  15.494  1.2370  1.1122 -1.1568
20082TIP3    H281738   5.349   6.319  15.609 -1.0432 -1.5422 -0.3181
20083TIP3   OH281739   1.051   6.817   0.871  0.2818 -0.5937  0.1357
20083TIP3    H181740   1.010   6.821   0.784 -1.0376 -1.2892  0.7046
20083TIP3    H281741   1.114   6.889   0.870  0.2996 -0.5917 -1.4022
20084TIP3   OH281742   6.020   6.370   1.182  0.0407  0.3300 -0.5368
20084TIP3    H181743   6.040   6.441   1.121 -0.6320 -0.0994 -1.2872
20084TIP3    H281744   6.007   6.413   1.266  1.0262  0.9328 -0.6737
20085TIP3   OH281745   6.384   4.334   0.341  0.1128  0.7568 -0.1315
20085TIP3    H181746   6.311   4.311   0.398 -1.8142  0.5425 -2.4819
20085TIP3    H281747   6.395   4.428   0.353 -1.2359  0.9728 -0.4145
20086TIP3   OH281748   2.586   0.510  14.071 -0.2457 -0.6302  0.2209
20086TIP3    H181749   2.625   0.520  14.157  0.1178 -1.1985  0.1267
20086TIP3    H281750   2.495   0.485  14.088  0.4572 -3.2545  0.4784
20087TIP3   OH281751   5.515   1.828   3.876 -0.2140 -0.0455 -0.4175
20087TIP3    H181752   5.447   1.781   3.828 -0.3064 -0.0939 -0.2375
20087TIP3    H281753   5.561   1.878   3.808  0.1930 -0.7650 -0.6900
20088TIP3   OH281754   3.692   6.322   4.073  0.1941 -0.1355 -0.7116
20088TIP3    H181755   3.787   6.334   4.074  0.4162 -1.7771 -0.3234
20088TIP3    H281756   3.661   6.369   4.150  0.8277 -0.5640 -0.1882
20089TIP3   OH281757   2.609   0.440   1.032 -0.0616  0.3895  0.3594
20089TIP3    H181758   2.641   0.376   0.968 -0.8149  0.6084 -0.2495
20089TIP3    H281759   2.600   0.390   1.113 -2.3816 -0.7825 -0.5307
20090TIP3   OH281760   2.434   3.804   0.678 -0.2018  0.4314 -0.5347
20090TIP3    H181761   2.455   3.853   0.757 -1.1766  0.5658 -0.3452
20090TIP3    H281762   2.464   3.715   0.696  0.6911  0.7264 -0.5050
20091TIP3   OH281763   0.807   5.611  12.478 -0.3318  0.1076 -0.2627
20091TIP3    H181764   0.812   5.583  12.387 -0.4224  0.2232 -0.3025
20091TIP3    H281765   0.898   5.612  12.508 -0.1899  1.1996 -0.6924
20092TIP3   OH281766   1.821   6.060  12.720  0.0290  0.1355 -0.1872
20092TIP3    H181767   1.844   6.152  12.735  0.8219 -0.2951  1.4315
20092TIP3    H281768   1.788   6.058  12.630  1.3663  1.7589 -0.7626
20093TIP3   OH281769   6.474   2.029  13.959 -0.2099  0.2635 -0.9154
20093TIP3    H181770   6.549   2.072  14.001 -0.5503 -0.4549  0.4966
20093TIP3    H281771   6.484   2.049  13.866  0.9086  1.4300 -0.5784
20094TIP3   OH281772   3.522   6.590  11.923 -0.0844 -0.1946 -0.2185
20094TIP3    H181773   3.474   6.538  11.858  0.5217  0.4206 -1.1725
20094TIP3    H281774   3.578   6.647  11.872  1.0714 -0.3135  0.8712
20095TIP3   OH281775   3.217   5.333   1.119 -0.1137 -0.3921 -0.7286
20095TIP3    H181776   3.310   5.338   1.138  0.0191 -3.1037 -0.3712
20095TIP3    H281777   3.174   5.368   1.197  0.5661  1.1359 -1.0090
20096TIP3   OH281778   5.415   4.315   5.250  0.2717  0.4488  0.2267
20096TIP3    H181779   5.447   4.231   5.283 -0.0419  0.6868  1.1883
20096TIP3    H281780   5.491   4.357   5.211  0.6963  0.2003  0.7736
20097TIP3   OH281781   6.162   3.000  16.689 -0.4799  0.0090  0.0738
20097TIP3    H181782   6.149   2.936  16.760  0.6154 -0.8034 -0.4302
20097TIP3    H281783   6.150   3.085  16.731 -1.1816 -0.4960  0.9336
20098TIP3   OH281784   5.689   3.517   4.544  0.2479 -0.4623 -0.1274
20098TIP3    H181785   5.746   3.558   4.479  0.2426 -1.1631 -0.5778
20098TIP3    H281786   5.602   3.519   4.505 -0.3327  1.8185  1.1049
20099TIP3   OH281787   2.758   0.828  16.051  0.5782  0.5804 -0.1273
20099TIP3    H181788   2.853   0.837  16.053  1.0892 -1.9947 -3.4701
20099TIP3    H281789   2.742   0.738  16.081 -0.8741  1.0672  0.6716
20100TIP3   OH281790   3.006   5.239  16.563 -0.8235  0.1616  0.4304
20100TIP3    H181791   3.043   5.260  16.648  0.6853 -0.1072 -0.1202
20100TIP3    H281792   3.082   5.237  16.504 -1.8212  0.2842 -0.9002
20101TIP3   OH281793   1.491   2.073  16.815 -0.5543  0.2238  0.5175
20101TIP3    H181794   1.572   2.027  16.794 -0.4140 -0.2845  2.0245
20101TIP3    H281795   1.422   2.023  16.770 -0.5297 -2.1574  2.8507
20102TIP3   OH281796   0.401   2.398   3.678  0.0155  0.1308 -0.1485
20102TIP3    H181797   0.383   2.463   3.746 -0.9152 -0.2430 -0.0109
20102TIP3    H281798   0.316   2.385   3.635  0.2328 -0.8225 -0.3170
20103TIP3   OH281799   5.070   4.961  16.914  0.2206  0.8399 -0.1428
20103TIP3    H181800   5.149   5.008  16.942 -0.7015  0.7007  3.1607
20103TIP3    H281801   5.001   5.027  16.912 -0.0530  0.5466 -0.6612
20104TIP3   OH281802   5.972   0.643   3.689  0.3785  0.1608  0.1502
20104TIP3    H181803   6.065   0.652   3.672 -0.0224  2.2524 -1.3348
20104TIP3    H281804   5.946   0.565   3.639  1.3343 -0.5841  0.7783
20105TIP3   OH281805   4.171   2.898  14.541 -0.2025 -0.1240  0.4233
20105TIP3    H181806   4.216   2.876  14.623 -0.4944 -0.9610  0.3605
20105TIP3    H281807   4.097   2.838  14.537 -1.6931  1.5902  0.8040
20106TIP3   OH281808   2.425   0.423   4.604  0.2596 -0.0910  0.1272
20106TIP3    H181809   2.373   0.459   4.532  1.9386  0.6375 -0.7745
20106TIP3    H281810   2.503   0.388   4.562 -0.7640 -4.0034  1.0668
20107TIP3   OH281811   6.527   4.718  16.145 -0.1536 -0.0898 -0.1214
20107TIP3    H181812   6.494   4.718  16.234  0.7388 -0.2396  0.2242
20107TIP3    H281813   6.450   4.735  16.090 -0.9599 -1.3648  0.5665
20108TIP3   OH281814   5.134   0.747  15.755  0.4491 -0.8254  0.7385
20108TIP3    H181815   5.044   0.753  15.787  0.8928 -1.4496  2.2282
20108TIP3    H281816   5.129   0.689  15.679 -0.9409  2.2109 -1.7089
20109TIP3   OH281817   5.315   1.558  16.316 -0.1349 -0.6544 -0.0056
20109TIP3    H181818   5.319   1.578  16.409  0.4450  0.2697 -0.2252
20109TIP3    H281819   5.261   1.627  16.278  1.0792 -0.0220 -0.6204
20110TIP3   OH281820   1.942   2.914   1.212 -0.0056 -0.4884 -0.0532
20110TIP3    H181821   1.919   2.842   1.270 -0.8952 -0.2572 -0.1019
20110TIP3    H281822   1.941   2.876   1.124  1.7014 -0.9267  0.0802
20111TIP3   OH281823   2.810   1.485  15.702  0.2313 -0.1163  0.3322
20111TIP3    H181824   2.838   1.565  15.658 -1.7533  0.4116 -0.1084
20111TIP3    H281825   2.857   1.415  15.657 -0.0261  0.6063 -1.1514
20112TIP3   OH281826   0.827   6.812   4.817  0.1393  0.0734 -0.0493
20112TIP3    H181827   0.821   6.875   4.745  0.0971 -0.6614 -0.7001
20112TIP3    H281828   0.804   6.728   4.778  0.5428 -0.4129  0.7246
20113TIP3   OH281829   5.019   4.433   3.246 -0.0383 -0.0464 -1.0410
20113TIP3    H181830   4.979   4.349   3.272  0.4062  0.3773  1.2840
20113TIP3    H281831   5.080   4.410   3.176  0.0966 -1.6809 -0.4352
20114TIP3   OH281832   1.502   5.502   2.331  0.0475 -0.0117  0.1437
20114TIP3    H181833   1.564   5.439   2.368  1.4227  1.7862  1.0877
20114TIP3    H281834   1.508   5.488   2.236  1.3113 -0.4235  0.2641
20115TIP3   OH281835   0.064   3.600  10.788 -0.0692  0.2463 -0.4303
20115TIP3    H181836   0.007   3.639  10.855  0.2615  1.7900 -1.0187
20115TIP3    H281837   0.127   3.548  10.839  0.3094  1.5603  0.5100
20116TIP3   OH281838   1.675   2.620   3.919  0.4721  0.2270 -0.3767
20116TIP3    H181839   1.754   2.593   3.872 -0.0023  0.4081 -1.3034
20116TIP3    H281840   1.622   2.541   3.925  0.0144  0.4627 -1.2078
20117TIP3   OH281841   5.381   6.114   2.676  0.5387  0.2267 -0.5046
20117TIP3    H181842   5.328   6.193   2.661 -0.5885 -0.6054 -1.0570
20117TIP3    H281843   5.330   6.063   2.739  0.8712 -0.4157 -0.7494
20118TIP3   OH281844   1.121   3.559   0.739 -0.7020 -0.0584 -0.2392
20118TIP3    H181845   1.209   3.539   0.771 -0.1679 -1.4755 -2.3583
20118TIP3    H281846   1.093   3.634   0.791  1.9299  0.7095  0.2087
20119TIP3   OH281847   2.064   0.774  16.622  0.5330  0.0931 -0.4699
20119TIP3    H181848   2.103   0.839  16.682 -0.3445 -0.6802  1.0072
20119TIP3    H281849   2.082   0.690  16.664  1.0909 -0.6013 -2.0275
20120TIP3   OH281850   2.676   2.017   3.131 -0.0298 -0.2432  0.1899
20120TIP3    H181851   2.666   2.107   3.098  0.5520 -0.1553  0.2358
20120TIP3    H281852   2.754   2.021   3.187  0.4625 -0.9402 -0.4244
20121TIP3   OH281853   6.182   0.941   1.666 -0.5726 -0.0440 -0.2746
20121TIP3    H181854   6.174   0.854   1.626  1.1035 -0.3187 -0.0612
20121TIP3    H281855   6.113   0.944   1.732  0.2326 -1.7606  0.6851
20122TIP3   OH281856   4.958   6.119   0.030 -0.0033  0.0092 -0.2359
20122TIP3    H181857   4.926   6.105   0.119 -1.2663  0.7408 -0.5435
20122TIP3    H281858   4.966   6.031  -0.007 -2.0910 -0.2225 -0.2584
20123TIP3   OH281859   5.667   5.855   1.633  0.5389 -0.1388  0.7086
20123TIP3    H181860   5.691   5.883   1.545 -0.7474  1.2613  0.7627
20123TIP3    H281861   5.725   5.904   1.691  0.0535  0.4427  0.7066
20124TIP3   OH281862   2.303   0.304   2.443  0.1806 -0.2614  0.0523
20124TIP3    H181863   2.230   0.272   2.495  0.6451 -0.6531  0.4704
20124TIP3    H281864   2.365   0.338   2.507  1.1290 -1.4974 -0.1698
20125TIP3   OH281865   2.889   0.271   1.619 -0.0634  0.3082  0.0123
20125TIP3    H181866   2.840   0.353   1.609  1.0387  1.0210  0.2956
20125TIP3    H281867   2.866   0.240   1.706 -0.4785  0.3221 -0.0905
20126TIP3   OH281868   6.472   1.285   3.285  0.1761  0.3243  0.1217
20126TIP3    H181869   6.555   1.310   3.246 -0.1545  0.2530 -0.6511
20126TIP3    H281870   6.482   1.305   3.378  0.8979  0.7234 -0.0333
20127TIP3   OH281871   2.346   0.294   3.075 -0.0914  0.2547 -0.2795
20127TIP3    H181872   2.323   0.211   3.116  0.7709 -0.8126 -1.8314
20127TIP3    H281873   2.317   0.361   3.137 -1.5266 -1.1644  0.6636
20128TIP3   OH281874   4.433   0.567  15.098 -0.1020  0.8001  0.1255
20128TIP3    H181875   4.415   0.630  15.028  1.4841 -2.1024 -3.1543
20128TIP3    H281876   4.353   0.515  15.105  0.6613 -0.6783 -1.6193
20129TIP3   OH281877   6.452   2.550  14.290 -0.0519  0.3812 -0.0462
20129TIP3    H181878   6.387   2.541  14.359 -0.6409 -1.1299 -0.7695
20129TIP3    H281879   6.533   2.574  14.336 -0.3398 -0.9561  1.2186
20130TIP3   OH281880   2.851   6.604   4.688  0.1602  0.3495  0.1145
20130TIP3    H181881   2.843   6.694   4.718 -1.5080 -0.0732  1.0697
20130TIP3    H281882   2.906   6.562   4.754  1.4671  0.7828 -0.6669
20131TIP3   OH281883   3.214   0.188  14.726  0.3854  0.0544 -0.7968
20131TIP3    H181884   3.303   0.178  14.692  0.3461  1.7118 -1.5124
20131TIP3    H281885   3.226   0.217  14.817  0.5396 -0.9349 -0.4911
20132TIP3   OH281886   6.013   5.196   3.587  0.5954  0.3575  0.1726
20132TIP3    H181887   5.966   5.214   3.505  2.0916  1.9380 -0.4205
20132TIP3    H281888   6.096   5.158   3.558  0.1645 -1.4200  1.1349
20133TIP3   OH281889   2.857   5.842   3.469  0.0136  0.7103  1.0587
20133TIP3    H181890   2.891   5.932   3.474 -1.1124  1.3368 -1.1714
20133TIP3    H281891   2.769   5.851   3.434 -0.0187 -1.2967  0.4779
20134TIP3   OH281892   2.015   6.488   5.860  0.6753 -0.0651  0.0569
20134TIP3    H181893   2.039   6.481   5.952  0.6831  0.6437  0.1120
20134TIP3    H281894   2.094   6.519   5.817  1.2559 -2.1558 -0.5027
20135TIP3   OH281895   1.140   0.579  11.487  0.1975  0.0676 -0.1057
20135TIP3    H181896   1.164   0.606  11.398 -1.7339 -0.4793 -0.8337
20135TIP3    H281897   1.095   0.495  11.475  1.9178 -1.1909  1.6493
20136TIP3   OH281898   2.174   2.601   0.263  0.2266 -0.5483  0.1069
20136TIP3    H181899   2.255   2.611   0.213  1.3261 -2.2701  1.4300
20136TIP3    H281900   2.160   2.687   0.302  0.6427  0.1553 -1.2347
20137TIP3   OH281901   0.813   1.930  15.514  0.4217 -0.9556  0.8833
20137TIP3    H181902   0.775   1.920  15.601 -0.3478 -0.2272  0.6419
20137TIP3    H281903   0.740   1.912  15.454  0.3086  0.8281  0.4161
20138TIP3   OH281904   1.630   2.355  17.187  0.0417 -0.1532 -0.2275
20138TIP3    H181905   1.625   2.341  17.281  0.1503 -2.3133 -0.5020
20138TIP3    H281906   1.560   2.300  17.151  0.9138 -0.4688 -1.4988
20139TIP3   OH281907   3.862   4.383  16.557 -0.2934 -0.2613  0.1208
20139TIP3    H181908   3.843   4.344  16.643 -0.7598  0.1052  0.1923
20139TIP3    H281909   3.884   4.309  16.501  2.1816 -0.3342  1.0780
20140TIP3   OH281910   3.548   1.295   3.120 -0.5538 -0.1730 -0.0622
20140TIP3    H181911   3.482   1.259   3.179  0.0474 -0.1211  0.6767
20140TIP3    H281912   3.503   1.364   3.071 -0.8815  0.3206  0.9083
20141TIP3   OH281913   0.832   0.999  15.058 -0.1290  0.4089 -0.2741
20141TIP3    H181914   0.755   1.056  15.057 -1.3167 -1.1181 -1.4180
20141TIP3    H281915   0.906   1.059  15.064 -1.3841  1.8963  2.2867
20142TIP3   OH281916   6.420   0.198  12.382 -0.4607 -0.5637 -0.0193
20142TIP3    H181917   6.436   0.289  12.357  0.5780 -1.0539 -1.2823
20142TIP3    H281918   6.330   0.180  12.354 -2.2995  1.2125  3.9726
20143TIP3   OH281919   5.727   0.065   5.018  0.4416  0.1005  0.4679
20143TIP3    H181920   5.661   0.107   5.072  0.4683 -0.3699  0.8824
20143TIP3    H281921   5.811   0.096   5.054  0.4602 -0.2529  0.7406
20144TIP3   OH281922   3.302   5.956   6.110 -0.0125  0.0083  0.1888
20144TIP3    H181923   3.232   6.014   6.140 -0.1115  0.4447 -0.8396
20144TIP3    H281924   3.364   5.954   6.183 -1.4911 -1.0842  1.4577
20145TIP3   OH281925   0.977   0.863   4.390  0.6062 -0.0633 -0.2680
20145TIP3    H181926   0.928   0.835   4.313  1.5310 -2.4829 -0.0630
20145TIP3    H281927   1.046   0.797   4.400 -0.6856 -1.0635  3.7675
20146TIP3   OH281928   1.569   0.960  10.812  0.4078 -0.0587 -0.1841
20146TIP3    H181929   1.615   1.043  10.797  0.5940 -0.2973 -1.0236
20146TIP3    H281930   1.638   0.899  10.840  0.6442 -0.4186 -1.4515
20147TIP3   OH281931   0.210   6.453   1.314  0.0535  0.1474 -0.0643
20147TIP3    H181932   0.170   6.418   1.393 -0.3956 -1.2552 -0.8894
20147TIP3    H281933   0.144   6.513   1.279 -1.3158 -1.9374 -1.2654
20148TIP3   OH281934   4.300   4.867   4.670  0.1767  0.2637  0.2768
20148TIP3    H181935   4.248   4.791   4.697 -0.1958  1.3798  3.0619
20148TIP3    H281936   4.266   4.890   4.584 -2.7621 -0.1225  1.2251
20149TIP3   OH281937   6.615   4.797  15.297  0.0868 -0.0571  0.2546
20149TIP3    H181938   6.692   4.829  15.345  0.0877  2.2300 -1.1412
20149TIP3    H281939   6.645   4.789  15.206 -1.1549  0.2189 -0.1900
20150TIP3   OH281940   1.617   3.827  14.990  0.7274 -0.5202  0.1657
20150TIP3    H181941   1.537   3.781  14.966  1.4381 -0.6735 -2.1848
20150TIP3    H281942   1.634   3.886  14.916  1.8267  0.8269  1.4254
20151TIP3   OH281943   3.874   1.270  11.882  0.4218  0.0285  0.6320
20151TIP3    H181944   3.811   1.203  11.854 -0.0996  0.8245 -0.1305
20151TIP3    H281945   3.957   1.240  11.844 -0.0294  0.4019 -0.7164
20152TIP3   OH281946   2.176   4.770  10.826  0.5281  0.3896  0.0966
20152TIP3    H181947   2.250   4.721  10.862  1.2281  0.9105 -0.6160
20152TIP3    H281948   2.146   4.718  10.752  0.2753  0.2684  0.2788
20153TIP3   OH281949   2.501   5.383  14.104 -0.0614 -0.1260 -0.0819
20153TIP3    H181950   2.431   5.407  14.164  1.3145  2.8590  0.5248
20153TIP3    H281951   2.460   5.381  14.018 -1.2706 -0.4318  0.4850
20154TIP3   OH281952   5.130   3.747   3.753 -0.0149  0.0443  0.4206
20154TIP3    H181953   5.118   3.836   3.786 -0.8013 -0.0165  0.3301
20154TIP3    H281954   5.168   3.758   3.666 -1.4355  0.3780 -0.2011
20155TIP3   OH281955   3.526   2.349  11.623  0.1862  0.3566 -0.4617
20155TIP3    H181956   3.603   2.294  11.606  0.4845  0.6283 -0.0111
20155TIP3    H281957   3.479   2.305  11.694  0.4583  0.7085 -0.0578
20156TIP3   OH281958   5.913   0.046  13.121 -0.4717  0.0557 -0.0574
20156TIP3    H181959   5.938   0.132  13.154 -2.5925  0.7683 -0.2061
20156TIP3    H281960   5.878  -0.000  13.197  2.0521 -1.3419  0.3934
20157TIP3   OH281961   2.144   4.776  14.416 -0.7064 -0.5221 -0.1975
20157TIP3    H181962   2.114   4.849  14.362 -0.7361 -0.1241  0.3488
20157TIP3    H281963   2.124   4.698  14.364 -0.8686 -0.1532 -0.6930
20158TIP3   OH281964   4.005   0.616   3.174 -0.0610 -0.2900  0.3602
20158TIP3    H181965   4.026   0.706   3.198 -0.6286  0.2356 -1.0268
20158TIP3    H281966   3.969   0.577   3.254  0.1135  0.7324  0.9503
20159TIP3   OH281967   0.094   1.841   2.410  0.1647 -0.5762 -0.2928
20159TIP3    H181968   0.113   1.907   2.478 -1.8287 -0.1913 -0.0610
20159TIP3    H281969   0.178   1.829   2.365  0.3384  3.1913 -1.2999
20160TIP3   OH281970   0.863   6.078   0.664  0.3525 -0.0194  0.5421
20160TIP3    H181971   0.864   6.168   0.632  0.9698 -0.2622 -0.1330
20160TIP3    H281972   0.875   6.024   0.586  1.8269 -0.6201  1.1537
20161TIP3   OH281973   5.944   3.792  11.686  0.2278  0.2526  0.8277
20161TIP3    H181974   5.904   3.764  11.604  0.7714  0.0799  0.6179
20161TIP3    H281975   5.891   3.749  11.754  0.4970 -0.5779  0.5332
20162TIP3   OH281976   1.348   2.342   5.861 -0.3745 -0.1160 -0.3084
20162TIP3    H181977   1.283   2.355   5.793 -0.4372 -0.6392 -0.3496
20162TIP3    H281978   1.367   2.431   5.893  0.3051  0.2316 -1.5964
20163TIP3   OH281979   3.940   4.181  15.994 -0.1800 -0.2831 -0.1579
20163TIP3    H181980   3.944   4.088  15.973  2.8604 -0.0529 -1.0796
20163TIP3    H281981   3.933   4.183  16.089  0.5683 -1.5030 -0.0444
20164TIP3   OH281982   6.325   0.106   1.360 -0.2196 -0.0653  0.1579
20164TIP3    H181983   6.266   0.180   1.373 -1.8094 -1.3404  0.5699
20164TIP3    H281984   6.340   0.071   1.448  2.2995  1.0064  0.2427
20165TIP3   OH281985   1.811   3.644   3.410 -0.0204 -0.1279 -0.0138
20165TIP3    H181986   1.903   3.669   3.409 -0.0463 -0.0065 -0.9794
20165TIP3    H281987   1.768   3.710   3.465  0.2859  0.5660 -0.5903
20166TIP3   OH281988   4.513   2.763  16.110 -0.2036  0.0530 -0.4872
20166TIP3    H181989   4.475   2.850  16.124  3.2041  1.6152  0.1855
20166TIP3    H281990   4.515   2.723  16.196 -1.0946 -0.4266 -0.6766
20167TIP3   OH281991   0.820   4.431  11.161  0.4681  0.6400  0.2201
20167TIP3    H181992   0.730   4.460  11.149 -0.1333 -1.1477  0.1733
20167TIP3    H281993   0.873   4.502  11.125 -0.9252  1.5088 -0.1782
20168TIP3   OH281994   5.220   0.716  14.271  0.4319  0.1003  0.3262
20168TIP3    H181995   5.249   0.625  14.266  1.2935  0.3377  0.8899
20168TIP3    H281996   5.134   0.716  14.228  0.5213 -0.9308  0.1276
20169TIP3   OH281997   3.920   3.559   5.043 -0.4743 -0.0237 -0.1158
20169TIP3    H181998   3.955   3.632   4.992  0.1724 -1.4594 -1.8289
20169TIP3    H281999   3.825   3.564   5.029 -0.5892  1.1593  0.8064
20170TIP3   OH282000   3.718   5.498   5.537 -0.2986  1.0386 -0.1702
20170TIP3    H182001   3.780   5.512   5.608 -1.8120  0.2458  1.3815
20170TIP3    H282002   3.768   5.455   5.468  0.6765 -0.4634  1.4046
20171TIP3   OH282003   1.570   0.645   3.520  0.2192  0.1403  0.6256
20171TIP3    H182004   1.640   0.663   3.582 -0.6748  0.7143  1.5113
20171TIP3    H282005   1.594   0.694   3.442  2.0291 -1.6463 -0.0148
20172TIP3   OH282006   2.404   5.952  12.409 -0.0945 -0.0592 -0.3032
20172TIP3    H182007   2.470   6.021  12.422 -0.4768 -0.0939  2.3612
20172TIP3    H282008   2.455   5.873  12.392  0.6837 -0.1887  2.1914
20173TIP3   OH282009   3.796   0.837   1.216 -0.3704  0.1524  0.4730
20173TIP3    H182010   3.876   0.802   1.256  0.3521  0.8038 -0.3710
20173TIP3    H282011   3.815   0.841   1.122 -0.8621  1.6231  0.4016
20174TIP3   OH282012   2.689   3.137   2.525 -0.4928 -0.5191 -0.5188
20174TIP3    H182013   2.665   3.183   2.605 -0.7569 -1.0605 -0.2805
20174TIP3    H282014   2.618   3.155   2.464 -0.2330 -0.0082 -0.6738
20175TIP3   OH282015   1.425   3.437   1.995  0.0137  0.0343 -0.0313
20175TIP3    H182016   1.375   3.460   1.917  0.8134 -0.4396 -0.7076
20175TIP3    H282017   1.517   3.441   1.966  0.5345  2.7815  1.6532
20176TIP3   OH282018   6.550   5.943  16.277 -0.2585 -0.4400  0.2990
20176TIP3    H182019   6.584   5.943  16.188 -1.2480 -0.0890 -0.0916
20176TIP3    H282020   6.627   5.934  16.332  0.8450  3.0654 -0.4300
20177TIP3   OH282021   2.888   0.080  17.133  0.0615  0.2257  0.1974
20177TIP3    H182022   2.802   0.122  17.135  0.4638  1.0415  0.7795
20177TIP3    H282023   2.870  -0.008  17.100 -0.9746  0.4315  0.1608
20178TIP3   OH282024   2.126   2.542   3.140 -0.2035  0.1570 -0.4332
20178TIP3    H182025   2.059   2.606   3.116 -0.7177 -0.2039  0.0090
20178TIP3    H282026   2.182   2.536   3.063 -0.1748  1.0975 -0.5024
20179TIP3   OH282027   1.005   1.287   0.501 -0.4930 -0.4617  0.2013
20179TIP3    H182028   0.993   1.268   0.408 -1.2275  0.2297  0.1419
20179TIP3    H282029   1.070   1.358   0.503  0.0657 -0.9710  0.2597
20180TIP3   OH282030   6.146   5.988   1.815 -0.0543  0.6225 -0.4843
20180TIP3    H182031   6.233   5.947   1.812  0.3782  1.5792 -1.5552
20180TIP3    H282032   6.105   5.952   1.894  1.1116 -0.2416 -0.2532
20181TIP3   OH282033   6.044   1.388   1.583 -0.4904  0.1868 -0.3970
20181TIP3    H182034   6.013   1.307   1.624  0.2353 -0.5284 -1.2177
20181TIP3    H282035   6.140   1.384   1.592 -0.4622  1.1106 -0.1769
20182TIP3   OH282036   4.121   4.873  10.673 -0.3730  0.3507  0.3785
20182TIP3    H182037   4.198   4.830  10.636 -0.5949 -0.6482  1.0616
20182TIP3    H282038   4.088   4.927  10.601  1.2564  1.2322  0.2287
20183TIP3   OH282039   3.134   3.700   2.475  0.2357 -0.7373 -0.0120
20183TIP3    H182040   3.068   3.641   2.510 -0.4304  0.2100  0.3601
20183TIP3    H282041   3.094   3.738   2.397  1.0170 -1.4543 -0.7937
20184TIP3   OH282042   0.603   0.779   5.168  0.2847  0.3385 -0.5639
20184TIP3    H182043   0.632   0.869   5.151  1.2885  0.0019 -0.7455
20184TIP3    H282044   0.614   0.769   5.263  1.4383  0.0062 -0.7182
20185TIP3   OH282045   5.381   0.466  15.202 -0.1305 -0.0045  0.4769
20185TIP3    H182046   5.370   0.456  15.297  1.1493  1.7829  0.8751
20185TIP3    H282047   5.424   0.551  15.192  1.2806 -0.8696 -1.6077
20186TIP3   OH282048   4.383   6.788   6.935  0.1463 -0.2629  0.4459
20186TIP3    H182049   4.291   6.772   6.914  0.4593  0.8402 -2.1745
20186TIP3    H282050   4.416   6.839   6.861  2.6484  0.2017  1.7605
20187TIP3   OH282051   5.334   0.397  12.948 -0.0510 -0.1009 -0.1622
20187TIP3    H182052   5.297   0.484  12.933 -1.1208 -0.1097  2.0224
20187TIP3    H282053   5.288   0.364  13.025  0.6733 -2.4205 -0.6371
20188TIP3   OH282054   5.518   5.391   2.622 -0.8494  0.1633 -0.0776
20188TIP3    H182055   5.536   5.361   2.711 -1.5355  0.8844  0.3207
20188TIP3    H282056   5.436   5.347   2.598 -0.2081 -0.7285 -0.7118
20189TIP3   OH282057   4.596   5.485   2.504  1.0832 -0.0412 -0.2624
20189TIP3    H182058   4.626   5.565   2.547 -0.0183 -0.9152  2.3019
20189TIP3    H282059   4.662   5.420   2.525  0.6278 -0.4447 -0.0821
20190TIP3   OH282060   1.176   5.597  15.468 -0.0453  0.6718 -0.2366
20190TIP3    H182061   1.221   5.542  15.404  1.0095  2.0974 -0.7638
20190TIP3    H282062   1.234   5.672  15.482 -1.5707  1.8438  0.1881
20191TIP3   OH282063   3.369   1.099   1.370 -0.2493  0.0778 -0.1738
20191TIP3    H182064   3.300   1.067   1.427 -2.0064  1.2307 -1.5220
20191TIP3    H282065   3.323   1.133   1.293  1.9318 -0.5686 -1.8857
20192TIP3   OH282066   3.356   2.473  14.408 -0.2749  0.0299  0.3857
20192TIP3    H182067   3.275   2.429  14.432 -0.2849 -0.6403 -0.8147
20192TIP3    H282068   3.418   2.449  14.477 -0.3855 -1.5816 -0.0402
20193TIP3   OH282069   1.025   3.120   0.541  0.4764  0.5616 -0.0267
20193TIP3    H182070   0.965   3.081   0.604  1.7975  0.4018  1.1713
20193TIP3    H282071   1.000   3.212   0.538  0.7809  0.7007  1.2073
20194TIP3   OH282072   0.312   5.893   0.301  0.6705  0.2470  0.0032
20194TIP3    H182073   0.390   5.911   0.354 -0.1597 -1.1578  1.8036
20194TIP3    H282074   0.336   5.815   0.250  0.1589 -0.7812  1.2850
20195TIP3   OH282075   1.754   6.659   0.023  0.3982  0.3518 -0.4416
20195TIP3    H182076   1.703   6.612  -0.044  1.5177  0.3788 -1.3381
20195TIP3    H282077   1.709   6.640   0.105 -0.6570 -0.1818 -1.1275
20196TIP3   OH282078   6.524   0.907   0.000 -0.5073  0.0728  0.3791
20196TIP3    H182079   6.593   0.966   0.031 -1.8293  0.7884  2.1247
20196TIP3    H282080   6.542   0.896  -0.093  1.3303  1.0862  0.5715
20197TIP3   OH282081   0.606   2.650  12.029 -0.5457  0.0629  0.0855
20197TIP3    H182082   0.678   2.625  11.970  0.6352  0.4866  1.3052
20197TIP3    H282083   0.641   2.637  12.117 -2.5904 -1.4615  0.7581
20198TIP3   OH282084   2.584   0.813  12.435 -0.6376 -0.3454 -0.3367
20198TIP3    H182085   2.593   0.736  12.491 -0.3034  0.0558  0.1696
20198TIP3    H282086   2.671   0.827  12.398 -0.1179  1.0451  1.2676
20199TIP3   OH282087   4.242   4.062   0.297 -0.0662 -0.3425  0.2851
20199TIP3    H182088   4.284   4.005   0.362 -0.6210  1.4164  2.2931
20199TIP3    H282089   4.154   4.025   0.287 -0.3811  0.0450  1.4701
20200TIP3   OH282090   1.069   5.210  16.069 -0.2703 -0.0098  0.0453
20200TIP3    H182091   1.134   5.258  16.018  0.3154 -1.6495 -0.7932
20200TIP3    H282092   1.110   5.126  16.089 -2.2827 -1.3284 -0.9788
20201TIP3   OH282093   6.648   5.579   2.315  0.9204 -0.0437 -0.2619
20201TIP3    H182094   6.646   5.489   2.281 -0.6088 -0.9898  2.1018
20201TIP3    H282095   6.737   5.588   2.351  1.2719 -0.3882 -1.0186
20202TIP3   OH282096   0.201   0.378  17.101 -0.0747  0.5652  0.0019
20202TIP3    H182097   0.266   0.309  17.118 -0.4915  0.4979  1.5128
20202TIP3    H282098   0.235   0.424  17.025 -0.2863 -1.8981 -1.7198
20203TIP3   OH282099   3.108   0.772   4.217  0.2653 -0.6773  0.3734
20203TIP3    H182100   3.161   0.792   4.294 -1.1757 -1.9509  1.7740
20203TIP3    H282101   3.049   0.847   4.208  0.7059 -0.3426  0.2500
20204TIP3   OH282102   2.169   5.518  12.170 -0.1067  0.4676  0.3611
20204TIP3    H182103   2.146   5.604  12.135 -1.2094  0.0550  0.0265
20204TIP3    H282104   2.154   5.458  12.096 -0.5420 -0.1638  0.9573
20205TIP3   OH282105   3.502   3.323  13.283  0.4451  0.2705 -0.4697
20205TIP3    H182106   3.568   3.254  13.278  1.5154  1.3361 -1.7556
20205TIP3    H282107   3.419   3.278  13.267  1.0578 -0.7808 -0.8029
20206TIP3   OH282108   4.817   4.328   0.528  0.3567  0.5378 -0.3357
20206TIP3    H182109   4.808   4.353   0.620  1.1296 -1.6030  0.3713
20206TIP3    H282110   4.738   4.278   0.508  0.6013  0.2445 -0.5776
20207TIP3   OH282111   3.325   5.171   5.386 -0.7813 -0.3499 -0.2831
20207TIP3    H182112   3.344   5.245   5.443 -0.4017 -0.7844  0.1652
20207TIP3    H282113   3.242   5.192   5.344 -1.9567 -0.7789  1.7027
20208TIP3   OH282114   6.123   2.928  12.341  0.4975  0.1934 -0.4273
20208TIP3    H182115   6.171   2.908  12.261 -1.9047 -1.6340 -1.5337
20208TIP3    H282116   6.165   2.875  12.409  2.0084  1.1099 -0.5980
20209TIP3   OH282117   2.708   6.664  10.629  0.6466 -0.3370 -0.6551
20209TIP3    H182118   2.694   6.645  10.536  1.3006 -1.5307 -0.5315
20209TIP3    H282119   2.796   6.632  10.646 -0.1064 -1.7890  0.7831
20210TIP3   OH282120   5.148   0.664  16.021 -0.0868  0.7847 -0.1895
20210TIP3    H182121   5.075   0.725  16.024 -2.1107 -1.4348 -0.8421
20210TIP3    H282122   5.199   0.691  15.944  0.1024  2.6321  0.5373
20211TIP3   OH282123   5.331   5.062   3.379  0.4426  0.0373 -0.1449
20211TIP3    H182124   5.291   5.143   3.347 -1.1899 -0.2436  1.0579
20211TIP3    H282125   5.365   5.084   3.465 -0.4223 -0.6450  0.3889
20212TIP3   OH282126   0.128   0.286   2.352  0.3497  0.4710  0.3167
20212TIP3    H182127   0.118   0.311   2.444 -2.7132 -0.8093  0.4662
20212TIP3    H282128   0.063   0.217   2.339  1.3311 -0.0397 -2.6056
20213TIP3   OH282129   1.322   3.645  12.110 -0.0151  0.5773  0.1372
20213TIP3    H182130   1.342   3.555  12.083 -1.3739 -0.0549  1.1347
20213TIP3    H282131   1.407   3.685  12.124  0.6473 -1.3025  2.0509
20214TIP3   OH282132   3.231   3.095   1.422  0.3297  0.5043 -0.0955
20214TIP3    H182133   3.244   3.188   1.402 -0.5473  1.2263  2.3597
20214TIP3    H282134   3.187   3.094   1.507  1.1218 -2.2052  0.3825
20215TIP3   OH282135   6.755   3.325  17.218 -0.0666 -0.5145  0.4027
20215TIP3    H182136   6.815   3.398  17.233  1.0080 -1.3128  0.0555
20215TIP3    H282137   6.783   3.257  17.280 -2.4826  0.1363  2.3906
20216TIP3   OH282138   0.711   1.929  15.804  0.1615 -0.7415  0.2644
20216TIP3    H182139   0.706   1.888  15.890 -0.1710  0.6040  0.9172
20216TIP3    H282140   0.635   1.988  15.801  0.5849 -0.2200 -0.6402
20217TIP3   OH282141   0.453   4.508  11.708  0.2739  0.0137  0.2882
20217TIP3    H182142   0.397   4.528  11.633  1.3991 -1.0093 -0.8749
20217TIP3    H282143   0.425   4.570  11.775  0.3594  2.1901 -1.5261
20218TIP3   OH282144   5.732   0.054   2.632  0.3196 -0.0641  0.1545
20218TIP3    H182145   5.803   0.029   2.690  0.7853 -0.9127 -0.7562
20218TIP3    H282146   5.653   0.044   2.684  0.9403  3.8523  2.2546
20219TIP3   OH282147   3.887   2.631   6.320 -0.7697 -0.3552 -0.1115
20219TIP3    H182148   3.925   2.546   6.344 -2.4688 -0.4825  2.5924
20219TIP3    H282149   3.957   2.694   6.340  0.4378 -1.0315 -1.9666
20220TIP3   OH282150   4.782   5.055  13.259  0.0202 -0.0639  0.4290
20220TIP3    H182151   4.834   5.081  13.336 -0.4003  1.8107  0.1181
20220TIP3    H282152   4.845   5.057  13.186  0.2044 -0.9295  0.5496
20221TIP3   OH282153   1.488   0.115  14.703  0.0300 -0.9434  0.1120
20221TIP3    H182154   1.479   0.044  14.639  2.1311 -0.6305 -0.5817
20221TIP3    H282155   1.539   0.182  14.658  0.8856 -0.3782  1.8651
20222TIP3   OH282156   3.404   0.600  12.112  0.0200 -0.4706 -0.2180
20222TIP3    H182157   3.424   0.653  12.035 -0.1627 -1.2793 -0.8374
20222TIP3    H282158   3.379   0.663  12.179 -1.2779  0.1806 -1.2620
20223TIP3   OH282159   3.518   5.188   2.462  0.1018 -0.6133 -0.5314
20223TIP3    H182160   3.479   5.263   2.417  0.3804  0.1206  0.4093
20223TIP3    H282161   3.443   5.134   2.487 -0.2089 -0.0069 -0.1160
20224TIP3   OH282162   0.774   0.452  15.667 -0.0409 -0.1043 -0.3063
20224TIP3    H182163   0.805   0.383  15.725  0.4858  0.7838  0.4966
20224TIP3    H282164   0.695   0.485  15.709 -0.3320 -0.2492 -0.7259
20225TIP3   OH282165   0.867   2.263  15.923  0.3041 -0.6145  0.1383
20225TIP3    H182166   0.868   2.343  15.975  0.2752 -1.9501  2.3294
20225TIP3    H282167   0.918   2.285  15.844  1.3830  1.1613  1.2612
20226TIP3   OH282168   3.497   0.160   2.629 -0.8282 -0.8989  0.2726
20226TIP3    H182169   3.470   0.120   2.547 -1.9674 -0.1687  0.2677
20226TIP3    H282170   3.555   0.232   2.603 -3.0695  0.8660 -0.1049
20227TIP3   OH282171   3.457   4.135   2.201 -0.0872 -0.6976 -0.7340
20227TIP3    H182172   3.497   4.204   2.253 -1.7434 -0.9180  0.9837
20227TIP3    H282173   3.477   4.054   2.249 -1.1859 -0.9749 -0.7075
20228TIP3   OH282174   5.899   1.465  14.936 -0.1031 -0.2738 -0.0742
20228TIP3    H182175   5.864   1.381  14.905 -0.4821  0.3557 -1.4638
20228TIP3    H282176   5.838   1.493  15.003 -0.5639 -0.6262 -0.3360
20229TIP3   OH282177   5.004   0.409  12.789  0.5268  0.3491 -0.1295
20229TIP3    H182178   5.073   0.407  12.723  0.6363 -1.4882 -0.0067
20229TIP3    H282179   4.936   0.351  12.755  0.7373 -0.9259  1.4909
20230TIP3   OH282180   5.824   3.883   5.417 -0.3911 -0.2393  0.2870
20230TIP3    H182181   5.743   3.878   5.365 -0.9547  0.2463  1.0992
20230TIP3    H282182   5.797   3.925   5.499  0.9121  0.9198  0.1376
20231TIP3   OH282183   0.240   3.979   1.135  0.2739  0.0508 -0.3563
20231TIP3    H182184   0.167   3.951   1.190 -1.1811  1.7166 -1.3445
20231TIP3    H282185   0.217   3.949   1.047  1.9134 -1.3742 -0.3693
20232TIP3   OH282186   4.590   1.025  11.340 -0.2045  0.1234 -0.3270
20232TIP3    H182187   4.562   0.936  11.319  0.6104 -0.1850 -0.1589
20232TIP3    H282188   4.672   1.036  11.292  0.4539  0.2542  0.7944
20233TIP3   OH282189   0.945   3.486  12.178  0.1068  0.1037 -0.5797
20233TIP3    H182190   0.924   3.549  12.109  0.6256  1.7164  0.6557
20233TIP3    H282191   0.884   3.414  12.164 -0.5983  0.9269 -1.9954
20234TIP3   OH282192   2.069   2.564  12.732 -0.3473 -0.2732 -0.3756
20234TIP3    H182193   2.098   2.584  12.643 -0.5385 -1.6690 -0.7907
20234TIP3    H282194   2.087   2.470  12.742 -2.6439 -0.7326  0.1091
20235TIP3   OH282195   6.669   5.712   0.382  0.2043 -0.8975 -0.4762
20235TIP3    H182196   6.700   5.623   0.367  0.6238 -0.5758 -1.6827
20235TIP3    H282197   6.617   5.733   0.304  2.0065  0.6850 -1.3529
20236TIP3   OH282198   5.189   0.286   2.158 -0.4237  0.3807 -0.4245
20236TIP3    H182199   5.167   0.199   2.193  1.5532 -0.6320 -1.5277
20236TIP3    H282200   5.189   0.274   2.063  2.2589  0.8796 -0.5624
20237TIP3   OH282201   0.378   5.967   5.728  0.3658 -0.3646 -0.4080
20237TIP3    H182202   0.436   5.934   5.660  1.6376  0.1911  0.3702
20237TIP3    H282203   0.329   6.038   5.686  0.7101 -0.4186 -0.9021
20238TIP3   OH282204   2.653   6.002  11.581  0.3228 -0.2811  0.1152
20238TIP3    H182205   2.678   5.939  11.514 -0.2885 -1.3852  0.9014
20238TIP3    H282206   2.557   5.994  11.586 -0.3620  3.4751 -2.4791
20239TIP3   OH282207   1.813   5.219  12.425  0.0959 -0.3058  0.5437
20239TIP3    H182208   1.835   5.133  12.461 -1.3599 -0.5551  0.9042
20239TIP3    H282209   1.765   5.200  12.344  2.2315  0.2387 -0.9156
20240TIP3   OH282210   3.565   4.342   3.416 -0.2221  0.0387 -0.5013
20240TIP3    H182211   3.503   4.307   3.351  0.6324 -1.6740 -0.4418
20240TIP3    H282212   3.580   4.270   3.477 -0.8196  1.5368  1.5329
20241TIP3   OH282213   2.486   1.397   3.641 -0.1316 -0.2536  0.1247
20241TIP3    H182214   2.403   1.423   3.602  0.6716  1.2587 -0.6559
20241TIP3    H282215   2.509   1.469   3.700  0.6401 -0.6302  0.2966
20242TIP3   OH282216   2.851   4.749   2.205 -0.6416  0.4411 -0.2340
20242TIP3    H182217   2.932   4.745   2.255 -0.4938  2.5510 -0.2188
20242TIP3    H282218   2.782   4.745   2.271 -0.4898  0.9271 -0.0420
20243TIP3   OH282219   2.589   0.664  14.407  0.2563  0.3711 -0.6163
20243TIP3    H182220   2.529   0.633  14.475  1.3932  1.2978  0.8509
20243TIP3    H282221   2.630   0.584  14.373  0.5065 -0.0269  0.5854
20244TIP3   OH282222   4.779   5.232   3.673  0.7662 -0.3375 -0.1363
20244TIP3    H182223   4.860   5.283   3.670 -1.1069  2.7904 -1.4254
20244TIP3    H282224   4.741   5.251   3.759 -0.4165  1.3255 -0.9942
20245TIP3   OH282225   2.969   3.413  12.916 -0.5630 -0.1070 -0.0044
20245TIP3    H182226   2.943   3.329  12.879  0.0109 -0.2068 -0.1823
20245TIP3    H282227   2.926   3.478  12.860 -0.1469 -0.2639 -0.5147
20246TIP3   OH282228   1.812   0.056   2.051 -0.2141  0.0307 -0.5655
20246TIP3    H182229   1.780   0.145   2.068 -1.1795 -0.4656  0.3462
20246TIP3    H282230   1.826   0.019   2.138  0.4147 -0.6369 -0.9402
20247TIP3   OH282231   0.156   5.614  15.648 -0.1856 -0.1436  0.5535
20247TIP3    H182232   0.079   5.607  15.591 -1.3973  1.9644  1.8176
20247TIP3    H282233   0.205   5.689  15.614 -0.3920  0.5090  1.6465
20248TIP3   OH282234   6.410   1.186  12.650 -0.0767  0.2700 -0.0252
20248TIP3    H182235   6.380   1.269  12.688 -0.1901  0.5016 -0.6069
20248TIP3    H282236   6.444   1.211  12.564  2.2146  0.1019  0.7710
20249TIP3   OH282237   6.458   2.483  12.715  0.9137  0.4337 -0.4175
20249TIP3    H182238   6.516   2.445  12.781 -0.3629  0.5861  0.8482
20249TIP3    H282239   6.498   2.460  12.632  2.9352  0.7909  0.4010
20250LIG     O182240   3.482   2.953   1.795 -0.0952 -0.2006 -0.0011
20250LIG     O282241   3.610   2.854   1.583 -0.1261 -0.0167 -0.2871
20250LIG     O382242   3.200   2.821   1.800 -0.7676  0.3243  0.7283
20250LIG     O482243   3.839   2.817   1.573 -0.6828  0.1128 -0.1814
20250LIG     O582244   3.564   2.590   1.675  0.4754  0.2587  0.0304
20250LIG     O682245   3.792   2.408   1.654 -0.2529  0.0298  0.1008
20250LIG     O782246   4.053   2.528   1.679 -0.0415  0.1074  0.4129
20250LIG     O882247   4.129   2.931   1.604 -0.3705  0.8751  0.1771
20250LIG     O982248   4.176   2.734   1.507  0.8377 -0.0221 -0.4169
20250LIG      N82249   3.519   3.470   1.803 -0.2580 -0.3621  0.1569
20250LIG     C182250   3.532   3.183   1.741  0.0783  0.2475  0.3138
20250LIG     C282251   3.561   3.278   1.627 -0.2952 -0.0450 -0.4384
20250LIG     C382252   3.590   3.036   1.736  0.1986 -0.0467 -0.1701
20250LIG     C482253   3.480   3.408   1.666  0.0981 -0.5412 -0.2001
20250LIG     C582254   3.544   3.236   1.889 -0.1171 -1.0413  0.1711
20250LIG     C682255   3.383   3.150   1.738 -0.1919 -1.4734 -0.9163
20250LIG     C782256   3.326   3.379   1.662  0.0815 -0.4481 -0.7815
20250LIG     C882257   3.485   3.380   1.913 -0.2231  0.7743  0.0287
20250LIG     C982258   3.634   2.993   1.603 -0.3673 -0.3427  0.0611
20250LIG    C1082259   3.283   3.237   1.708  0.5697 -0.3062 -0.0337
20250LIG    C1182260   3.556   3.202   1.495 -0.5742  0.5957  0.1373
20250LIG    C1282261   3.360   3.013   1.765  0.6213  0.7956  0.1896
20250LIG    C1382262   3.573   3.065   1.485  0.2717  0.6440 -0.3628
20250LIG    C1482263   3.647   3.540   1.811 -0.0233 -0.0501  0.0793
20250LIG    C1582264   3.152   3.183   1.710 -0.6255  0.0636 -0.3755
20250LIG    C1682265   3.227   2.958   1.767 -0.3849  0.0161  0.1429
20250LIG    C1782266   3.123   3.050   1.744 -0.2017  0.3639  0.0377
20250LIG    C1882267   3.719   2.774   1.636  0.3485 -0.0343  0.3586
20250LIG    C1982268   3.691   2.624   1.608  0.4575 -0.0780  0.1803
20250LIG    C2082269   3.809   2.543   1.670  1.0328 -0.1112 -0.2406
20250LIG    C2182270   3.945   2.599   1.614 -0.2299  0.1139  0.0052
20250LIG    C2282271   3.961   2.751   1.632  0.5352  0.3259 -0.2111
20250LIG    C2382272   4.097   2.799   1.571 -0.1060 -0.2949 -0.1481
20250LIG     H182273   3.668   3.302   1.642 -0.6364  0.6166  1.1208
20250LIG     H282274   3.664   3.010   1.815  0.1708 -2.3092 -0.8188
20250LIG     H382275   3.507   3.483   1.588  1.0449 -0.1810  0.4539
20250LIG     H482276   3.652   3.234   1.916  0.1509 -0.3110 -0.8023
20250LIG     H582277   3.494   3.165   1.959 -2.6068 -2.0958 -2.4474
20250LIG     H682278   3.297   3.400   1.557 -2.9574 -1.0492 -0.1758
20250LIG     H782279   3.273   3.448   1.732  1.9896  0.3396 -0.0632
20250LIG     H882280   3.374   3.380   1.916 -0.2567 -0.7563 -0.2895
20250LIG     H982281   3.514   3.427   2.009 -0.4458  1.6978 -0.3453
20250LIG    H1082282   3.743   3.009   1.588 -0.5121  1.2416  0.5401
20250LIG    H1182283   3.513   3.261   1.413  1.7238  0.7680 -1.0405
20250LIG    H1282284   3.546   3.009   1.395  1.5512 -0.2615 -0.2046
20250LIG    H1382285   3.634   3.632   1.871  1.5009  0.5371 -0.4548
20250LIG    H1482286   3.684   3.575   1.713  0.8434  1.9726  1.0709
20250LIG    H1582287   3.730   3.483   1.858  0.6336 -0.1848 -1.1997
20250LIG    H1682288   3.078   3.259   1.692 -0.8448  0.5951  2.4138
20250LIG    H1782289   3.021   3.017   1.750  0.9289 -3.8497 -0.4334
20250LIG    H1882290   3.721   2.782   1.747  1.4886 -0.0329  0.3463
20250LIG    H1982291   3.692   2.613   1.498  0.8344  0.9673  0.0664
20250LIG    H2082292   3.820   2.559   1.779  0.7344 -3.3551  0.3669
20250LIG    H2182293   3.107   2.816   1.826 -0.3716  2.0544  2.7723
20250LIG    H2282294   3.950   2.574   1.506 -0.5978  1.1878 -0.2713
20250LIG    H2382295   3.967   2.769   1.742  0.6646 -0.8110 -0.0160
20250LIG    H2482296   3.492   2.634   1.628  2.5157  1.3280 -2.3267
20250LIG    H2582297   3.775   2.371   1.741 -0.4978 -0.2067 -0.0477
20250LIG    H2682298   4.042   2.437   1.649 -1.3365 -0.1476  1.5733
20250LIG    H2782299   4.201   2.966   1.551  0.8931 -0.7756  0.7220
   6.82528   6.82528  17.25819
